 Gaussian 16, Revision A.03,

 -----------------------------------------------------------
 # opt freq B3LYP/6-31G(d) empiricaldispersion=gd3bj scf=xqc
 -----------------------------------------------------------

 ------------------------------
 CID_64169656_JID_9260_neutraal
 ------------------------------
 Symbolic Z-matrix:
 Charge =  0 Multiplicity = 1

 SCF Done:  E(RB3LYP) =  -1236.03639129     A.U. after   15 cycles
 SCF Done:  E(RB3LYP) =  -1236.04002067     A.U. after   13 cycles
 SCF Done:  E(RB3LYP) =  -1236.04050374     A.U. after   12 cycles
 SCF Done:  E(RB3LYP) =  -1236.04047439     A.U. after   13 cycles
 SCF Done:  E(RB3LYP) =  -1236.04080986     A.U. after   11 cycles
 SCF Done:  E(RB3LYP) =  -1236.04110357     A.U. after   12 cycles
 SCF Done:  E(RB3LYP) =  -1236.04171720     A.U. after   15 cycles
 SCF Done:  E(RB3LYP) =  -1236.04238168     A.U. after   13 cycles
 SCF Done:  E(RB3LYP) =  -1236.04351808     A.U. after   12 cycles
 SCF Done:  E(RB3LYP) =  -1236.04418426     A.U. after   12 cycles
 SCF Done:  E(RB3LYP) =  -1236.04442838     A.U. after   11 cycles
 SCF Done:  E(RB3LYP) =  -1236.04447120     A.U. after   11 cycles
 SCF Done:  E(RB3LYP) =  -1236.04448128     A.U. after   10 cycles
 SCF Done:  E(RB3LYP) =  -1236.04448525     A.U. after    9 cycles
 SCF Done:  E(RB3LYP) =  -1236.04448614     A.U. after    8 cycles
 SCF Done:  E(RB3LYP) =  -1236.04448622     A.U. after    7 cycles
 Optimization completed.
    -- Stationary point found.
 Normal termination of Gaussian 16 at Mon Dec 14 16:46:41 2020.

 --------------------------------------------------------------------
 #N Geom=AllCheck Guess=TCheck SCRF=Check GenChk RB3LYP/6-31G(d) Freq
 --------------------------------------------------------------------

 Structure from the checkpoint file:  "JID_9260.chk"
 ------------------------------
 CID_64169656_JID_9260_neutraal
 ------------------------------
 Charge =  0 Multiplicity = 1

 SCF Done:  E(RB3LYP) =  -1236.04448622     A.U. after    1 cycles

  Exact polarizability: 266.675  -7.818 168.670   4.155   2.193  94.156
 Approx polarizability: 340.021 -13.936 315.014  10.074   7.361 150.163

                      1                      2                      3
                      A                      A                      A
 Frequencies --     21.3395                27.5443                54.7965
 Red. masses --      6.3125                 6.2990                10.4381
 Frc consts  --      0.0017                 0.0028                 0.0185
 IR Inten    --      0.4541                 2.6354                 0.0879

                      4                      5                      6
                      A                      A                      A
 Frequencies --     59.0383                79.4436                98.3684
 Red. masses --      5.6480                 3.9006                 7.9371
 Frc consts  --      0.0116                 0.0145                 0.0453
 IR Inten    --      1.8562                 1.0254                 2.4431

                      7                      8                      9
                      A                      A                      A
 Frequencies --    116.1566               157.8837               171.0036
 Red. masses --      7.7788                 5.1467                 4.4293
 Frc consts  --      0.0618                 0.0756                 0.0763
 IR Inten    --      0.7884                 0.3589                 0.0999

                     10                     11                     12
                      A                      A                      A
 Frequencies --    191.2616               240.6639               278.2750
 Red. masses --      3.7894                 6.7512                 6.4194
 Frc consts  --      0.0817                 0.2304                 0.2929
 IR Inten    --      2.5962                 1.4137                 0.6634

                     13                     14                     15
                      A                      A                      A
 Frequencies --    293.2811               356.6584               389.4493
 Red. masses --      2.2941                 8.3863                 7.7936
 Frc consts  --      0.1163                 0.6285                 0.6964
 IR Inten    --      0.9552                 3.2157                 2.9913

                     16                     17                     18
                      A                      A                      A
 Frequencies --    401.6734               429.5805               474.7576
 Red. masses --      4.6687                 3.2410                10.1111
 Frc consts  --      0.4438                 0.3524                 1.3427
 IR Inten    --      1.3165                 3.4611                 5.0982

                     19                     20                     21
                      A                      A                      A
 Frequencies --    499.0256               513.3731               526.1692
 Red. masses --      3.4449                 3.8518                 4.3403
 Frc consts  --      0.5054                 0.5981                 0.7080
 IR Inten    --      0.6727                 6.4000                 2.7327

                     22                     23                     24
                      A                      A                      A
 Frequencies --    567.8724               624.1393               640.6274
 Red. masses --      5.4457                 1.4184                 4.8073
 Frc consts  --      1.0347                 0.3255                 1.1624
 IR Inten    --      0.6885                77.5137                64.0683

                     25                     26                     27
                      A                      A                      A
 Frequencies --    675.6143               680.2038               695.4368
 Red. masses --      3.3835                 6.6906                 5.7580
 Frc consts  --      0.9099                 1.8239                 1.6407
 IR Inten    --      1.7653                 0.8132                29.6386

                     28                     29                     30
                      A                      A                      A
 Frequencies --    699.3427               722.5950               728.0257
 Red. masses --      2.6062                 3.9506                 3.8484
 Frc consts  --      0.7510                 1.2154                 1.2018
 IR Inten    --      0.7813                46.9721                26.1976

                     31                     32                     33
                      A                      A                      A
 Frequencies --    765.6736               782.5186               833.0454
 Red. masses --      3.9156                 6.5217                 1.7701
 Frc consts  --      1.3525                 2.3529                 0.7237
 IR Inten    --     52.7865                 8.9269                 3.1403

                     34                     35                     36
                      A                      A                      A
 Frequencies --    838.2067               875.6722               902.9761
 Red. masses --      6.0053                 1.4864                 2.3936
 Frc consts  --      2.4859                 0.6716                 1.1499
 IR Inten    --      8.9977                 1.2976                 2.8425

                     37                     38                     39
                      A                      A                      A
 Frequencies --    917.7754               949.7360               972.8112
 Red. masses --      2.2825                 1.3884                 1.4417
 Frc consts  --      1.1328                 0.7379                 0.8039
 IR Inten    --     10.0808                 0.1783                 5.9819

                     40                     41                     42
                      A                      A                      A
 Frequencies --    981.3174               993.5884               995.9364
 Red. masses --      3.6795                 3.6192                 1.3104
 Frc consts  --      2.0877                 2.1051                 0.7658
 IR Inten    --     21.9212                 4.4790                 0.0405

                     43                     44                     45
                      A                      A                      A
 Frequencies --   1008.5207              1022.6131              1046.2607
 Red. masses --      4.9262                 6.2588                 2.4354
 Frc consts  --      2.9521                 3.8563                 1.5708
 IR Inten    --      7.5116                 0.1679                 6.2150

                     46                     47                     48
                      A                      A                      A
 Frequencies --   1066.7549              1069.9492              1119.8973
 Red. masses --      1.7534                 2.3371                 2.6806
 Frc consts  --      1.1756                 1.5763                 1.9808
 IR Inten    --      1.4117                12.7605                 2.5769

                     49                     50                     51
                      A                      A                      A
 Frequencies --   1128.1341              1132.9995              1149.8600
 Red. masses --      1.7009                 3.2082                 1.5495
 Frc consts  --      1.2754                 2.4264                 1.2070
 IR Inten    --     31.2524                34.5563                 1.3042

                     52                     53                     54
                      A                      A                      A
 Frequencies --   1171.8063              1200.3636              1215.5026
 Red. masses --      1.3863                 1.4303                 1.4390
 Frc consts  --      1.1215                 1.2142                 1.2527
 IR Inten    --     29.0643               282.6519               126.2519

                     55                     56                     57
                      A                      A                      A
 Frequencies --   1219.0516              1242.0596              1279.7130
 Red. masses --      1.3174                 2.5388                 1.2840
 Frc consts  --      1.1535                 2.3076                 1.2389
 IR Inten    --      8.8139                 9.0166                11.8808

                     58                     59                     60
                      A                      A                      A
 Frequencies --   1313.9970              1325.7113              1332.9554
 Red. masses --      1.3276                 1.6465                 2.0017
 Frc consts  --      1.3505                 1.7050                 2.0955
 IR Inten    --      9.1095                 9.2873                16.9698

                     61                     62                     63
                      A                      A                      A
 Frequencies --   1359.7853              1373.3065              1384.3289
 Red. masses --      1.4227                 3.8473                 1.5186
 Frc consts  --      1.5499                 4.2751                 1.7146
 IR Inten    --      0.4846                 3.7510                 4.0982

                     64                     65                     66
                      A                      A                      A
 Frequencies --   1394.1481              1416.7216              1499.2383
 Red. masses --      2.4768                 2.6604                 4.2181
 Frc consts  --      2.8363                 3.1460                 5.5861
 IR Inten    --    127.2991                17.0668                30.6155

                     67                     68                     69
                      A                      A                      A
 Frequencies --   1508.2185              1517.8833              1520.2132
 Red. masses --      1.1012                 1.0824                 2.4771
 Frc consts  --      1.4759                 1.4694                 3.3729
 IR Inten    --      6.1357                 6.8871                17.0762

                     70                     71                     72
                      A                      A                      A
 Frequencies --   1533.6368              1600.7744              1604.2225
 Red. masses --      1.1074                 9.3808                 8.2650
 Frc consts  --      1.5346                14.1628                12.5320
 IR Inten    --      0.4144                72.9340                21.5343

                     73                     74                     75
                      A                      A                      A
 Frequencies --   1649.4350              1668.8226              1829.1131
 Red. masses --      6.2061                 5.9377                 9.9559
 Frc consts  --      9.9481                 9.7429                19.6251
 IR Inten    --      0.7251                17.6892               259.9685

                     76                     77                     78
                      A                      A                      A
 Frequencies --   3072.6059              3075.4356              3083.1577
 Red. masses --      1.0644                 1.0617                 1.0616
 Frc consts  --      5.9206                 5.9167                 5.9457
 IR Inten    --     15.9353                17.7990                44.5659

                     79                     80                     81
                      A                      A                      A
 Frequencies --   3106.2555              3123.7823              3134.0192
 Red. masses --      1.0850                 1.1009                 1.1038
 Frc consts  --      6.1679                 6.3293                 6.3875
 IR Inten    --      8.1297                 9.4874                11.2865

                     82                     83                     84
                      A                      A                      A
 Frequencies --   3144.7770              3204.8865              3226.2984
 Red. masses --      1.1068                 1.0883                 1.0929
 Frc consts  --      6.4490                 6.5862                 6.7028
 IR Inten    --     21.5707                 9.0658                 3.5553

                     85                     86                     87
                      A                      A                      A
 Frequencies --   3239.7460              3242.3774              3700.1607
 Red. masses --      1.0933                 1.0915                 1.0642
 Frc consts  --      6.7610                 6.7609                 8.5844
 IR Inten    --      2.1987                 3.5016                85.2550

 - Thermochemistry -
 -------------------
 Temperature   298.150 Kelvin.  Pressure   1.00000 Atm.
 Atom     1 has atomic number  6 and mass  12.00000

 Molecular mass:   276.05686 amu.
 Principal axes and moments of inertia in atomic units:
                           1         2         3
     Eigenvalues --  1731.31715********************
           X            0.99995  -0.01023  -0.00032
           Y            0.01024   0.99988   0.01169
           Z            0.00020  -0.01169   0.99993
 This molecule is an asymmetric top.
 Rotational symmetry number  1.
 Warning -- assumption of classical behavior for rotation
           may cause significant error
 Rotational temperatures (Kelvin)      0.05003     0.00639     0.00593
 Rotational constants (GHZ):           1.04241     0.13323     0.12358
 Zero-point vibrational energy     624943.3 (Joules/Mol)
                                  149.36503 (Kcal/Mol)
 Warning -- explicit consideration of  22 degrees of freedom as
           vibrations may cause significant error
 Vibrational temperatures:     30.70    39.63    78.84    84.94   114.30
          (Kelvin)            141.53   167.12   227.16   246.04   275.18
                              346.26   400.38   421.97   513.15   560.33
                              577.92   618.07   683.07   717.99   738.63
                              757.04   817.04   898.00   921.72   972.06
                              978.66  1000.58  1006.20  1039.65  1047.47
                             1101.63  1125.87  1198.57  1205.99  1259.90
                             1299.18  1320.47  1366.46  1399.66  1411.90
                             1429.55  1432.93  1451.04  1471.31  1505.34
                             1534.82  1539.42  1611.28  1623.13  1630.13
                             1654.39  1685.97  1727.06  1748.84  1753.94
                             1787.05  1841.22  1890.55  1907.40  1917.83
                             1956.43  1975.88  1991.74  2005.87  2038.35
                             2157.07  2169.99  2183.90  2187.25  2206.56
                             2303.16  2308.12  2373.17  2401.06  2631.69
                             4420.79  4424.87  4435.98  4469.21  4494.43
                             4509.15  4524.63  4611.12  4641.92  4661.27
                             4665.06  5323.71

 Zero-point correction=                           0.238028 (Hartree/Particle)
 Thermal correction to Energy=                    0.254095
 Thermal correction to Enthalpy=                  0.255039
 Thermal correction to Gibbs Free Energy=         0.191520
 Sum of electronic and zero-point Energies=          -1235.806458
 Sum of electronic and thermal Energies=             -1235.790391
 Sum of electronic and thermal Enthalpies=           -1235.789447
 Sum of electronic and thermal Free Energies=        -1235.852966

                     E (Thermal)             CV                S
                      KCal/Mol        Cal/Mol-Kelvin    Cal/Mol-Kelvin
 Total                  159.447             60.892            133.688
 Electronic               0.000              0.000              0.000
 Translational            0.889              2.981             42.745
 Rotational               0.889              2.981             34.193
 Vibrational            157.670             54.931             56.751
 Vibration     1          0.593              1.985              6.505
 Vibration     2          0.593              1.984              5.999
 Vibration     3          0.596              1.976              4.636
 Vibration     4          0.596              1.974              4.489
 Vibration     5          0.600              1.963              3.905
 Vibration     6          0.604              1.950              3.486
 Vibration     7          0.608              1.936              3.163
 Vibration     8          0.621              1.894              2.575
 Vibration     9          0.626              1.878              2.424
 Vibration    10          0.634              1.852              2.216
 Vibration    11          0.658              1.778              1.798
 Vibration    12          0.679              1.714              1.544
 Vibration    13          0.688              1.686              1.455
 Vibration    14          0.732              1.562              1.137
 Vibration    15          0.757              1.493              1.002
 Vibration    16          0.767              1.467              0.957
 Vibration    17          0.791              1.406              0.860
 Vibration    18          0.831              1.306              0.724
 Vibration    19          0.854              1.252              0.661
 Vibration    20          0.868              1.220              0.626
 Vibration    21          0.881              1.192              0.596
 Vibration    22          0.924              1.101              0.508

 Optimization completed.
    -- Stationary point found.
 Normal termination of Gaussian 16 at Mon Dec 14 17:00:21 2020.

 ----------------------------------------------------------------------
 # B3LYP/6-311++G(d,p) empiricaldispersion=gd3bj scf=xqc pop=npa geom=c
 heck
 ----------------------------------------------------------------------

 --------------------------------------
 CID_64169656_JID_9260_Energie_neutraal
 --------------------------------------
 Structure from the checkpoint file:  "JID_9260.chk"
 Charge =  0 Multiplicity = 1

 SCF Done:  E(RB3LYP) =  -1236.30090327     A.U. after   16 cycles
 Normal termination of Gaussian 16 at Mon Dec 14 17:06:41 2020.

 ----------------------------------------------------------------------
 # B3LYP/6-311++G(d,p) empiricaldispersion=gd3bj scf=xqc pop=npa geom=c
 heck
 ----------------------------------------------------------------------

 ------------------------------------
 CID_64169656_JID_9260_Energie_kation
 ------------------------------------
 Structure from the checkpoint file:  "JID_9260.chk"
 Charge =  1 Multiplicity = 2

 SCF Done:  E(UB3LYP) =  -1236.00068717     A.U. after   26 cycles
 Normal termination of Gaussian 16 at Mon Dec 14 17:21:24 2020.
 Gaussian 16:  ES64L-G16RevA.03 25-Dec-2016

 ----------------------------------------------------------------------
 # B3LYP/6-311++G(d,p) empiricaldispersion=gd3bj scf=xqc pop=npa geom=c
 heck
 ----------------------------------------------------------------------

 -----------------------------------
 CID_64169656_JID_9260_Energie_anion
 -----------------------------------
 Structure from the checkpoint file:  "JID_9260.chk"
 Charge = -1 Multiplicity = 2

                         Standard orientation:
 ---------------------------------------------------------------------
 Center     Atomic      Atomic             Coordinates (Angstroms)
 Number     Number       Type             X           Y           Z
 ---------------------------------------------------------------------
      1          6           0        4.819956   -1.299524   -0.405191
      2          6           0        4.422098   -0.809189    0.990377
      3          6           0        3.371561    0.295598    0.797030
      4         16           0        3.916330    1.246977   -0.717231
      5          6           0        5.123693   -0.055607   -1.245994
      6          6           0        2.002255   -0.248782    0.596714
      7          7           0        1.625756   -1.475686    0.407886
      8          7           0        0.241603   -1.446876    0.230543
      9          6           0       -0.117770   -0.200952    0.327057
     10          8           0        0.951164    0.621619    0.565739
     11          6           0       -1.450757    0.375065    0.220268
     12          6           0       -2.547138   -0.470470    0.016021
     13          6           0       -3.829890    0.068175   -0.090519
     14          6           0       -4.024420    1.453366    0.006374
     15          6           0       -2.930883    2.292226    0.209255
     16          6           0       -1.647532    1.761114    0.316089
     17          6           0       -4.959699   -0.874204   -0.306324
     18          8           0       -4.852015   -2.079485   -0.395300
     19          8           0       -6.159659   -0.245420   -0.397417
     20          1           0        5.690255   -1.963907   -0.366449
     21          1           0        3.985779   -1.857664   -0.839858
     22          1           0        5.288846   -0.375718    1.501008
     23          1           0        4.022041   -1.617697    1.608245
     24          1           0        3.356109    0.999302    1.633486
     25          1           0        6.136325    0.315719   -1.063507
     26          1           0        5.002515   -0.233134   -2.316985
     27          1           0       -2.405954   -1.542412   -0.060032
     28          1           0       -5.024938    1.860875   -0.077861
     29          1           0       -3.077256    3.365301    0.283371
     30          1           0       -0.794744    2.413269    0.470804
     31          1           0       -6.816531   -0.952244   -0.536666
 ---------------------------------------------------------------------

 SCF Done:  E(UB3LYP) =  -1236.32453100     A.U. after   25 cycles

 The electronic state is 2-A.
 Alpha  occ. eigenvalues --  -88.74662 -19.07477 -19.04586 -18.97206 -14.21410
 Alpha  occ. eigenvalues --  -14.19471 -10.16123 -10.13889 -10.12834 -10.12685
 Alpha  occ. eigenvalues --  -10.11743 -10.09733 -10.09423 -10.04776 -10.04675
 Alpha  occ. eigenvalues --  -10.04132 -10.04091 -10.02814 -10.02650  -7.83285
 Alpha  occ. eigenvalues --   -5.79686  -5.79337  -5.78628  -1.02777  -0.98115
 Alpha  occ. eigenvalues --   -0.88670  -0.84938  -0.77195  -0.73568  -0.70837
 Alpha  occ. eigenvalues --   -0.65414  -0.63904  -0.63145  -0.61612  -0.54803
 Alpha  occ. eigenvalues --   -0.52832  -0.51893  -0.50128  -0.47132  -0.46217
 Alpha  occ. eigenvalues --   -0.44603  -0.41122  -0.40353  -0.39099  -0.37379
 Alpha  occ. eigenvalues --   -0.36751  -0.36295  -0.34355  -0.33849  -0.32476
 Alpha  occ. eigenvalues --   -0.31934  -0.31307  -0.30557  -0.29447  -0.28806
 Alpha  occ. eigenvalues --   -0.27712  -0.27542  -0.27124  -0.26253  -0.24280
 Alpha  occ. eigenvalues --   -0.22996  -0.22639  -0.21940  -0.21801  -0.20260
 Alpha  occ. eigenvalues --   -0.19781  -0.17419  -0.15436  -0.15160  -0.13781
 Alpha  occ. eigenvalues --   -0.13029  -0.10985   0.03108
 Alpha virt. eigenvalues --    0.05719   0.07517   0.07808   0.08326   0.08648
 Alpha virt. eigenvalues --    0.09185   0.09587   0.09791   0.10571   0.11447
 Alpha virt. eigenvalues --    0.11692   0.12343   0.12526   0.13404   0.13877

  Beta  occ. eigenvalues --  -88.74641 -19.07345 -19.04570 -18.97017 -14.21471
  Beta  occ. eigenvalues --  -14.19344 -10.15985 -10.13729 -10.12833 -10.12556
  Beta  occ. eigenvalues --  -10.11743 -10.09733 -10.09419 -10.04740 -10.04675
  Beta  occ. eigenvalues --  -10.04271 -10.04015 -10.02400 -10.02244  -7.83264
  Beta  occ. eigenvalues --   -5.79640  -5.79314  -5.78614  -1.02563  -0.97969
  Beta  occ. eigenvalues --   -0.88409  -0.84789  -0.77103  -0.73251  -0.70579
  Beta  occ. eigenvalues --   -0.65270  -0.63847  -0.62670  -0.61351  -0.54676
  Beta  occ. eigenvalues --   -0.52615  -0.51215  -0.50075  -0.46989  -0.46013
  Beta  occ. eigenvalues --   -0.44430  -0.41015  -0.40261  -0.39012  -0.37147
  Beta  occ. eigenvalues --   -0.36326  -0.36051  -0.34098  -0.33670  -0.31838
  Beta  occ. eigenvalues --   -0.31764  -0.31156  -0.30391  -0.29382  -0.28678
  Beta  occ. eigenvalues --   -0.27647  -0.27470  -0.26968  -0.26198  -0.23414
  Beta  occ. eigenvalues --   -0.22778  -0.22469  -0.21656  -0.21436  -0.19741
  Beta  occ. eigenvalues --   -0.19554  -0.16368  -0.15301  -0.14976  -0.13631
  Beta  occ. eigenvalues --   -0.11959  -0.09632
  Beta virt. eigenvalues --    0.05661   0.07526   0.07893   0.08308   0.08794
  Beta virt. eigenvalues --    0.09099   0.09182   0.09695   0.09963   0.10597
  Beta virt. eigenvalues --    0.11538   0.11704   0.12315   0.12512   0.13407

 Mulliken charges and spin densities:
               1          2
     1  C   -0.277796   0.021733
     2  C   -0.596953  -0.014377
     3  C    0.593408   0.025044
     4  S    0.017539   0.017070
     5  C   -0.676737  -0.041844
     6  C   -0.044606   0.091151
     7  N   -0.020891  -0.032220
     8  N   -0.118471   0.063143
     9  C   -0.125289   0.073322
    10  O    0.017732   0.033123
    11  C    1.098784   0.018273
    12  C   -1.146074  -0.029914
    13  C    0.260332   0.028114
    14  C   -0.706102   0.344261
    15  C   -0.064767  -0.090619
    16  C   -0.910072   0.333614
    17  C    0.145369   0.083474
    18  O   -0.380005   0.063689
    19  O   -0.209246   0.003324
    20  H    0.124596  -0.000222
    21  H    0.202145  -0.000550
    22  H    0.169969   0.005743
    23  H    0.183209   0.000980
    24  H    0.273353   0.021561
    25  H    0.148128   0.017837
    26  H    0.187130   0.005346
    27  H    0.228494   0.003132
    28  H    0.138641  -0.024377
    29  H    0.117664   0.007512
    30  H    0.102148  -0.026674
    31  H    0.268370  -0.000651
 Sum of Mulliken charges =  -1.00000   1.00000

 Dipole moment (field-independent basis, Debye):
    X=              8.0631    Y=              1.7615    Z=              0.6663  Tot=              8.2801
 Quadrupole moment (field-independent basis, Debye-Ang):
   XX=           -165.0634   YY=           -144.7187   ZZ=           -123.9517
   XY=             -9.4905   XZ=              1.3900   YZ=              1.6104

 Summary of Natural Population Analysis:

                                       Natural Population
                Natural  -----------------------------------------------
    Atom  No    Charge         Core      Valence    Rydberg      Total
 -----------------------------------------------------------------------
      C    1   -0.20071      0.99963     2.19293    0.00815     3.20071
      C    2   -0.19096      0.99962     2.18294    0.00840     3.19096
      C    3   -0.17767      0.99952     2.16646    0.01169     3.17767
      S    4    0.08678      4.99967     2.89557    0.01799     7.91322
      C    5   -0.24477      0.99961     2.23751    0.00764     3.24477
      C    6    0.26507      0.99955     1.71570    0.01967     2.73493
      N    7   -0.18586      0.99966     2.67356    0.01264     3.68586
      N    8   -0.15576      0.99967     2.64312    0.01297     3.65576
      C    9    0.27657      0.99955     1.70585    0.01803     2.72343
      O   10   -0.23748      0.99985     3.22598    0.01165     4.23748
      C   11   -0.06119      0.99937     2.05195    0.00987     3.06119
      C   12   -0.05851      0.99944     2.05032    0.00876     3.05851
      C   13   -0.08541      0.99946     2.07541    0.01054     3.08541
      C   14   -0.00326      0.99955     1.99483    0.00888     3.00326
      C   15   -0.14351      0.99960     2.13375    0.01016     3.14351
      C   16    0.00670      0.99945     1.98540    0.00846     2.99330
      C   17    0.41227      0.99966     1.56333    0.02474     2.58773
      O   18   -0.30839      0.99987     3.30053    0.00798     4.30839
      O   19   -0.35353      0.99988     3.34773    0.00593     4.35353
      H   20    0.09741      0.00000     0.40134    0.00125     0.40259
      H   21    0.11299      0.00000     0.38563    0.00138     0.38701
      H   22    0.09508      0.00000     0.40392    0.00099     0.40492
      H   23    0.11450      0.00000     0.38418    0.00132     0.38550
      H   24    0.11379      0.00000     0.38479    0.00142     0.38621
      H   25    0.09270      0.00000     0.40568    0.00162     0.40730
      H   26    0.10293      0.00000     0.39584    0.00123     0.39707
      H   27    0.11577      0.00000     0.38279    0.00144     0.38423
      H   28    0.09611      0.00000     0.40272    0.00116     0.40389
      H   29    0.09175      0.00000     0.40709    0.00116     0.40825
      H   30    0.09419      0.00000     0.40470    0.00111     0.40581
      H   31    0.23241      0.00000     0.26441    0.00317     0.26759
 =======================================================================
   * Total *    0.00002     22.99263    48.76594    0.24141    71.99998

 Normal termination of Gaussian 16 at Mon Dec 14 17:35:26 2020.
