 Gaussian 16, Revision A.03,

 -----------------------------------------------------------
 # opt freq B3LYP/6-31G(d) empiricaldispersion=gd3bj scf=xqc
 -----------------------------------------------------------

 -------------------------------
 CID_118047990_JID_8964_neutraal
 -------------------------------
 Symbolic Z-matrix:
 Charge =  0 Multiplicity = 1

 SCF Done:  E(RB3LYP) =  -747.353505787     A.U. after   13 cycles
 SCF Done:  E(RB3LYP) =  -747.359037990     A.U. after   12 cycles
 SCF Done:  E(RB3LYP) =  -747.359912077     A.U. after   12 cycles
 SCF Done:  E(RB3LYP) =  -747.360122252     A.U. after   11 cycles
 SCF Done:  E(RB3LYP) =  -747.360185312     A.U. after   11 cycles
 SCF Done:  E(RB3LYP) =  -747.360231832     A.U. after   11 cycles
 SCF Done:  E(RB3LYP) =  -747.360278182     A.U. after   12 cycles
 SCF Done:  E(RB3LYP) =  -747.360464740     A.U. after   14 cycles
 SCF Done:  E(RB3LYP) =  -747.355741408     A.U. after   15 cycles
 SCF Done:  E(RB3LYP) =  -747.359169488     A.U. after   12 cycles
 SCF Done:  E(RB3LYP) =  -747.365352886     A.U. after   10 cycles
 SCF Done:  E(RB3LYP) =  -747.365375717     A.U. after    9 cycles
 SCF Done:  E(RB3LYP) =  -747.365380909     A.U. after    8 cycles
 SCF Done:  E(RB3LYP) =  -747.365382413     A.U. after    8 cycles
 SCF Done:  E(RB3LYP) =  -747.365382582     A.U. after    7 cycles
 Optimization completed.
    -- Stationary point found.
 Normal termination of Gaussian 16 at Fri Dec 11 23:55:12 2020.

 --------------------------------------------------------------------
 #N Geom=AllCheck Guess=TCheck SCRF=Check GenChk RB3LYP/6-31G(d) Freq
 --------------------------------------------------------------------

 Structure from the checkpoint file:  "JID_8964.chk"
 -------------------------------
 CID_118047990_JID_8964_neutraal
 -------------------------------
 Charge =  0 Multiplicity = 1

 SCF Done:  E(RB3LYP) =  -747.365382582     A.U. after    1 cycles

  Exact polarizability: 215.770   8.322 115.816   2.994 -22.587 153.025
 Approx polarizability: 359.225  19.891 165.952   3.907 -54.891 287.216

                      1                      2                      3
                      A                      A                      A
 Frequencies --     52.7337                56.8014                65.8775
 Red. masses --      3.7059                 4.7276                 4.7560
 Frc consts  --      0.0061                 0.0090                 0.0122
 IR Inten    --      0.3171                 0.6562                 0.0524

                      4                      5                      6
                      A                      A                      A
 Frequencies --     80.6103                96.9639               123.2966
 Red. masses --      3.6241                 6.0168                 4.4746
 Frc consts  --      0.0139                 0.0333                 0.0401
 IR Inten    --      0.0708                 0.5401                 0.3934

                      7                      8                      9
                      A                      A                      A
 Frequencies --    167.8920               184.4455               221.6768
 Red. masses --      3.4019                 4.2623                 3.4882
 Frc consts  --      0.0565                 0.0854                 0.1010
 IR Inten    --      2.8562                 2.6685                 3.9218

                     10                     11                     12
                      A                      A                      A
 Frequencies --    278.3405               298.8987               310.8606
 Red. masses --      1.0720                 2.9345                 3.1530
 Frc consts  --      0.0489                 0.1545                 0.1795
 IR Inten    --     12.3898                 0.1788                 0.7454

                     13                     14                     15
                      A                      A                      A
 Frequencies --    332.4240               349.4505               388.5251
 Red. masses --      2.0838                 3.1006                 1.5061
 Frc consts  --      0.1357                 0.2231                 0.1339
 IR Inten    --      1.1397                 0.1621                17.2188

                     16                     17                     18
                      A                      A                      A
 Frequencies --    402.1152               409.8525               419.3386
 Red. masses --      2.9962                 2.7784                 2.2836
 Frc consts  --      0.2854                 0.2750                 0.2366
 IR Inten    --      3.3049                 1.4085                10.1562

                     19                     20                     21
                      A                      A                      A
 Frequencies --    425.1072               431.3483               452.0724
 Red. masses --      2.2926                 2.9211                 3.8251
 Frc consts  --      0.2441                 0.3202                 0.4606
 IR Inten    --      5.7064                 3.7878                 2.5208

                     22                     23                     24
                      A                      A                      A
 Frequencies --    490.4757               506.0687               555.2479
 Red. masses --      3.5052                 3.1659                 2.3173
 Frc consts  --      0.4968                 0.4777                 0.4209
 IR Inten    --     10.9284                12.0677                43.8998

                     25                     26                     27
                      A                      A                      A
 Frequencies --    589.5872               660.0779               661.0265
 Red. masses --      2.5531                 6.6249                 6.6002
 Frc consts  --      0.5229                 1.7007                 1.6992
 IR Inten    --      1.5571                 1.7224                 0.6954

                     28                     29                     30
                      A                      A                      A
 Frequencies --    703.7297               713.5935               727.2694
 Red. masses --      2.6947                 2.6492                 2.9437
 Frc consts  --      0.7863                 0.7948                 0.9173
 IR Inten    --    210.9009                 1.7198                24.3541

                     31                     32                     33
                      A                      A                      A
 Frequencies --    739.9821               768.7278               781.5002
 Red. masses --      2.6360                 1.6590                 1.5026
 Frc consts  --      0.8504                 0.5776                 0.5407
 IR Inten    --     13.5245                88.9894               215.2353

                     34                     35                     36
                      A                      A                      A
 Frequencies --    801.2018               819.4990               825.8873
 Red. masses --      2.4625                 1.2877                 1.3220
 Frc consts  --      0.9313                 0.5095                 0.5313
 IR Inten    --     57.3391                 1.1317                 6.8174

                     37                     38                     39
                      A                      A                      A
 Frequencies --    832.9548               845.3420               859.8198
 Red. masses --      1.8703                 1.8574                 2.8094
 Frc consts  --      0.7646                 0.7820                 1.2237
 IR Inten    --    112.2462               136.0215                63.1164

                     40                     41                     42
                      A                      A                      A
 Frequencies --    865.6200               881.9613               931.5800
 Red. masses --      3.5627                 2.0033                 1.3134
 Frc consts  --      1.5728                 0.9181                 0.6715
 IR Inten    --      9.5551                34.3263                 0.2635

                     43                     44                     45
                      A                      A                      A
 Frequencies --    937.4428               943.8986               947.7344
 Red. masses --      1.3227                 1.3159                 1.3213
 Frc consts  --      0.6848                 0.6907                 0.6993
 IR Inten    --      1.4870                 0.2871                 0.4438

                     46                     47                     48
                      A                      A                      A
 Frequencies --    961.2720               984.7474              1037.2572
 Red. masses --      1.8742                 2.1014                 2.7791
 Frc consts  --      1.0204                 1.2006                 1.7617
 IR Inten    --      1.8143                 1.8059                 1.2499

                     49                     50                     51
                      A                      A                      A
 Frequencies --   1039.5007              1057.4689              1082.8422
 Red. masses --      2.7280                 2.3104                 1.9067
 Frc consts  --      1.7368                 1.5222                 1.3173
 IR Inten    --      0.4098                 9.5669                11.8206

                     52                     53                     54
                      A                      A                      A
 Frequencies --   1115.6594              1133.9834              1140.7644
 Red. masses --      1.5656                 1.4557                 2.8378
 Frc consts  --      1.1481                 1.1029                 2.1758
 IR Inten    --     15.3311                 2.1323                27.4585

                     55                     56                     57
                      A                      A                      A
 Frequencies --   1166.7684              1176.0533              1212.3666
 Red. masses --      1.2189                 1.2062                 1.1630
 Frc consts  --      0.9776                 0.9829                 1.0072
 IR Inten    --      3.6649                 6.5876                 2.5933

                     58                     59                     60
                      A                      A                      A
 Frequencies --   1214.7805              1218.0006              1233.3475
 Red. masses --      1.1515                 1.1295                 2.4279
 Frc consts  --      1.0012                 0.9872                 2.1760
 IR Inten    --      8.9450                 3.9492                 0.3657

                     61                     62                     63
                      A                      A                      A
 Frequencies --   1234.9666              1254.5642              1297.4341
 Red. masses --      3.0242                 1.2248                 3.3035
 Frc consts  --      2.7175                 1.1358                 3.2764
 IR Inten    --      3.8059                 1.2723                21.6967

                     64                     65                     66
                      A                      A                      A
 Frequencies --   1312.9885              1320.9174              1357.0160
 Red. masses --      1.6930                 2.4353                 1.5493
 Frc consts  --      1.7196                 2.5035                 1.6809
 IR Inten    --     33.8847                34.9556                 2.3104

                     67                     68                     69
                      A                      A                      A
 Frequencies --   1365.9986              1371.7548              1377.2386
 Red. masses --      1.3525                 1.3055                 1.9150
 Frc consts  --      1.4869                 1.4474                 2.1401
 IR Inten    --      0.7850                 6.5281                 2.9817

                     70                     71                     72
                      A                      A                      A
 Frequencies --   1383.1234              1386.8322              1416.0409
 Red. masses --      1.9105                 3.3838                 1.3201
 Frc consts  --      2.1534                 3.8344                 1.5596
 IR Inten    --      4.5935                 5.3677                 8.5736

                     73                     74                     75
                      A                      A                      A
 Frequencies --   1487.5234              1490.9607              1508.4203
 Red. masses --      2.6757                 2.7610                 1.0808
 Frc consts  --      3.4883                 3.6162                 1.4490
 IR Inten    --      3.4918                 2.7338                 1.3646

                     76                     77                     78
                      A                      A                      A
 Frequencies --   1514.8098              1537.8866              1546.5417
 Red. masses --      1.1121                 1.1912                 1.0795
 Frc consts  --      1.5035                 1.6599                 1.5212
 IR Inten    --      8.9044                14.9077                 3.2789

                     79                     80                     81
                      A                      A                      A
 Frequencies --   1568.2267              1571.9420              1642.2663
 Red. masses --      2.5751                 2.6219                 5.8264
 Frc consts  --      3.7313                 3.8171                 9.2585
 IR Inten    --      6.0842                95.3418                 2.2350

                     82                     83                     84
                      A                      A                      A
 Frequencies --   1645.3251              1678.3333              1681.4694
 Red. masses --      5.6069                 3.6352                 2.9853
 Frc consts  --      8.9428                 6.0330                 4.9729
 IR Inten    --      1.4527                 8.9430                21.4814

                     85                     86                     87
                      A                      A                      A
 Frequencies --   1693.9901              1712.1032              2999.9736
 Red. masses --      1.4900                 1.2052                 1.0628
 Frc consts  --      2.5192                 2.0814                 5.6358
 IR Inten    --    113.1721                42.0365                26.2451

                     88                     89                     90
                      A                      A                      A
 Frequencies --   3032.0016              3045.9593              3047.9725
 Red. masses --      1.0872                 1.0623                 1.0708
 Frc consts  --      5.8886                 5.8068                 5.8611
 IR Inten    --     32.0844                63.2562               108.5225

                     91                     92                     93
                      A                      A                      A
 Frequencies --   3082.9886              3091.7644              3160.9070
 Red. masses --      1.1039                 1.1039                 1.0871
 Frc consts  --      6.1821                 6.2173                 6.3996
 IR Inten    --     19.7606                22.6482                26.1625

                     94                     95                     96
                      A                      A                      A
 Frequencies --   3161.6332              3165.4730              3173.3347
 Red. masses --      1.0868                 1.0865                 1.0865
 Frc consts  --      6.4005                 6.4146                 6.4461
 IR Inten    --      4.9154                15.9136                11.5613

                     97                     98                     99
                      A                      A                      A
 Frequencies --   3179.8016              3182.8081              3191.8926
 Red. masses --      1.0938                 1.0940                 1.0944
 Frc consts  --      6.5164                 6.5297                 6.5695
 IR Inten    --     25.7332                28.1200                10.5276

                    100                    101                    102
                      A                      A                      A
 Frequencies --   3196.1079              3481.7074              3489.8606
 Red. masses --      1.0928                 1.0732                 1.0523
 Frc consts  --      6.5771                 7.6652                 7.5511
 IR Inten    --     13.2030                 1.0841                54.2283

                    103                    104                    105
                      A                      A                      A
 Frequencies --   3514.3131              3606.5257              3607.2781
 Red. masses --      1.0488                 1.0932                 1.0958
 Frc consts  --      7.6318                 8.3776                 8.4013
 IR Inten    --      5.0767                16.7272                 7.1168

 - Thermochemistry -
 -------------------
 Temperature   298.150 Kelvin.  Pressure   1.00000 Atm.
 Atom     1 has atomic number  6 and mass  12.00000

 Molecular mass:   241.15790 amu.
 Principal axes and moments of inertia in atomic units:
                           1         2         3
     Eigenvalues --  3165.190914095.642795840.56739
           X            0.99999   0.00104   0.00413
           Y           -0.00098   0.99990  -0.01415
           Z           -0.00415   0.01414   0.99989
 This molecule is an asymmetric top.
 Rotational symmetry number  1.
 Warning -- assumption of classical behavior for rotation
           may cause significant error
 Rotational temperatures (Kelvin)      0.02736     0.02115     0.01483
 Rotational constants (GHZ):           0.57018     0.44065     0.30900
 Zero-point vibrational energy     840284.8 (Joules/Mol)
                                  200.83289 (Kcal/Mol)
 Warning -- explicit consideration of  25 degrees of freedom as
           vibrations may cause significant error
 Vibrational temperatures:     75.87    81.72    94.78   115.98   139.51
          (Kelvin)            177.40   241.56   265.38   318.94   400.47
                              430.05   447.26   478.28   502.78   559.00
                              578.55   589.69   603.33   611.63   620.61
                              650.43   705.69   728.12   798.88   848.28
                              949.70   951.07  1012.51  1026.70  1046.38
                             1064.67  1106.03  1124.40  1152.75  1179.08
                             1188.27  1198.44  1216.26  1237.09  1245.43
                             1268.95  1340.34  1348.77  1358.06  1363.58
                             1383.06  1416.83  1492.38  1495.61  1521.46
                             1557.97  1605.19  1631.55  1641.31  1678.72
                             1692.08  1744.33  1747.80  1752.43  1774.51
                             1776.84  1805.04  1866.72  1889.10  1900.51
                             1952.44  1965.37  1973.65  1981.54  1990.01
                             1995.34  2037.37  2140.21  2145.16  2170.28
                             2179.47  2212.68  2225.13  2256.33  2261.67
                             2362.85  2367.26  2414.75  2419.26  2437.27
                             2463.33  4316.29  4362.37  4382.46  4385.35
                             4435.73  4448.36  4547.84  4548.89  4554.41
                             4565.72  4575.03  4579.35  4592.42  4598.49
                             5009.40  5021.13  5056.31  5188.99  5190.07

 Zero-point correction=                           0.320048 (Hartree/Particle)
 Thermal correction to Energy=                    0.336239
 Thermal correction to Enthalpy=                  0.337183
 Thermal correction to Gibbs Free Energy=         0.277035
 Sum of electronic and zero-point Energies=           -747.045335
 Sum of electronic and thermal Energies=              -747.029143
 Sum of electronic and thermal Enthalpies=            -747.028199
 Sum of electronic and thermal Free Energies=         -747.088348

                     E (Thermal)             CV                S
                      KCal/Mol        Cal/Mol-Kelvin    Cal/Mol-Kelvin
 Total                  210.993             65.495            126.594
 Electronic               0.000              0.000              0.000
 Translational            0.889              2.981             42.342
 Rotational               0.889              2.981             32.693
 Vibrational            209.216             59.534             51.559
 Vibration     1          0.596              1.977              4.712
 Vibration     2          0.596              1.975              4.565
 Vibration     3          0.597              1.971              4.273
 Vibration     4          0.600              1.962              3.876
 Vibration     5          0.603              1.951              3.514
 Vibration     6          0.610              1.930              3.048
 Vibration     7          0.625              1.882              2.459
 Vibration     8          0.631              1.861              2.283
 Vibration     9          0.648              1.808              1.945
 Vibration    10          0.679              1.714              1.544
 Vibration    11          0.692              1.676              1.423
 Vibration    12          0.700              1.653              1.358
 Vibration    13          0.714              1.611              1.248
 Vibration    14          0.727              1.576              1.169
 Vibration    15          0.757              1.495              1.006
 Vibration    16          0.768              1.466              0.955
 Vibration    17          0.774              1.449              0.927
 Vibration    18          0.782              1.428              0.894
 Vibration    19          0.787              1.416              0.875
 Vibration    20          0.792              1.402              0.854
 Vibration    21          0.811              1.356              0.790
 Vibration    22          0.846              1.271              0.682
 Vibration    23          0.861              1.237              0.643
 Vibration    24          0.911              1.128              0.533
 Vibration    25          0.947              1.054              0.468

 Optimization completed.
    -- Stationary point found.
 Normal termination of Gaussian 16 at Sat Dec 12 00:15:23 2020.

 ----------------------------------------------------------------------
 # B3LYP/6-311++G(d,p) empiricaldispersion=gd3bj scf=xqc pop=npa geom=c
 heck
 ----------------------------------------------------------------------

 ---------------------------------------
 CID_118047990_JID_8964_Energie_neutraal
 ---------------------------------------
 Structure from the checkpoint file:  "JID_8964.chk"
 Charge =  0 Multiplicity = 1

 SCF Done:  E(RB3LYP) =  -747.578375526     A.U. after   15 cycles
 Normal termination of Gaussian 16 at Sat Dec 12 00:22:43 2020.

 ----------------------------------------------------------------------
 # B3LYP/6-311++G(d,p) empiricaldispersion=gd3bj scf=xqc pop=npa geom=c
 heck
 ----------------------------------------------------------------------

 -------------------------------------
 CID_118047990_JID_8964_Energie_kation
 -------------------------------------
 Structure from the checkpoint file:  "JID_8964.chk"
 Charge =  1 Multiplicity = 2

 SCF Done:  E(UB3LYP) =  -747.322958922     A.U. after   23 cycles
 Normal termination of Gaussian 16 at Sat Dec 12 00:38:11 2020.
 Gaussian 16:  ES64L-G16RevA.03 25-Dec-2016

 ----------------------------------------------------------------------
 # B3LYP/6-311++G(d,p) empiricaldispersion=gd3bj scf=xqc pop=npa geom=c
 heck
 ----------------------------------------------------------------------

 ------------------------------------
 CID_118047990_JID_8964_Energie_anion
 ------------------------------------
 Structure from the checkpoint file:  "JID_8964.chk"
 Charge = -1 Multiplicity = 2

                         Standard orientation:
 ---------------------------------------------------------------------
 Center     Atomic      Atomic             Coordinates (Angstroms)
 Number     Number       Type             X           Y           Z
 ---------------------------------------------------------------------
      1          6           0       -0.109556    1.392384    1.389516
      2          6           0       -1.463952    1.220454    1.143189
      3          6           0       -2.002286    1.536131   -0.111600
      4          6           0       -1.154471    2.060976   -1.091141
      5          6           0        0.205970    2.231218   -0.828732
      6          6           0        0.758865    1.891999    0.408953
      7          6           0        2.243260    1.979533    0.687270
      8          6           0        2.912384    0.593607    0.699046
      9          7           0        3.010278    0.026639   -0.650090
     10          6           0        2.712613   -1.418221   -0.714856
     11          6           0        1.255801   -1.735007   -0.450679
     12          6           0        0.796658   -2.246486    0.765506
     13          6           0       -0.567319   -2.337901    1.047351
     14          6           0       -1.516260   -1.906935    0.111419
     15          6           0       -1.062531   -1.453792   -1.138929
     16          6           0        0.294306   -1.364753   -1.402215
     17          7           0       -2.891714   -1.930076    0.376461
     18          7           0       -3.357611    1.239515   -0.388786
     19          1           0        0.289108    1.115700    2.362303
     20          1           0       -2.108380    0.800673    1.911561
     21          1           0       -1.554752    2.320555   -2.068804
     22          1           0        0.847194    2.639604   -1.606937
     23          1           0        2.737645    2.608600   -0.063858
     24          1           0        2.414865    2.455802    1.660801
     25          1           0        3.921638    0.677191    1.126053
     26          1           0        2.329881   -0.053987    1.373101
     27          1           0        2.324430    0.493925   -1.241300
     28          1           0        3.004902   -1.765695   -1.713642
     29          1           0        3.361482   -1.931781    0.003829
     30          1           0        1.516048   -2.560239    1.519046
     31          1           0       -0.898416   -2.710586    2.014594
     32          1           0       -1.789889   -1.139261   -1.881734
     33          1           0        0.620071   -0.972928   -2.364248
     34          1           0       -3.374375   -1.134595   -0.036779
     35          1           0       -3.109793   -2.007028    1.363291
     36          1           0       -3.709928    1.728654   -1.205524
     37          1           0       -3.969291    1.423606    0.400565
 ---------------------------------------------------------------------

 SCF Done:  E(UB3LYP) =  -747.569970066     A.U. after   33 cycles
 SCF Done:  E(UB3LYP) =  -747.569970066     a.u. after    1 cycles

 The electronic state is 2-A.
 Alpha  occ. eigenvalues --  -14.20996 -14.20656 -14.20630 -10.11053 -10.10826
 Alpha  occ. eigenvalues --  -10.10700 -10.10193 -10.08462 -10.07724 -10.07538
 Alpha  occ. eigenvalues --  -10.07507 -10.07472 -10.07249 -10.07173 -10.06905
 Alpha  occ. eigenvalues --  -10.06719 -10.06694 -10.06524  -0.81969  -0.81386
 Alpha  occ. eigenvalues --   -0.81004  -0.74669  -0.74080  -0.68039  -0.64902
 Alpha  occ. eigenvalues --   -0.64604  -0.64452  -0.60738  -0.56298  -0.53027
 Alpha  occ. eigenvalues --   -0.51688  -0.51276  -0.48604  -0.48002  -0.42229
 Alpha  occ. eigenvalues --   -0.41829  -0.40991  -0.40296  -0.38404  -0.37825
 Alpha  occ. eigenvalues --   -0.37188  -0.36209  -0.34601  -0.33692  -0.33273
 Alpha  occ. eigenvalues --   -0.32744  -0.32260  -0.31946  -0.31788  -0.29636
 Alpha  occ. eigenvalues --   -0.28300  -0.28054  -0.27060  -0.26521  -0.26304
 Alpha  occ. eigenvalues --   -0.24666  -0.24139  -0.23974  -0.21232  -0.20128
 Alpha  occ. eigenvalues --   -0.16432  -0.14813  -0.14030  -0.11597  -0.10095
 Alpha  occ. eigenvalues --    0.04220
 Alpha virt. eigenvalues --    0.06402   0.06638   0.07330   0.07679   0.08074
 Alpha virt. eigenvalues --    0.08408   0.08547   0.09286   0.09497   0.09755
 Alpha virt. eigenvalues --    0.10392   0.10733   0.11205   0.11243   0.11955

  Beta  occ. eigenvalues --  -14.20905 -14.20655 -14.20599 -10.11051 -10.10816
  Beta  occ. eigenvalues --  -10.10698 -10.10191 -10.08459 -10.07722 -10.07534
  Beta  occ. eigenvalues --  -10.07506 -10.07466 -10.07249 -10.07168 -10.06894
  Beta  occ. eigenvalues --  -10.06698 -10.06686 -10.06498  -0.81959  -0.81332
  Beta  occ. eigenvalues --   -0.80930  -0.74633  -0.74061  -0.68010  -0.64888
  Beta  occ. eigenvalues --   -0.64576  -0.64424  -0.60693  -0.56277  -0.53003
  Beta  occ. eigenvalues --   -0.51658  -0.51239  -0.48583  -0.47955  -0.42196
  Beta  occ. eigenvalues --   -0.41742  -0.40959  -0.40245  -0.38379  -0.37778
  Beta  occ. eigenvalues --   -0.37164  -0.36179  -0.34570  -0.33649  -0.33246
  Beta  occ. eigenvalues --   -0.32720  -0.32240  -0.31907  -0.31752  -0.29615
  Beta  occ. eigenvalues --   -0.28286  -0.28032  -0.27048  -0.26510  -0.26274
  Beta  occ. eigenvalues --   -0.24640  -0.24128  -0.23946  -0.21199  -0.20089
  Beta  occ. eigenvalues --   -0.16422  -0.14797  -0.14025  -0.11552  -0.10058
  Beta virt. eigenvalues --    0.06293   0.07185   0.07344   0.07553   0.07725
  Beta virt. eigenvalues --    0.08424   0.08827   0.09191   0.09502   0.09514
  Beta virt. eigenvalues --    0.09803   0.10663   0.11098   0.11365   0.11676

 Mulliken charges and spin densities:
               1          2
     1  C   -0.980060   0.633775
     2  C   -0.030471   0.186065
     3  C    2.529476  -2.720528
     4  C   -0.278531  -0.263993
     5  C   -1.053859   0.716016
     6  C    1.208004  -0.434667
     7  C   -0.098403  -0.847100
     8  C    0.103622  -0.164246
     9  N    0.001976   0.013566
    10  C   -0.740799  -0.267690
    11  C    0.813218  -0.125465
    12  C   -0.370983  -0.031205
    13  C   -0.738149   0.663577
    14  C    0.621351  -0.694817
    15  C    0.529163  -0.684073
    16  C   -0.564930   0.347024
    17  N   -0.328935  -0.054082
    18  N   -0.519808   0.185568
    19  H   -0.151603   0.313671
    20  H   -0.618554   0.820171
    21  H   -0.610818   0.774874
    22  H    0.001077   0.147039
    23  H    0.131424   0.031509
    24  H    0.096612   0.050862
    25  H    0.162552   0.001868
    26  H    0.070810  -0.016045
    27  H    0.186849  -0.019705
    28  H    0.157780   0.005065
    29  H    0.126774   0.026330
    30  H    0.068854   0.074370
    31  H   -0.317182   0.480013
    32  H    0.058451   0.136290
    33  H    0.087975   0.076102
    34  H    0.291232  -0.000478
    35  H   -0.046735   0.291380
    36  H   -0.285883   0.547288
    37  H   -0.511495   0.801669
 Sum of Mulliken charges =  -1.00000   1.00000

 Dipole moment (field-independent basis, Debye):
    X=             10.5962    Y=             -2.1528    Z=             -0.8071  Tot=             10.8427
 Quadrupole moment (field-independent basis, Debye-Ang):
   XX=           -189.8081   YY=           -153.2922   ZZ=           -144.3640
   XY=             10.3021   XZ=              5.2730   YZ=              3.6796

 Summary of Natural Population Analysis:

                                       Natural Population
                Natural  -----------------------------------------------
    Atom  No    Charge         Core      Valence    Rydberg      Total
 -----------------------------------------------------------------------
      C    1   -0.08774      0.99951     2.07834    0.00989     3.08774
      C    2   -0.11353      0.99950     2.10104    0.01298     3.11353
      C    3    0.08173      0.99947     1.90402    0.01478     2.91827
      C    4   -0.11951      0.99950     2.10888    0.01112     3.11951
      C    5   -0.09794      0.99951     2.08878    0.00965     3.09794
      C    6   -0.04136      0.99949     2.03047    0.01140     3.04136
      C    7   -0.19885      0.99960     2.19108    0.00818     3.19885
      C    8   -0.08445      0.99962     2.07483    0.00999     3.08445
      N    9   -0.34247      0.99976     2.83070    0.01201     3.84247
      C   10   -0.09112      0.99960     2.08022    0.01131     3.09112
      C   11   -0.05664      0.99950     2.04719    0.00995     3.05664
      C   12   -0.09594      0.99952     2.08661    0.00981     3.09594
      C   13   -0.12473      0.99951     2.11540    0.00981     3.12473
      C   14    0.08827      0.99949     1.90031    0.01193     2.91173
      C   15   -0.11782      0.99952     2.10716    0.01114     3.11782
      C   16   -0.08036      0.99951     2.07427    0.00657     3.08036
      N   17   -0.40119      0.99971     2.89186    0.00961     3.90119
      N   18   -0.40773      0.99972     2.89575    0.01226     3.90773
      H   19    0.09751      0.00000     0.40092    0.00157     0.40249
      H   20    0.10492      0.00000     0.39218    0.00290     0.39508
      H   21    0.10084      0.00000     0.39736    0.00179     0.39916
      H   22    0.09585      0.00000     0.40303    0.00112     0.40415
      H   23    0.09849      0.00000     0.40031    0.00119     0.40151
      H   24    0.10229      0.00000     0.39673    0.00099     0.39771
      H   25    0.08530      0.00000     0.41338    0.00131     0.41470
      H   26    0.08940      0.00000     0.40885    0.00175     0.41060
      H   27    0.17270      0.00000     0.32372    0.00358     0.32730
      H   28    0.09425      0.00000     0.40469    0.00106     0.40575
      H   29    0.09207      0.00000     0.40693    0.00100     0.40793
      H   30    0.09638      0.00000     0.40270    0.00092     0.40362
      H   31    0.09868      0.00000     0.39982    0.00150     0.40132
      H   32    0.10397      0.00000     0.39442    0.00161     0.39603
      H   33    0.09444      0.00000     0.40410    0.00145     0.40556
      H   34    0.19750      0.00000     0.29914    0.00336     0.30250
      H   35    0.18347      0.00000     0.31403    0.00250     0.31653
      H   36    0.18959      0.00000     0.30205    0.00836     0.31041
      H   37    0.19374      0.00000     0.29209    0.01417     0.30626
 =======================================================================
   * Total *    0.00002     17.99207    46.76339    0.24453    64.99998

 Normal termination of Gaussian 16 at Sat Dec 12 01:00:25 2020.
