 Gaussian 16, Revision A.03,

 -----------------------------------------------------------
 # opt freq B3LYP/6-31G(d) empiricaldispersion=gd3bj scf=xqc
 -----------------------------------------------------------

 ------------------------------
 CID_69882036_JID_2613_neutraal
 ------------------------------
 Symbolic Z-matrix:
 Charge =  0 Multiplicity = 1

 SCF Done:  E(RB3LYP) =  -643.843064659     A.U. after   16 cycles
 SCF Done:  E(RB3LYP) =  -643.848293871     A.U. after   14 cycles
 SCF Done:  E(RB3LYP) =  -643.848503572     A.U. after   14 cycles
 SCF Done:  E(RB3LYP) =  -643.850062896     A.U. after   13 cycles
 SCF Done:  E(RB3LYP) =  -643.850916501     A.U. after   13 cycles
 SCF Done:  E(RB3LYP) =  -643.851229741     A.U. after   13 cycles
 SCF Done:  E(RB3LYP) =  -643.851458897     A.U. after   12 cycles
 SCF Done:  E(RB3LYP) =  -643.851564700     A.U. after   12 cycles
 SCF Done:  E(RB3LYP) =  -643.851585566     A.U. after   11 cycles
 SCF Done:  E(RB3LYP) =  -643.851591751     A.U. after   10 cycles
 SCF Done:  E(RB3LYP) =  -643.851593600     A.U. after    9 cycles
 SCF Done:  E(RB3LYP) =  -643.851594741     A.U. after    8 cycles
 SCF Done:  E(RB3LYP) =  -643.851595018     A.U. after    8 cycles
 SCF Done:  E(RB3LYP) =  -643.851595186     A.U. after    8 cycles
 SCF Done:  E(RB3LYP) =  -643.851595224     A.U. after    7 cycles
 SCF Done:  E(RB3LYP) =  -643.851595238     A.U. after    7 cycles
 Optimization completed.
    -- Stationary point found.
 Normal termination of Gaussian 16 at Wed Dec  9 17:54:26 2020.

 --------------------------------------------------------------------
 #N Geom=AllCheck Guess=TCheck SCRF=Check GenChk RB3LYP/6-31G(d) Freq
 --------------------------------------------------------------------

 Structure from the checkpoint file:  "JID_2613.chk"
 ------------------------------
 CID_69882036_JID_2613_neutraal
 ------------------------------
 Charge =  0 Multiplicity = 1

 SCF Done:  E(RB3LYP) =  -643.851595238     A.U. after    1 cycles

  Exact polarizability:  96.517   2.357  84.680  -3.562   6.098  69.559
 Approx polarizability: 138.956   0.569 134.375  -9.331  24.940 111.896

                      1                      2                      3
                      A                      A                      A
 Frequencies --     42.4912                52.2672                67.1712
 Red. masses --      6.0488                 4.6651                 4.3842
 Frc consts  --      0.0064                 0.0075                 0.0117
 IR Inten    --      1.2786                 1.1837                 0.8841

                      4                      5                      6
                      A                      A                      A
 Frequencies --     83.1909               135.4788               172.9090
 Red. masses --      5.3570                 6.4520                 4.5030
 Frc consts  --      0.0218                 0.0698                 0.0793
 IR Inten    --      0.6622                 1.7614                 2.4889

                      7                      8                      9
                      A                      A                      A
 Frequencies --    208.5727               276.0182               311.1324
 Red. masses --      1.2963                 3.5091                 2.2885
 Frc consts  --      0.0332                 0.1575                 0.1305
 IR Inten    --      0.2146                 4.2903                 5.5249

                     10                     11                     12
                      A                      A                      A
 Frequencies --    318.4562               371.5739               405.5370
 Red. masses --      9.3873                 7.5500                 5.6705
 Frc consts  --      0.5609                 0.6142                 0.5495
 IR Inten    --      4.2914                 3.0436                 1.3624

                     13                     14                     15
                      A                      A                      A
 Frequencies --    469.8920               535.1897               568.3894
 Red. masses --      6.5617                 2.6449                 5.3426
 Frc consts  --      0.8536                 0.4464                 1.0169
 IR Inten    --     35.8294                23.2457                 1.4412

                     16                     17                     18
                      A                      A                      A
 Frequencies --    594.0009               623.9878               699.3305
 Red. masses --      3.9726                 1.5348                 5.6801
 Frc consts  --      0.8258                 0.3521                 1.6367
 IR Inten    --     26.2906                63.9512                23.3413

                     19                     20                     21
                      A                      A                      A
 Frequencies --    719.9898               759.2838               800.8558
 Red. masses --      7.8852                 5.1523                 1.3263
 Frc consts  --      2.4083                 1.7501                 0.5012
 IR Inten    --      3.7563                48.0729                 3.2965

                     22                     23                     24
                      A                      A                      A
 Frequencies --    837.4894               869.0219               921.5198
 Red. masses --      3.9561                 3.6871                 3.1114
 Frc consts  --      1.6348                 1.6406                 1.5567
 IR Inten    --     30.2954                15.5973                 3.8194

                     25                     26                     27
                      A                      A                      A
 Frequencies --    957.2468              1027.1642              1073.1178
 Red. masses --      2.5619                 3.0085                 2.0037
 Frc consts  --      1.3831                 1.8702                 1.3595
 IR Inten    --     23.7924                26.8171                34.6906

                     28                     29                     30
                      A                      A                      A
 Frequencies --   1087.8206              1117.1447              1150.6063
 Red. masses --      3.3070                 2.1464                 2.9996
 Frc consts  --      2.3057                 1.5783                 2.3397
 IR Inten    --     49.0058                26.3268                10.7724

                     31                     32                     33
                      A                      A                      A
 Frequencies --   1176.6715              1218.6243              1255.0015
 Red. masses --      2.0857                 2.2382                 1.6162
 Frc consts  --      1.7014                 1.9584                 1.4998
 IR Inten    --    145.6216                14.0785                37.4757

                     34                     35                     36
                      A                      A                      A
 Frequencies --   1322.5524              1351.5800              1372.4140
 Red. masses --      1.3362                 1.7635                 2.3533
 Frc consts  --      1.3771                 1.8981                 2.6116
 IR Inten    --     25.4093                25.6700                47.6417

                     37                     38                     39
                      A                      A                      A
 Frequencies --   1401.2762              1421.3000              1435.6828
 Red. masses --      1.3047                 1.9943                 1.2640
 Frc consts  --      1.5094                 2.3736                 1.5350
 IR Inten    --      8.9017                52.7677                 8.2478

                     40                     41                     42
                      A                      A                      A
 Frequencies --   1497.3353              1512.2694              1518.1313
 Red. masses --      1.2784                 1.1605                 1.0411
 Frc consts  --      1.6887                 1.5636                 1.4137
 IR Inten    --     11.6921                 4.0067                 9.3815

                     43                     44                     45
                      A                      A                      A
 Frequencies --   1531.6815              1816.3291              1856.7224
 Red. masses --      1.0582                12.0474                11.2254
 Frc consts  --      1.4627                23.4170                22.8006
 IR Inten    --      6.7165               258.7474               315.8074

                     46                     47                     48
                      A                      A                      A
 Frequencies --   1883.9468              3066.7435              3067.9104
 Red. masses --     11.8427                 1.0360                 1.0664
 Frc consts  --     24.7649                 5.7406                 5.9135
 IR Inten    --    269.4440                17.4266                33.9566

                     49                     50                     51
                      A                      A                      A
 Frequencies --   3133.2552              3138.7517              3148.5834
 Red. masses --      1.0985                 1.1022                 1.0873
 Frc consts  --      6.3540                 6.3978                 6.3505
 IR Inten    --      0.1978                28.2050                 1.0112

                     52                     53                     54
                      A                      A                      A
 Frequencies --   3157.5903              3441.9752              3688.0884
 Red. masses --      1.1033                 1.0765                 1.0642
 Frc consts  --      6.4812                 7.5144                 8.5286
 IR Inten    --     15.5079                 1.0110                70.6828

 - Thermochemistry -
 -------------------
 Temperature   298.150 Kelvin.  Pressure   1.00000 Atm.
 Atom     1 has atomic number  6 and mass  12.00000

 Molecular mass:   172.04841 amu.
 Principal axes and moments of inertia in atomic units:
                           1         2         3
     Eigenvalues --  1382.728132123.893632839.85164
           X            0.99755   0.06991  -0.00387
           Y           -0.06999   0.99716  -0.02792
           Z            0.00191   0.02812   0.99960
 This molecule is an asymmetric top.
 Rotational symmetry number  1.
 Warning -- assumption of classical behavior for rotation
           may cause significant error
 Rotational temperatures (Kelvin)      0.06264     0.04078     0.03050
 Rotational constants (GHZ):           1.30520     0.84973     0.63551
 Zero-point vibrational energy     398782.7 (Joules/Mol)
                                   95.31136 (Kcal/Mol)
 Warning -- explicit consideration of  16 degrees of freedom as
           vibrations may cause significant error
 Vibrational temperatures:     61.14    75.20    96.64   119.69   194.92
          (Kelvin)            248.78   300.09   397.13   447.65   458.19
                              534.61   583.48   676.07   770.02   817.79
                              854.63   897.78  1006.18  1035.90  1092.44
                             1152.25  1204.96  1250.33  1325.86  1377.26
                             1477.86  1543.98  1565.13  1607.32  1655.47
                             1692.97  1753.33  1805.67  1902.86  1944.62
                             1974.60  2016.12  2044.93  2065.63  2154.33
                             2175.82  2184.25  2203.75  2613.29  2671.41
                             2710.58  4412.36  4414.04  4508.06  4515.96
                             4530.11  4543.07  4952.23  5306.34

 Zero-point correction=                           0.151888 (Hartree/Particle)
 Thermal correction to Energy=                    0.163479
 Thermal correction to Enthalpy=                  0.164423
 Thermal correction to Gibbs Free Energy=         0.112990
 Sum of electronic and zero-point Energies=           -643.699707
 Sum of electronic and thermal Energies=              -643.688116
 Sum of electronic and thermal Enthalpies=            -643.687172
 Sum of electronic and thermal Free Energies=         -643.738605

                     E (Thermal)             CV                S
                      KCal/Mol        Cal/Mol-Kelvin    Cal/Mol-Kelvin
 Total                  102.585             41.163            108.250
 Electronic               0.000              0.000              0.000
 Translational            0.889              2.981             41.335
 Rotational               0.889              2.981             30.501
 Vibrational            100.807             35.202             36.413
 Vibration     1          0.595              1.980              5.139
 Vibration     2          0.596              1.977              4.730
 Vibration     3          0.598              1.970              4.235
 Vibration     4          0.600              1.961              3.814
 Vibration     5          0.613              1.918              2.867
 Vibration     6          0.626              1.876              2.404
 Vibration     7          0.642              1.828              2.056
 Vibration     8          0.678              1.718              1.558
 Vibration     9          0.700              1.652              1.356
 Vibration    10          0.705              1.638              1.318
 Vibration    11          0.743              1.531              1.073
 Vibration    12          0.771              1.458              0.943
 Vibration    13          0.827              1.317              0.738
 Vibration    14          0.890              1.172              0.576
 Vibration    15          0.924              1.100              0.507
 Vibration    16          0.952              1.045              0.460

 Optimization completed.
    -- Stationary point found.
 Normal termination of Gaussian 16 at Wed Dec  9 18:00:06 2020.

 ----------------------------------------------------------------------
 # B3LYP/6-311++G(d,p) empiricaldispersion=gd3bj scf=xqc pop=npa geom=c
 heck
 ----------------------------------------------------------------------

 --------------------------------------
 CID_69882036_JID_2613_Energie_neutraal
 --------------------------------------
 Structure from the checkpoint file:  "JID_2613.chk"
 Charge =  0 Multiplicity = 1

 SCF Done:  E(RB3LYP) =  -644.053658034     A.U. after   15 cycles
 Normal termination of Gaussian 16 at Wed Dec  9 18:03:19 2020.

 ----------------------------------------------------------------------
 # B3LYP/6-311++G(d,p) empiricaldispersion=gd3bj scf=xqc pop=npa geom=c
 heck
 ----------------------------------------------------------------------

 ------------------------------------
 CID_69882036_JID_2613_Energie_kation
 ------------------------------------
 Structure from the checkpoint file:  "JID_2613.chk"
 Charge =  1 Multiplicity = 2

 SCF Done:  E(UB3LYP) =  -643.726510042     A.U. after   25 cycles
 Normal termination of Gaussian 16 at Wed Dec  9 18:10:02 2020.
 Gaussian 16:  ES64L-G16RevA.03 25-Dec-2016

 ----------------------------------------------------------------------
 # B3LYP/6-311++G(d,p) empiricaldispersion=gd3bj scf=xqc pop=npa geom=c
 heck
 ----------------------------------------------------------------------

 -----------------------------------
 CID_69882036_JID_2613_Energie_anion
 -----------------------------------
 Structure from the checkpoint file:  "JID_2613.chk"
 Charge = -1 Multiplicity = 2

                         Standard orientation:
 ---------------------------------------------------------------------
 Center     Atomic      Atomic             Coordinates (Angstroms)
 Number     Number       Type             X           Y           Z
 ---------------------------------------------------------------------
      1          6           0       -2.258281   -1.776151    0.599209
      2          6           0       -2.457441   -0.633164   -0.395573
      3          7           0       -1.231378    0.115211   -0.627666
      4          6           0       -0.873354    1.213591    0.096794
      5          8           0       -1.587540    1.898546    0.807209
      6          6           0        0.638246    1.373469   -0.116573
      7          8           0        1.327116    2.276494    0.279074
      8          6           0        1.092979    0.098712   -0.846347
      9          7           0       -0.153292   -0.575744   -1.274263
     10          6           0        1.877720   -0.796063    0.108050
     11          8           0        3.019749   -1.146881   -0.052353
     12          8           0        1.122594   -1.127366    1.178481
     13          1           0       -1.477772   -2.456051    0.248053
     14          1           0       -3.191005   -2.337710    0.717458
     15          1           0       -1.960418   -1.382021    1.575167
     16          1           0       -2.819651   -1.007333   -1.359883
     17          1           0       -3.176904    0.100281   -0.022973
     18          1           0        1.741319    0.326542   -1.692932
     19          1           0       -0.271402   -0.415856   -2.275757
     20          1           0        1.673963   -1.692824    1.751724
 ---------------------------------------------------------------------

 SCF Done:  E(UB3LYP) =  -644.080233554     A.U. after   26 cycles

 The electronic state is 2-A.
 Alpha  occ. eigenvalues --  -19.05252 -18.99658 -18.91930 -18.91382 -14.21905
 Alpha  occ. eigenvalues --  -14.20701 -10.17848 -10.08707 -10.08161 -10.07840
 Alpha  occ. eigenvalues --  -10.04789 -10.04363  -0.99244  -0.90553  -0.89470
 Alpha  occ. eigenvalues --   -0.85519  -0.84382  -0.71236  -0.62584  -0.60614
 Alpha  occ. eigenvalues --   -0.53740  -0.49651  -0.44076  -0.41957  -0.38364
 Alpha  occ. eigenvalues --   -0.36695  -0.35698  -0.34304  -0.33457  -0.31248
 Alpha  occ. eigenvalues --   -0.28915  -0.28720  -0.27958  -0.26473  -0.25695
 Alpha  occ. eigenvalues --   -0.25068  -0.23822  -0.23351  -0.21155  -0.20007
 Alpha  occ. eigenvalues --   -0.18135  -0.15999  -0.12412  -0.09030  -0.05781
 Alpha  occ. eigenvalues --    0.04411
 Alpha virt. eigenvalues --    0.07936   0.08962   0.09339   0.11263   0.11906
 Alpha virt. eigenvalues --    0.12088   0.13231   0.14186   0.14695   0.16023
 Alpha virt. eigenvalues --    0.17231   0.17559   0.18746   0.19285   0.19632

  Beta  occ. eigenvalues --  -19.05232 -18.99654 -18.91660 -18.90587 -14.21903
  Beta  occ. eigenvalues --  -14.20528 -10.17751 -10.08560 -10.08166 -10.07891
  Beta  occ. eigenvalues --  -10.04338 -10.04323  -0.99188  -0.90517  -0.89045
  Beta  occ. eigenvalues --   -0.84322  -0.83879  -0.71060  -0.62456  -0.60182
  Beta  occ. eigenvalues --   -0.53377  -0.49508  -0.43437  -0.41683  -0.38157
  Beta  occ. eigenvalues --   -0.36585  -0.35392  -0.33944  -0.33236  -0.31021
  Beta  occ. eigenvalues --   -0.28650  -0.28478  -0.27641  -0.26217  -0.25343
  Beta  occ. eigenvalues --   -0.24099  -0.23269  -0.22686  -0.21048  -0.17949
  Beta  occ. eigenvalues --   -0.17372  -0.14738  -0.11911  -0.08032  -0.05181
  Beta virt. eigenvalues --    0.07809   0.08902   0.09293   0.11177   0.11844
  Beta virt. eigenvalues --    0.12095   0.13055   0.13302   0.14148   0.14657
  Beta virt. eigenvalues --    0.15966   0.17218   0.17468   0.18697   0.19281

 Mulliken charges and spin densities:
               1          2
     1  C   -0.267456  -0.133968
     2  C   -0.255607   0.023637
     3  N    0.197306   0.058278
     4  C   -0.186497   0.125154
     5  O   -0.439718   0.099147
     6  C    0.245154   0.296862
     7  O   -0.432725   0.283782
     8  C   -0.519795   0.008278
     9  N   -0.197761  -0.029568
    10  C    0.133534   0.023137
    11  O   -0.309577   0.004466
    12  O   -0.188610   0.020985
    13  H    0.149761   0.006893
    14  H    0.003183   0.099937
    15  H    0.130355   0.023829
    16  H    0.030600   0.052295
    17  H    0.171491  -0.011113
    18  H    0.218945   0.022849
    19  H    0.249159   0.015235
    20  H    0.268260   0.009885
 Sum of Mulliken charges =  -1.00000   1.00000

 Dipole moment (field-independent basis, Debye):
    X=             -1.7922    Y=             -6.8025    Z=             -2.3441  Tot=              7.4149
 Quadrupole moment (field-independent basis, Debye-Ang):
   XX=            -98.7922   YY=            -99.9867   ZZ=            -71.4330
   XY=              0.3957   XZ=              5.0178   YZ=             -8.6471

 Summary of Natural Population Analysis:

                                       Natural Population
                Natural  -----------------------------------------------
    Atom  No    Charge         Core      Valence    Rydberg      Total
 -----------------------------------------------------------------------
      C    1   -0.29137      0.99967     2.28725    0.00445     3.29137
      C    2   -0.08543      0.99964     2.07534    0.01046     3.08543
      N    3   -0.15597      0.99963     2.64326    0.01308     3.65597
      C    4    0.32069      0.99959     1.65470    0.02502     2.67931
      O    5   -0.30162      0.99987     3.29517    0.00658     4.30162
      C    6    0.29283      0.99965     1.68289    0.02463     2.70717
      O    7   -0.19372      0.99987     3.18637    0.00749     4.19372
      C    8   -0.10168      0.99953     2.08860    0.01355     3.10168
      N    9   -0.23866      0.99974     2.72761    0.01131     3.73866
      C   10    0.42337      0.99971     1.54999    0.02693     2.57663
      O   11   -0.31773      0.99986     3.31112    0.00675     4.31773
      O   12   -0.33975      0.99987     3.33301    0.00687     4.33975
      H   13    0.10206      0.00000     0.39614    0.00180     0.39794
      H   14    0.08731      0.00000     0.41064    0.00205     0.41269
      H   15    0.10313      0.00000     0.39545    0.00142     0.39687
      H   16    0.08333      0.00000     0.41515    0.00152     0.41667
      H   17    0.10690      0.00000     0.39096    0.00214     0.39310
      H   18    0.10901      0.00000     0.38949    0.00151     0.39099
      H   19    0.16692      0.00000     0.33064    0.00243     0.33308
      H   20    0.23037      0.00000     0.26485    0.00478     0.26963
 =======================================================================
   * Total *    0.00000     11.99663    32.82862    0.17475    45.00000

 Normal termination of Gaussian 16 at Wed Dec  9 18:16:37 2020.
