 Gaussian 16, Revision A.03,

 -----------------------------------------------------------
 # opt freq B3LYP/6-31G(d) empiricaldispersion=gd3bj scf=xqc
 -----------------------------------------------------------

 ------------------------------
 CID_79444757_JID_5133_neutraal
 ------------------------------
 Symbolic Z-matrix:
 Charge =  0 Multiplicity = 1

 SCF Done:  E(RB3LYP) =  -641.666240345     A.U. after   14 cycles
 SCF Done:  E(RB3LYP) =  -641.671738748     A.U. after   13 cycles
 SCF Done:  E(RB3LYP) =  -641.669862435     A.U. after   12 cycles
 SCF Done:  E(RB3LYP) =  -641.670475723     A.U. after   13 cycles
 SCF Done:  E(RB3LYP) =  -641.672604362     A.U. after   10 cycles
 SCF Done:  E(RB3LYP) =  -641.671403007     A.U. after   12 cycles
 SCF Done:  E(RB3LYP) =  -641.672116828     A.U. after   12 cycles
 SCF Done:  E(RB3LYP) =  -641.673022286     A.U. after    9 cycles
 SCF Done:  E(RB3LYP) =  -641.672812886     A.U. after   11 cycles
 SCF Done:  E(RB3LYP) =  -641.673156771     A.U. after   12 cycles
 SCF Done:  E(RB3LYP) =  -641.673341972     A.U. after   10 cycles
 SCF Done:  E(RB3LYP) =  -641.673344366     A.U. after    8 cycles
 SCF Done:  E(RB3LYP) =  -641.673345209     A.U. after    8 cycles
 SCF Done:  E(RB3LYP) =  -641.673345150     A.U. after    8 cycles
 SCF Done:  E(RB3LYP) =  -641.673345698     A.U. after    8 cycles
 Optimization completed.
    -- Stationary point found.
 Normal termination of Gaussian 16 at Thu Dec 10 14:58:23 2020.

 --------------------------------------------------------------------
 #N Geom=AllCheck Guess=TCheck SCRF=Check GenChk RB3LYP/6-31G(d) Freq
 --------------------------------------------------------------------

 Structure from the checkpoint file:  "JID_5133.chk"
 ------------------------------
 CID_79444757_JID_5133_neutraal
 ------------------------------
 Charge =  0 Multiplicity = 1

 SCF Done:  E(RB3LYP) =  -641.673345698     A.U. after    1 cycles

  Exact polarizability: 168.454   0.685 141.479   1.770  -1.964 127.067
 Approx polarizability: 205.939   2.465 194.994   5.389  -4.978 204.816

                      1                      2                      3
                      A                      A                      A
 Frequencies --     47.2939                63.8485                65.7447
 Red. masses --      3.3851                 3.1328                 3.1736
 Frc consts  --      0.0045                 0.0075                 0.0081
 IR Inten    --      1.0110                 0.3202                 0.0898

                      4                      5                      6
                      A                      A                      A
 Frequencies --     95.5210               102.8751               137.4320
 Red. masses --      2.4422                 1.8808                 3.0387
 Frc consts  --      0.0131                 0.0117                 0.0338
 IR Inten    --      0.5556                 0.0629                 4.6961

                      7                      8                      9
                      A                      A                      A
 Frequencies --    147.6110               150.0066               175.2552
 Red. masses --      2.0183                 3.2052                 2.0441
 Frc consts  --      0.0259                 0.0425                 0.0370
 IR Inten    --      0.5361                 0.3725                 0.7420

                     10                     11                     12
                      A                      A                      A
 Frequencies --    182.4982               197.0850               197.7887
 Red. masses --      1.8036                 1.2497                 1.9443
 Frc consts  --      0.0354                 0.0286                 0.0448
 IR Inten    --      0.4198                 0.2461                 0.4673

                     13                     14                     15
                      A                      A                      A
 Frequencies --    225.9920               242.3852               250.8490
 Red. masses --      1.1859                 1.7912                 2.0385
 Frc consts  --      0.0357                 0.0620                 0.0756
 IR Inten    --      0.1696                 0.7695                 0.3217

                     16                     17                     18
                      A                      A                      A
 Frequencies --    263.8709               279.7542               294.6530
 Red. masses --      1.8094                 2.0222                 1.2434
 Frc consts  --      0.0742                 0.0932                 0.0636
 IR Inten    --      0.3385                 0.3222                 0.0533

                     19                     20                     21
                      A                      A                      A
 Frequencies --    298.2149               313.7204               320.8015
 Red. masses --      2.3075                 1.6901                 1.4525
 Frc consts  --      0.1209                 0.0980                 0.0881
 IR Inten    --      0.3392                 0.1509                 0.4963

                     22                     23                     24
                      A                      A                      A
 Frequencies --    337.0598               361.0832               382.9405
 Red. masses --      2.5183                 2.8059                 2.3910
 Frc consts  --      0.1686                 0.2155                 0.2066
 IR Inten    --      0.7913                 3.3175                 0.3558

                     25                     26                     27
                      A                      A                      A
 Frequencies --    408.1042               444.2520               486.6612
 Red. masses --      2.4598                 2.3119                 3.4543
 Frc consts  --      0.2414                 0.2688                 0.4820
 IR Inten    --      2.2140                 0.2617                 4.8904

                     28                     29                     30
                      A                      A                      A
 Frequencies --    522.8705               547.9489               603.3534
 Red. masses --      3.1888                 2.8240                 4.0993
 Frc consts  --      0.5136                 0.4996                 0.8792
 IR Inten    --      5.6357                 4.1239                 7.5417

                     31                     32                     33
                      A                      A                      A
 Frequencies --    622.4797               726.9466               749.9044
 Red. masses --      2.9815                 1.7912                 3.8737
 Frc consts  --      0.6807                 0.5577                 1.2835
 IR Inten    --      4.6582                 1.4666                 2.0953

                     34                     35                     36
                      A                      A                      A
 Frequencies --    781.2617               796.6350               801.6839
 Red. masses --      1.1807                 1.1932                 1.2643
 Frc consts  --      0.4246                 0.4462                 0.4788
 IR Inten    --      2.1319                 9.8838                 2.1826

                     37                     38                     39
                      A                      A                      A
 Frequencies --    838.5014               869.0044               888.2245
 Red. masses --      1.4458                 2.0501                 1.9710
 Frc consts  --      0.5989                 0.9121                 0.9162
 IR Inten    --      9.6959                 1.3511                 2.6319

                     40                     41                     42
                      A                      A                      A
 Frequencies --    929.2280               948.9980               967.5352
 Red. masses --      2.0560                 2.1176                 1.7006
 Frc consts  --      1.0460                 1.1237                 0.9380
 IR Inten    --      2.1106                 0.6220                36.4228

                     43                     44                     45
                      A                      A                      A
 Frequencies --    996.2604               999.7774              1016.0698
 Red. masses --      1.2889                 1.8242                 1.4880
 Frc consts  --      0.7537                 1.0743                 0.9051
 IR Inten    --     23.8636                29.8583                 4.0030

                     46                     47                     48
                      A                      A                      A
 Frequencies --   1040.9284              1054.8434              1070.7022
 Red. masses --      3.3826                 2.9706                 2.2645
 Frc consts  --      2.1595                 1.9475                 1.5296
 IR Inten    --     23.4483                 8.0006                24.5744

                     49                     50                     51
                      A                      A                      A
 Frequencies --   1074.9068              1083.7756              1116.2492
 Red. masses --      1.4497                 2.0543                 1.7513
 Frc consts  --      0.9869                 1.4216                 1.2857
 IR Inten    --      0.4117                 3.6643                19.4256

                     52                     53                     54
                      A                      A                      A
 Frequencies --   1127.4644              1136.8299              1152.8771
 Red. masses --      2.1560                 1.6357                 2.7505
 Frc consts  --      1.6148                 1.2455                 2.1539
 IR Inten    --      4.9338                11.1010                 7.6049

                     55                     56                     57
                      A                      A                      A
 Frequencies --   1170.1109              1198.9377              1202.7023
 Red. masses --      2.1177                 2.2757                 2.1055
 Frc consts  --      1.7083                 1.9274                 1.7944
 IR Inten    --     13.5914                12.3941                 5.1114

                     58                     59                     60
                      A                      A                      A
 Frequencies --   1235.9460              1265.8995              1277.1680
 Red. masses --      2.6591                 2.1109                 2.5304
 Frc consts  --      2.3932                 1.9930                 2.4318
 IR Inten    --     31.1099                43.2161                43.1571

                     61                     62                     63
                      A                      A                      A
 Frequencies --   1315.0607              1333.7890              1343.0414
 Red. masses --      1.2502                 1.2358                 1.2036
 Frc consts  --      1.2738                 1.2953                 1.2792
 IR Inten    --      0.2783                16.3131                 2.4256

                     64                     65                     66
                      A                      A                      A
 Frequencies --   1366.4097              1379.6153              1382.4789
 Red. masses --      1.3976                 1.2831                 1.3946
 Frc consts  --      1.5374                 1.4389                 1.5704
 IR Inten    --     17.2686                 1.3026                 6.2270

                     67                     68                     69
                      A                      A                      A
 Frequencies --   1398.5765              1401.7520              1420.1032
 Red. masses --      1.2148                 1.3966                 1.3041
 Frc consts  --      1.4000                 1.6169                 1.5495
 IR Inten    --     14.0448                 0.0637                 5.6130

                     70                     71                     72
                      A                      A                      A
 Frequencies --   1426.4935              1433.6034              1435.6372
 Red. masses --      1.2638                 1.2445                 1.2565
 Frc consts  --      1.5152                 1.5069                 1.5259
 IR Inten    --      9.6396                 5.7250                 7.4984

                     73                     74                     75
                      A                      A                      A
 Frequencies --   1436.1056              1440.2069              1442.6994
 Red. masses --      1.2937                 1.2268                 1.2142
 Frc consts  --      1.5721                 1.4992                 1.4889
 IR Inten    --     17.4907                12.5197                 2.5833

                     76                     77                     78
                      A                      A                      A
 Frequencies --   1449.2585              1506.8041              1508.3727
 Red. masses --      1.2263                 1.0647                 1.0648
 Frc consts  --      1.5176                 1.4243                 1.4274
 IR Inten    --     15.2264                 1.0464                 0.2832

                     79                     80                     81
                      A                      A                      A
 Frequencies --   1516.3626              1516.9936              1522.7898
 Red. masses --      1.0506                 1.0588                 1.0525
 Frc consts  --      1.4233                 1.4356                 1.4380
 IR Inten    --      2.5573                 1.0647                 2.1812

                     82                     83                     84
                      A                      A                      A
 Frequencies --   1523.8624              1525.0624              1527.3487
 Red. masses --      1.0449                 1.0472                 1.0510
 Frc consts  --      1.4297                 1.4350                 1.4445
 IR Inten    --      5.8777                 0.4534                 8.0127

                     85                     86                     87
                      A                      A                      A
 Frequencies --   1530.5593              1534.4791              1537.8855
 Red. masses --      1.0470                 1.0446                 1.0665
 Frc consts  --      1.4451                 1.4492                 1.4861
 IR Inten    --      7.5440                 1.0455                14.4474

                     88                     89                     90
                      A                      A                      A
 Frequencies --   1540.5879              1542.4863              1544.2115
 Red. masses --      1.0525                 1.0636                 1.0755
 Frc consts  --      1.4719                 1.4910                 1.5111
 IR Inten    --      2.0822                 0.9087                 1.5761

                     91                     92                     93
                      A                      A                      A
 Frequencies --   1545.8973              1548.0809              1784.4546
 Red. masses --      1.0558                 1.0541                11.4707
 Frc consts  --      1.4866                 1.4885                21.5204
 IR Inten    --      0.6014                 8.9394               108.3650

                     94                     95                     96
                      A                      A                      A
 Frequencies --   3007.9271              3040.5037              3046.9388
 Red. masses --      1.0748                 1.0613                 1.0370
 Frc consts  --      5.7295                 5.7807                 5.6723
 IR Inten    --     48.7385                42.0986                22.0119

                     97                     98                     99
                      A                      A                      A
 Frequencies --   3048.4948              3049.2783              3049.7721
 Red. masses --      1.0624                 1.0409                 1.0376
 Frc consts  --      5.8172                 5.7024                 5.6859
 IR Inten    --     31.0619                29.8567                17.0017

                    100                    101                    102
                      A                      A                      A
 Frequencies --   3054.1333              3062.1711              3062.3729
 Red. masses --      1.0809                 1.0371                 1.0379
 Frc consts  --      5.9401                 5.7296                 5.7351
 IR Inten    --     20.3229                 7.6941                29.6723

                    103                    104                    105
                      A                      A                      A
 Frequencies --   3072.9252              3073.7550              3087.4665
 Red. masses --      1.0493                 1.0888                 1.0736
 Frc consts  --      5.8378                 6.0609                 6.0298
 IR Inten    --      5.3876                31.9263                 8.2533

                    106                    107                    108
                      A                      A                      A
 Frequencies --   3088.7036              3107.1883              3111.0072
 Red. masses --      1.0885                 1.0981                 1.0974
 Frc consts  --      6.1183                 6.2462                 6.2577
 IR Inten    --     27.2865                26.1569                63.6232

                    109                    110                    111
                      A                      A                      A
 Frequencies --   3115.4949              3116.6366              3118.8279
 Red. masses --      1.0992                 1.1012                 1.0949
 Frc consts  --      6.2862                 6.3022                 6.2746
 IR Inten    --      5.0363                31.7699                39.1518

                    112                    113                    114
                      A                      A                      A
 Frequencies --   3120.3938              3126.9554              3127.7386
 Red. masses --      1.1024                 1.1017                 1.1010
 Frc consts  --      6.3244                 6.3469                 6.3458
 IR Inten    --     39.7632                35.5817                25.6022

                    115                    116                    117
                      A                      A                      A
 Frequencies --   3134.0351              3142.6901              3145.0894
 Red. masses --      1.0983                 1.1016                 1.1000
 Frc consts  --      6.3558                 6.4104                 6.4107
 IR Inten    --     57.7345                53.1610                27.2619

                    118                    119                    120
                      A                      A                      A
 Frequencies --   3146.9027              3149.7580              3150.7188
 Red. masses --      1.1011                 1.1003                 1.1000
 Frc consts  --      6.4248                 6.4318                 6.4337
 IR Inten    --     25.4751                11.9266                35.6580

 - Thermochemistry -
 -------------------
 Temperature   298.150 Kelvin.  Pressure   1.00000 Atm.
 Atom     1 has atomic number  6 and mass  12.00000

 Molecular mass:   213.20926 amu.
 Principal axes and moments of inertia in atomic units:
                           1         2         3
     Eigenvalues --  1997.376384633.572065264.67662
           X            1.00000  -0.00157   0.00152
           Y            0.00154   0.99983   0.01821
           Z           -0.00154  -0.01821   0.99983
 This molecule is an asymmetric top.
 Rotational symmetry number  1.
 Warning -- assumption of classical behavior for rotation
           may cause significant error
 Rotational temperatures (Kelvin)      0.04336     0.01869     0.01645
 Rotational constants (GHZ):           0.90356     0.38949     0.34280
 Zero-point vibrational energy    1019866.0 (Joules/Mol)
                                  243.75382 (Kcal/Mol)
 Warning -- explicit consideration of  30 degrees of freedom as
           vibrations may cause significant error
 Vibrational temperatures:     68.05    91.86    94.59   137.43   148.01
          (Kelvin)            197.73   212.38   215.83   252.15   262.57
                              283.56   284.57   325.15   348.74   360.92
                              379.65   402.50   423.94   429.06   451.37
                              461.56   484.95   519.52   550.97   587.17
                              639.18   700.20   752.29   788.38   868.09
                              895.61  1045.91  1078.95  1124.06  1146.18
                             1153.44  1206.42  1250.30  1277.96  1336.95
                             1365.40  1392.07  1433.40  1438.46  1461.90
                             1497.66  1517.68  1540.50  1546.55  1559.31
                             1606.03  1622.17  1635.64  1658.73  1683.53
                             1725.00  1730.42  1778.25  1821.35  1837.56
                             1892.08  1919.02  1932.34  1965.96  1984.96
                             1989.08  2012.24  2016.81  2043.21  2052.41
                             2062.64  2065.56  2066.24  2072.14  2075.72
                             2085.16  2167.96  2170.21  2181.71  2182.62
                             2190.95  2192.50  2194.22  2197.51  2202.13
                             2207.77  2212.67  2216.56  2219.29  2221.78
                             2224.20  2227.34  2567.43  4327.74  4374.61
                             4383.87  4386.10  4387.23  4387.94  4394.22
                             4405.78  4406.07  4421.25  4422.45  4442.18
                             4443.96  4470.55  4476.05  4482.50  4484.14
                             4487.30  4489.55  4498.99  4500.12  4509.18
                             4521.63  4525.08  4527.69  4531.80  4533.18

 Zero-point correction=                           0.388446 (Hartree/Particle)
 Thermal correction to Energy=                    0.407481
 Thermal correction to Enthalpy=                  0.408426
 Thermal correction to Gibbs Free Energy=         0.343147
 Sum of electronic and zero-point Energies=           -641.284899
 Sum of electronic and thermal Energies=              -641.265864
 Sum of electronic and thermal Enthalpies=            -641.264920
 Sum of electronic and thermal Free Energies=         -641.330199

                     E (Thermal)             CV                S
                      KCal/Mol        Cal/Mol-Kelvin    Cal/Mol-Kelvin
 Total                  255.699             71.590            137.390
 Electronic               0.000              0.000              0.000
 Translational            0.889              2.981             41.975
 Rotational               0.889              2.981             32.255
 Vibrational            253.921             65.629             63.161
 Vibration     1          0.595              1.979              4.927
 Vibration     2          0.597              1.972              4.335
 Vibration     3          0.597              1.971              4.277
 Vibration     4          0.603              1.952              3.544
 Vibration     5          0.605              1.947              3.399
 Vibration     6          0.614              1.916              2.839
 Vibration     7          0.617              1.905              2.703
 Vibration     8          0.618              1.903              2.672
 Vibration     9          0.627              1.873              2.378
 Vibration    10          0.630              1.864              2.303
 Vibration    11          0.636              1.844              2.160
 Vibration    12          0.637              1.843              2.154
 Vibration    13          0.650              1.801              1.911
 Vibration    14          0.659              1.775              1.785
 Vibration    15          0.663              1.761              1.725
 Vibration    16          0.670              1.739              1.636
 Vibration    17          0.680              1.711              1.535
 Vibration    18          0.689              1.684              1.447
 Vibration    19          0.691              1.677              1.427
 Vibration    20          0.702              1.647              1.343
 Vibration    21          0.706              1.634              1.306
 Vibration    22          0.718              1.601              1.226
 Vibration    23          0.735              1.552              1.117
 Vibration    24          0.752              1.507              1.028
 Vibration    25          0.773              1.453              0.933
 Vibration    26          0.804              1.374              0.813
 Vibration    27          0.843              1.280              0.692
 Vibration    28          0.878              1.199              0.603
 Vibration    29          0.903              1.144              0.548
 Vibration    30          0.962              1.025              0.444

 Optimization completed.
    -- Stationary point found.
 Normal termination of Gaussian 16 at Thu Dec 10 15:14:10 2020.

 ----------------------------------------------------------------------
 # B3LYP/6-311++G(d,p) empiricaldispersion=gd3bj scf=xqc pop=npa geom=c
 heck
 ----------------------------------------------------------------------

 --------------------------------------
 CID_79444757_JID_5133_Energie_neutraal
 --------------------------------------
 Structure from the checkpoint file:  "JID_5133.chk"
 Charge =  0 Multiplicity = 1

 SCF Done:  E(RB3LYP) =  -641.854699206     A.U. after   15 cycles
 Normal termination of Gaussian 16 at Thu Dec 10 15:22:03 2020.

 ----------------------------------------------------------------------
 # B3LYP/6-311++G(d,p) empiricaldispersion=gd3bj scf=xqc pop=npa geom=c
 heck
 ----------------------------------------------------------------------

 ------------------------------------
 CID_79444757_JID_5133_Energie_kation
 ------------------------------------
 Structure from the checkpoint file:  "JID_5133.chk"
 Charge =  1 Multiplicity = 2

 SCF Done:  E(UB3LYP) =  -641.591784086     A.U. after   24 cycles
 Normal termination of Gaussian 16 at Thu Dec 10 15:37:43 2020.
 Gaussian 16:  ES64L-G16RevA.03 25-Dec-2016

 ----------------------------------------------------------------------
 # B3LYP/6-311++G(d,p) empiricaldispersion=gd3bj scf=xqc pop=npa geom=c
 heck
 ----------------------------------------------------------------------

 -----------------------------------
 CID_79444757_JID_5133_Energie_anion
 -----------------------------------
 Structure from the checkpoint file:  "JID_5133.chk"
 Charge = -1 Multiplicity = 2

                         Standard orientation:
 ---------------------------------------------------------------------
 Center     Atomic      Atomic             Coordinates (Angstroms)
 Number     Number       Type             X           Y           Z
 ---------------------------------------------------------------------
      1          6           0       -4.480126    0.227120   -0.569364
      2          6           0       -2.975056    0.499875   -0.473661
      3          6           0       -2.231454   -0.555454    0.369310
      4          6           0       -2.300062   -1.972326   -0.237482
      5          6           0       -0.791009   -0.199142    0.794590
      6          8           0       -0.535002   -0.256446    1.982812
      7          6           0        0.325996    0.249509   -0.210064
      8          6           0        0.193606   -0.429880   -1.593784
      9          6           0        0.112899    1.782622   -0.390294
     10          6           0       -0.016614    2.593525    0.903578
     11          7           0        1.625778   -0.026122    0.393741
     12          6           0        1.918878   -1.388108    0.818505
     13          6           0        2.842419   -2.222551   -0.084834
     14          6           0        2.774194    0.841133    0.204635
     15          6           0        3.409748    0.914996   -1.198324
     16          1           0       -4.692443   -0.701599   -1.109061
     17          1           0       -4.988360    1.040006   -1.099240
     18          1           0       -4.928627    0.145169    0.427910
     19          1           0       -2.557757    0.554782   -1.485391
     20          1           0       -2.825588    1.486863   -0.018996
     21          1           0       -2.740488   -0.602668    1.339351
     22          1           0       -1.975530   -1.995116   -1.280917
     23          1           0       -1.676272   -2.670639    0.331259
     24          1           0       -3.326996   -2.348061   -0.198784
     25          1           0       -0.769348   -0.236411   -2.073617
     26          1           0        0.977402   -0.049025   -2.253904
     27          1           0        0.322443   -1.512459   -1.515461
     28          1           0        0.943193    2.165204   -0.991425
     29          1           0       -0.779721    1.928913   -1.004558
     30          1           0        0.754344    2.318085    1.627387
     31          1           0        0.066179    3.664730    0.690258
     32          1           0       -0.981398    2.423200    1.391350
     33          1           0        2.359331   -1.354178    1.826622
     34          1           0        0.972360   -1.919761    0.935094
     35          1           0        3.850008   -1.797572   -0.137412
     36          1           0        2.937410   -3.237733    0.320217
     37          1           0        2.455048   -2.297465   -1.106338
     38          1           0        2.532660    1.861577    0.524171
     39          1           0        3.537608    0.491776    0.911540
     40          1           0        2.732710    1.371668   -1.927821
     41          1           0        4.317105    1.531338   -1.163326
     42          1           0        3.683786   -0.074113   -1.574451
 ---------------------------------------------------------------------

 SCF Done:  E(UB3LYP) =  -641.840959169     A.U. after   33 cycles
 SCF Done:  E(UB3LYP) =  -641.840959169     a.u. after    1 cycles

 The electronic state is 2-A.
 Alpha  occ. eigenvalues --  -19.00006 -14.19637 -10.14369 -10.12038 -10.10239
 Alpha  occ. eigenvalues --  -10.09437 -10.07858 -10.07844 -10.07153 -10.06662
 Alpha  occ. eigenvalues --  -10.06487 -10.06356 -10.06188 -10.06068 -10.05875
 Alpha  occ. eigenvalues --   -0.93707  -0.82455  -0.71577  -0.69695  -0.66645
 Alpha  occ. eigenvalues --   -0.64372  -0.63048  -0.61884  -0.56216  -0.54636
 Alpha  occ. eigenvalues --   -0.53934  -0.51446  -0.49927  -0.47641  -0.42573
 Alpha  occ. eigenvalues --   -0.39131  -0.37926  -0.37053  -0.36188  -0.34748
 Alpha  occ. eigenvalues --   -0.34353  -0.33390  -0.33364  -0.32770  -0.31948
 Alpha  occ. eigenvalues --   -0.31321  -0.30254  -0.29941  -0.29594  -0.28944
 Alpha  occ. eigenvalues --   -0.28623  -0.28435  -0.27379  -0.26742  -0.26489
 Alpha  occ. eigenvalues --   -0.25695  -0.25489  -0.25200  -0.24433  -0.24042
 Alpha  occ. eigenvalues --   -0.22883  -0.22419  -0.21944  -0.13692  -0.10170
 Alpha  occ. eigenvalues --    0.04374
 Alpha virt. eigenvalues --    0.05970   0.06568   0.07513   0.07577   0.07959
 Alpha virt. eigenvalues --    0.08272   0.09063   0.09728   0.09915   0.10232
 Alpha virt. eigenvalues --    0.10455   0.11253   0.11410   0.12029   0.12656

  Beta  occ. eigenvalues --  -18.99926 -14.19629 -10.14275 -10.12041 -10.10233
  Beta  occ. eigenvalues --  -10.09430 -10.07861 -10.07835 -10.07138 -10.06644
  Beta  occ. eigenvalues --  -10.06481 -10.06337 -10.06141 -10.06044 -10.05831
  Beta  occ. eigenvalues --   -0.93549  -0.82435  -0.71523  -0.69666  -0.66624
  Beta  occ. eigenvalues --   -0.64344  -0.62987  -0.61848  -0.56110  -0.54584
  Beta  occ. eigenvalues --   -0.53893  -0.51388  -0.49828  -0.47586  -0.42529
  Beta  occ. eigenvalues --   -0.39045  -0.37891  -0.37020  -0.36111  -0.34709
  Beta  occ. eigenvalues --   -0.34287  -0.33350  -0.33330  -0.32733  -0.31886
  Beta  occ. eigenvalues --   -0.31294  -0.30219  -0.29892  -0.29527  -0.28888
  Beta  occ. eigenvalues --   -0.28599  -0.28397  -0.27306  -0.26626  -0.26455
  Beta  occ. eigenvalues --   -0.25651  -0.25433  -0.25098  -0.24396  -0.24009
  Beta  occ. eigenvalues --   -0.22852  -0.22292  -0.21886  -0.13627  -0.10120
  Beta virt. eigenvalues --    0.06193   0.06922   0.07066   0.07763   0.08129
  Beta virt. eigenvalues --    0.08532   0.08903   0.09342   0.10044   0.10118
  Beta virt. eigenvalues --    0.10655   0.10753   0.11383   0.11783   0.12252

 Mulliken charges and spin densities:
               1          2
     1  C    1.914110  -2.664921
     2  C   -1.679895   1.539633
     3  C   -0.501481   1.025232
     4  C    0.934693  -1.653009
     5  C   -0.018683  -0.668942
     6  O   -0.137777   0.035498
     7  C   -0.376326   0.294050
     8  C    0.784257  -1.303906
     9  C   -0.785267   0.559323
    10  C   -0.171072  -0.418822
    11  N    0.460569   0.006560
    12  C   -0.404161   0.291796
    13  C    0.166854  -0.706936
    14  C   -0.625383   0.469750
    15  C    0.379879  -0.816155
    16  H   -0.199237   0.352133
    17  H   -0.581154   0.732239
    18  H   -0.179243   0.311680
    19  H    0.072323   0.076326
    20  H    0.061746   0.058509
    21  H    0.227617  -0.004431
    22  H   -0.250031   0.430617
    23  H   -0.036471   0.171761
    24  H   -0.276360   0.441457
    25  H   -0.110007   0.232205
    26  H    0.052918   0.098155
    27  H    0.051856   0.086037
    28  H    0.074096   0.072629
    29  H   -0.212031   0.392212
    30  H    0.112856   0.052406
    31  H   -0.035920   0.179592
    32  H    0.121828   0.032742
    33  H    0.114923   0.045446
    34  H    0.265104  -0.062946
    35  H    0.016478   0.118839
    36  H   -0.091485   0.218641
    37  H   -0.156141   0.309259
    38  H    0.153978  -0.032343
    39  H    0.052860   0.098727
    40  H   -0.110281   0.244093
    41  H   -0.191795   0.319431
    42  H    0.111254   0.035436
 Sum of Mulliken charges =  -1.00000   1.00000

 Dipole moment (field-independent basis, Debye):
    X=              5.4365    Y=              1.6481    Z=              2.7098  Tot=              6.2940
 Quadrupole moment (field-independent basis, Debye-Ang):
   XX=           -185.3881   YY=           -142.1894   ZZ=           -140.3480
   XY=              0.3538   XZ=             -5.4725   YZ=             -1.1228

 Summary of Natural Population Analysis:

                                       Natural Population
                Natural  -----------------------------------------------
    Atom  No    Charge         Core      Valence    Rydberg      Total
 -----------------------------------------------------------------------
      C    1   -0.28344      0.99967     2.27849    0.00528     3.28344
      C    2   -0.18845      0.99961     2.18035    0.00849     3.18845
      C    3   -0.15655      0.99954     2.14463    0.01238     3.15655
      C    4   -0.28336      0.99964     2.27773    0.00600     3.28336
      C    5    0.32346      0.99958     1.65240    0.02456     2.67654
      O    6   -0.28530      0.99987     3.27874    0.00668     4.28530
      C    7    0.04080      0.99950     1.94438    0.01532     2.95920
      C    8   -0.29507      0.99962     2.28783    0.00761     3.29507
      C    9   -0.19569      0.99959     2.18729    0.00881     3.19569
      C   10   -0.29059      0.99966     2.28490    0.00603     3.29059
      N   11   -0.28870      0.99967     2.77430    0.01473     3.78870
      C   12   -0.07958      0.99962     2.06870    0.01127     3.07958
      C   13   -0.29493      0.99966     2.29055    0.00472     3.29493
      C   14   -0.08238      0.99962     2.07190    0.01087     3.08238
      C   15   -0.29565      0.99966     2.29109    0.00490     3.29565
      H   16    0.09978      0.00000     0.39879    0.00143     0.40022
      H   17    0.10183      0.00000     0.39665    0.00152     0.39817
      H   18    0.09476      0.00000     0.40401    0.00124     0.40524
      H   19    0.09464      0.00000     0.40362    0.00174     0.40536
      H   20    0.09584      0.00000     0.40269    0.00146     0.40416
      H   21    0.10374      0.00000     0.39423    0.00203     0.39626
      H   22    0.10039      0.00000     0.39837    0.00123     0.39961
      H   23    0.10023      0.00000     0.39865    0.00112     0.39977
      H   24    0.10456      0.00000     0.39421    0.00123     0.39544
      H   25    0.09999      0.00000     0.39854    0.00147     0.40001
      H   26    0.10248      0.00000     0.39612    0.00139     0.39752
      H   27    0.10242      0.00000     0.39608    0.00149     0.39758
      H   28    0.10046      0.00000     0.39830    0.00124     0.39954
      H   29    0.10487      0.00000     0.39362    0.00151     0.39513
      H   30    0.10468      0.00000     0.39424    0.00108     0.39532
      H   31    0.09678      0.00000     0.40257    0.00065     0.40322
      H   32    0.10078      0.00000     0.39839    0.00082     0.39922
      H   33    0.08788      0.00000     0.41111    0.00101     0.41212
      H   34    0.09942      0.00000     0.39913    0.00145     0.40058
      H   35    0.09324      0.00000     0.40547    0.00130     0.40676
      H   36    0.09675      0.00000     0.40220    0.00106     0.40325
      H   37    0.09812      0.00000     0.40065    0.00124     0.40188
      H   38    0.09075      0.00000     0.40793    0.00131     0.40925
      H   39    0.09272      0.00000     0.40618    0.00110     0.40728
      H   40    0.09443      0.00000     0.40419    0.00138     0.40557
      H   41    0.09489      0.00000     0.40392    0.00119     0.40511
      H   42    0.09901      0.00000     0.39964    0.00136     0.40099
 =======================================================================
   * Total *   -0.00000     14.99450    44.82280    0.18270    60.00000

 Normal termination of Gaussian 16 at Thu Dec 10 16:00:06 2020.
