 Gaussian 16, Revision A.03,

 -----------------------------------------------------------
 # opt freq B3LYP/6-31G(d) empiricaldispersion=gd3bj scf=xqc
 -----------------------------------------------------------

 -------------------------------
 CID_131081510_JID_3769_neutraal
 -------------------------------
 Symbolic Z-matrix:
 Charge =  0 Multiplicity = 1

 SCF Done:  E(RB3LYP) =  -559.322139298     A.U. after   14 cycles
 SCF Done:  E(RB3LYP) =  -559.344009953     A.U. after   12 cycles
 SCF Done:  E(RB3LYP) =  -559.345917854     A.U. after   12 cycles
 SCF Done:  E(RB3LYP) =  -559.341063776     A.U. after   15 cycles
 SCF Done:  E(RB3LYP) =  -559.346441757     A.U. after   11 cycles
 SCF Done:  E(RB3LYP) =  -559.345265613     A.U. after   12 cycles
 SCF Done:  E(RB3LYP) =  -559.346555599     A.U. after   12 cycles
 SCF Done:  E(RB3LYP) =  -559.346569519     A.U. after   10 cycles
 SCF Done:  E(RB3LYP) =  -559.346577316     A.U. after    8 cycles
 SCF Done:  E(RB3LYP) =  -559.346580666     A.U. after    9 cycles
 SCF Done:  E(RB3LYP) =  -559.346589965     A.U. after    9 cycles
 SCF Done:  E(RB3LYP) =  -559.346591748     A.U. after    9 cycles
 SCF Done:  E(RB3LYP) =  -559.346591949     A.U. after    7 cycles
 SCF Done:  E(RB3LYP) =  -559.346591966     A.U. after    6 cycles
 SCF Done:  E(RB3LYP) =  -559.346591965     A.U. after    6 cycles
 Optimization completed.
    -- Stationary point found.
 Normal termination of Gaussian 16 at Mon Dec 14 13:10:38 2020.

 --------------------------------------------------------------------
 #N Geom=AllCheck Guess=TCheck SCRF=Check GenChk RB3LYP/6-31G(d) Freq
 --------------------------------------------------------------------

 Structure from the checkpoint file:  "JID_3769.chk"
 -------------------------------
 CID_131081510_JID_3769_neutraal
 -------------------------------
 Charge =  0 Multiplicity = 1

 SCF Done:  E(RB3LYP) =  -559.346591965     A.U. after    1 cycles

  Exact polarizability: 166.039  -3.150 103.920  -5.476   0.860  89.809
 Approx polarizability: 204.013  -7.487 144.383  -9.336   2.720 142.677

 ******    1 imaginary frequencies (negative Signs) ******

                      1                      2                      3
                      A                      A                      A
 Frequencies --    -17.3135                28.5790                40.2104
 Red. masses --      1.0171                 3.0487                 3.5145
 Frc consts  --      0.0002                 0.0015                 0.0033
 IR Inten    --      0.0020                 0.5397                 0.2867

                      4                      5                      6
                      A                      A                      A
 Frequencies --     67.7412               107.9095               129.8496
 Red. masses --      2.9039                 3.0156                 2.7778
 Frc consts  --      0.0079                 0.0207                 0.0276
 IR Inten    --      0.3992                 0.5737                 0.8294

                      7                      8                      9
                      A                      A                      A
 Frequencies --    210.4753               234.2063               263.7997
 Red. masses --      2.4077                 2.9003                 4.1012
 Frc consts  --      0.0628                 0.0937                 0.1682
 IR Inten    --      7.9383                 0.6689                 1.7115

                     10                     11                     12
                      A                      A                      A
 Frequencies --    306.5197               356.4095               372.1207
 Red. masses --      2.4729                 3.5060                 4.0924
 Frc consts  --      0.1369                 0.2624                 0.3339
 IR Inten    --      1.3458                 0.7878                 0.8780

                     13                     14                     15
                      A                      A                      A
 Frequencies --    387.1351               418.6643               461.7744
 Red. masses --      2.5126                 4.0884                 3.5851
 Frc consts  --      0.2219                 0.4222                 0.4504
 IR Inten    --      0.8834                 1.2508                 9.9595

                     16                     17                     18
                      A                      A                      A
 Frequencies --    519.1616               571.0533               607.1392
 Red. masses --      4.9529                 3.6585                 3.7722
 Frc consts  --      0.7865                 0.7029                 0.8193
 IR Inten    --      0.9239                 9.3632                 3.0704

                     19                     20                     21
                      A                      A                      A
 Frequencies --    714.7309               743.2517               772.6726
 Red. masses --      2.5938                 2.3694                 1.8013
 Frc consts  --      0.7807                 0.7712                 0.6336
 IR Inten    --      1.0455                 1.6907                48.7892

                     22                     23                     24
                      A                      A                      A
 Frequencies --    801.2702               808.4396               838.3057
 Red. masses --      2.7290                 2.2428                 1.8473
 Frc consts  --      1.0323                 0.8636                 0.7649
 IR Inten    --     16.8831                23.0732                 0.1627

                     25                     26                     27
                      A                      A                      A
 Frequencies --    870.8708               909.6585               929.4123
 Red. masses --      2.1645                 2.0016                 2.8649
 Frc consts  --      0.9672                 0.9759                 1.4581
 IR Inten    --      0.4712                17.4042                 7.4631

                     28                     29                     30
                      A                      A                      A
 Frequencies --    956.4734               988.2384              1013.4798
 Red. masses --      3.1103                 2.1759                 1.9537
 Frc consts  --      1.6765                 1.2520                 1.1823
 IR Inten    --     12.5378                 5.5214                17.8175

                     31                     32                     33
                      A                      A                      A
 Frequencies --   1024.8968              1027.9866              1048.0142
 Red. masses --      2.4651                 2.3600                 2.0072
 Frc consts  --      1.5256                 1.4694                 1.2989
 IR Inten    --      5.2495                 8.9457                 3.4735

                     34                     35                     36
                      A                      A                      A
 Frequencies --   1062.6032              1070.6621              1071.2851
 Red. masses --      3.3334                 1.4005                 1.3932
 Frc consts  --      2.2176                 0.9459                 0.9420
 IR Inten    --     69.0411                 1.5518                 1.4962

                     37                     38                     39
                      A                      A                      A
 Frequencies --   1088.3426              1102.8944              1142.2709
 Red. masses --      2.1217                 2.3029                 2.9609
 Frc consts  --      1.4807                 1.6504                 2.2762
 IR Inten    --     18.0153                 2.7205                23.8507

                     40                     41                     42
                      A                      A                      A
 Frequencies --   1157.1112              1184.7042              1198.7714
 Red. masses --      2.2041                 3.0830                 1.3404
 Frc consts  --      1.7387                 2.5494                 1.1349
 IR Inten    --     11.3894                 5.5066                 6.2003

                     43                     44                     45
                      A                      A                      A
 Frequencies --   1214.2998              1246.0640              1258.5781
 Red. masses --      1.3861                 1.3594                 1.2002
 Frc consts  --      1.2042                 1.2436                 1.1201
 IR Inten    --      6.6167                10.8086                13.1632

                     46                     47                     48
                      A                      A                      A
 Frequencies --   1269.3198              1278.2155              1305.5449
 Red. masses --      1.1611                 1.3745                 1.3123
 Frc consts  --      1.1022                 1.3232                 1.3178
 IR Inten    --      0.9498                 4.2971                 3.3129

                     49                     50                     51
                      A                      A                      A
 Frequencies --   1329.6373              1335.4280              1345.5744
 Red. masses --      1.3620                 1.3514                 1.2425
 Frc consts  --      1.4188                 1.4199                 1.3255
 IR Inten    --      0.2705                 9.6659                16.0419

                     52                     53                     54
                      A                      A                      A
 Frequencies --   1362.7919              1371.5604              1388.2262
 Red. masses --      1.3219                 1.3820                 1.3366
 Frc consts  --      1.4465                 1.5317                 1.5177
 IR Inten    --      6.3441                 0.7455                 1.6461

                     55                     56                     57
                      A                      A                      A
 Frequencies --   1399.0979              1406.0467              1435.9156
 Red. masses --      1.3785                 1.4679                 1.4809
 Frc consts  --      1.5899                 1.7098                 1.7990
 IR Inten    --     17.0433                35.9203                 7.6675

                     58                     59                     60
                      A                      A                      A
 Frequencies --   1444.7622              1507.9929              1509.6221
 Red. masses --      1.2424                 1.0447                 1.1869
 Frc consts  --      1.5280                 1.3997                 1.5937
 IR Inten    --      6.2285                 6.9339                22.0105

                     61                     62                     63
                      A                      A                      A
 Frequencies --   1510.1215              1512.7929              1519.2497
 Red. masses --      1.0817                 1.0807                 1.0916
 Frc consts  --      1.4534                 1.4572                 1.4845
 IR Inten    --     16.7185                 0.7331                 2.8553

                     64                     65                     66
                      A                      A                      A
 Frequencies --   1529.6960              1533.3451              1542.9154
 Red. masses --      1.1034                 1.0772                 1.0956
 Frc consts  --      1.5212                 1.4922                 1.5367
 IR Inten    --      4.2866                 0.5717                 5.3442

                     67                     68                     69
                      A                      A                      A
 Frequencies --   2380.8271              2898.7223              2911.5477
 Red. masses --     11.8249                 1.0813                 1.0742
 Frc consts  --     39.4913                 5.3533                 5.3651
 IR Inten    --      4.4521                46.9303                82.4834

                     70                     71                     72
                      A                      A                      A
 Frequencies --   3039.1675              3039.9451              3047.8890
 Red. masses --      1.0346                 1.0830                 1.0632
 Frc consts  --      5.6304                 5.8966                 5.8191
 IR Inten    --     39.0714                22.3452                22.7054

                     73                     74                     75
                      A                      A                      A
 Frequencies --   3058.3697              3074.6123              3082.5838
 Red. masses --      1.0640                 1.0604                 1.0683
 Frc consts  --      5.8639                 5.9060                 5.9811
 IR Inten    --     42.6664                28.5010                15.3864

                     76                     77                     78
                      A                      A                      A
 Frequencies --   3088.6131              3099.6657              3100.7166
 Red. masses --      1.0931                 1.1013                 1.1017
 Frc consts  --      6.1439                 6.2343                 6.2407
 IR Inten    --     36.0775                13.5872                13.4798

                     79                     80                     81
                      A                      A                      A
 Frequencies --   3107.2022              3114.5067              3117.2038
 Red. masses --      1.0985                 1.0997                 1.0989
 Frc consts  --      6.2489                 6.2852                 6.2910
 IR Inten    --     35.4936                18.9184                21.6285

                     82                     83                     84
                      A                      A                      A
 Frequencies --   3124.5461              3132.5995              3487.5099
 Red. masses --      1.0905                 1.1038                 1.0743
 Frc consts  --      6.2727                 6.3820                 7.6986
 IR Inten    --     28.8731                64.1062                 0.2249

 - Thermochemistry -
 -------------------
 Temperature   298.150 Kelvin.  Pressure   1.00000 Atm.
 Atom     1 has atomic number  6 and mass  12.00000

 Molecular mass:   179.13101 amu.
 Principal axes and moments of inertia in atomic units:
                           1         2         3
     Eigenvalues --   827.015185580.730075962.44701
           X            0.99997  -0.00198  -0.00748
           Y            0.00201   0.99999   0.00395
           Z            0.00747  -0.00397   0.99996
 This molecule is an asymmetric top.
 Rotational symmetry number  1.
 Warning -- assumption of classical behavior for rotation
           may cause significant error
 Rotational temperatures (Kelvin)      0.10473     0.01552     0.01453
 Rotational constants (GHZ):           2.18223     0.32339     0.30268
    1 imaginary frequencies ignored.
 Zero-point vibrational energy     700246.8 (Joules/Mol)
                                  167.36300 (Kcal/Mol)
 Warning -- explicit consideration of  17 degrees of freedom as
           vibrations may cause significant error
 Vibrational temperatures:     41.12    57.85    97.46   155.26   186.82
          (Kelvin)            302.83   336.97   379.55   441.01   512.79
                              535.40   557.00   602.36   664.39   746.96
                              821.62   873.54  1028.34  1069.37  1111.70
                             1152.85  1163.16  1206.13  1252.99  1308.80
                             1337.22  1376.15  1421.85  1458.17  1474.60
                             1479.04  1507.86  1528.85  1540.44  1541.34
                             1565.88  1586.82  1643.47  1664.82  1704.53
                             1724.76  1747.11  1792.81  1810.81  1826.27
                             1839.07  1878.39  1913.05  1921.38  1935.98
                             1960.75  1973.37  1997.35  2012.99  2022.99
                             2065.96  2078.69  2169.67  2172.01  2172.73
                             2176.57  2185.86  2200.89  2206.14  2219.91
                             3425.48  4170.61  4189.07  4372.68  4373.80
                             4385.23  4400.31  4423.68  4435.15  4443.83
                             4459.73  4461.24  4470.57  4481.08  4484.96
                             4495.53  4507.11  5017.75

 Zero-point correction=                           0.266710 (Hartree/Particle)
 Thermal correction to Energy=                    0.278805
 Thermal correction to Enthalpy=                  0.279749
 Thermal correction to Gibbs Free Energy=         0.226797
 Sum of electronic and zero-point Energies=           -559.079882
 Sum of electronic and thermal Energies=              -559.067787
 Sum of electronic and thermal Enthalpies=            -559.066843
 Sum of electronic and thermal Free Energies=         -559.119795

                     E (Thermal)             CV                S
                      KCal/Mol        Cal/Mol-Kelvin    Cal/Mol-Kelvin
 Total                  174.953             46.367            111.448
 Electronic               0.000              0.000              0.000
 Translational            0.889              2.981             41.456
 Rotational               0.889              2.981             31.687
 Vibrational            173.175             40.405             38.305
 Vibration     1          0.593              1.984              5.926
 Vibration     2          0.594              1.981              5.249
 Vibration     3          0.598              1.970              4.218
 Vibration     4          0.606              1.943              3.306
 Vibration     5          0.612              1.923              2.948
 Vibration     6          0.643              1.825              2.040
 Vibration     7          0.654              1.789              1.846
 Vibration     8          0.670              1.739              1.636
 Vibration     9          0.697              1.661              1.381
 Vibration    10          0.732              1.562              1.138
 Vibration    11          0.744              1.529              1.071
 Vibration    12          0.756              1.498              1.011
 Vibration    13          0.782              1.430              0.897
 Vibration    14          0.820              1.335              0.761
 Vibration    15          0.874              1.208              0.612
 Vibration    16          0.927              1.094              0.502
 Vibration    17          0.966              1.017              0.438

 Optimization completed on the basis of negligible forces.
    -- Stationary point found.
 Normal termination of Gaussian 16 at Mon Dec 14 13:17:39 2020.

 ----------------------------------------------------------------------
 # B3LYP/6-311++G(d,p) empiricaldispersion=gd3bj scf=xqc pop=npa geom=c
 heck
 ----------------------------------------------------------------------

 ---------------------------------------
 CID_131081510_JID_3769_Energie_neutraal
 ---------------------------------------
 Structure from the checkpoint file:  "JID_3769.chk"
 Charge =  0 Multiplicity = 1

 SCF Done:  E(RB3LYP) =  -559.505352579     A.U. after   14 cycles
 Normal termination of Gaussian 16 at Mon Dec 14 13:20:19 2020.

 ----------------------------------------------------------------------
 # B3LYP/6-311++G(d,p) empiricaldispersion=gd3bj scf=xqc pop=npa geom=c
 heck
 ----------------------------------------------------------------------

 -------------------------------------
 CID_131081510_JID_3769_Energie_kation
 -------------------------------------
 Structure from the checkpoint file:  "JID_3769.chk"
 Charge =  1 Multiplicity = 2

 SCF Done:  E(UB3LYP) =  -559.203863617     A.U. after   23 cycles
 Normal termination of Gaussian 16 at Mon Dec 14 13:26:09 2020.
 Gaussian 16:  ES64L-G16RevA.03 25-Dec-2016

 ----------------------------------------------------------------------
 # B3LYP/6-311++G(d,p) empiricaldispersion=gd3bj scf=xqc pop=npa geom=c
 heck
 ----------------------------------------------------------------------

 ------------------------------------
 CID_131081510_JID_3769_Energie_anion
 ------------------------------------
 Structure from the checkpoint file:  "JID_3769.chk"
 Charge = -1 Multiplicity = 2

                         Standard orientation:
 ---------------------------------------------------------------------
 Center     Atomic      Atomic             Coordinates (Angstroms)
 Number     Number       Type             X           Y           Z
 ---------------------------------------------------------------------
      1          6           0       -5.836914    0.153534    0.276822
      2          6           0       -4.425241   -0.112820    0.016063
      3          6           0       -3.256445   -0.341892   -0.189084
      4          6           0       -1.840828   -0.588533   -0.461289
      5          7           0       -0.995398    0.499210    0.043182
      6          6           0        0.405141    0.353653   -0.352077
      7          6           0        1.134954    1.690544   -0.191425
      8          6           0        2.652786    1.524975   -0.369780
      9          6           0        3.130667    0.258723    0.391686
     10          6           0        3.261579   -0.997361   -0.512527
     11          6           0        1.917569   -1.739285   -0.288433
     12          6           0        1.114937   -0.718928    0.535778
     13          8           0        2.124463   -0.104776    1.348551
     14          1           0       -6.481402   -0.488073   -0.336250
     15          1           0       -6.093945    1.194954    0.048408
     16          1           0       -6.089845   -0.028149    1.328288
     17          1           0       -1.529494   -1.521499    0.028270
     18          1           0       -1.700761   -0.759960   -1.547971
     19          1           0       -1.360657    1.378385   -0.319654
     20          1           0        0.484040    0.038441   -1.412555
     21          1           0        0.742124    2.425135   -0.905155
     22          1           0        0.925227    2.060252    0.816656
     23          1           0        3.160682    2.416914    0.012783
     24          1           0        2.909454    1.447024   -1.433476
     25          1           0        4.043634    0.460184    0.956385
     26          1           0        4.107518   -1.614989   -0.198364
     27          1           0        3.422745   -0.727693   -1.560472
     28          1           0        2.073581   -2.649392    0.297645
     29          1           0        1.418188   -2.018700   -1.221032
     30          1           0        0.391753   -1.164744    1.221408
 ---------------------------------------------------------------------

 SCF Done:  E(UB3LYP) =  -559.491255620     A.U. after   33 cycles
 SCF Done:  E(UB3LYP) =  -559.491255620     a.u. after    1 cycles

 The electronic state is 2-A.
 Alpha  occ. eigenvalues --  -19.02409 -14.20754 -10.12327 -10.12254 -10.12114
 Alpha  occ. eigenvalues --  -10.10263 -10.09342 -10.07403 -10.07298 -10.07160
 Alpha  occ. eigenvalues --  -10.07155 -10.07133 -10.06532  -0.94835  -0.82165
 Alpha  occ. eigenvalues --   -0.70430  -0.68700  -0.67702  -0.66529  -0.62532
 Alpha  occ. eigenvalues --   -0.57418  -0.53544  -0.53320  -0.49165  -0.44215
 Alpha  occ. eigenvalues --   -0.43217  -0.40173  -0.39878  -0.37172  -0.36777
 Alpha  occ. eigenvalues --   -0.35347  -0.35128  -0.33931  -0.33386  -0.33357
 Alpha  occ. eigenvalues --   -0.31907  -0.31032  -0.29224  -0.27091  -0.26165
 Alpha  occ. eigenvalues --   -0.25993  -0.24783  -0.23444  -0.22883  -0.21105
 Alpha  occ. eigenvalues --   -0.16949  -0.16806  -0.16182  -0.13770   0.04184
 Alpha virt. eigenvalues --    0.05473   0.06985   0.07163   0.08176   0.08734
 Alpha virt. eigenvalues --    0.09169   0.09549   0.09873   0.10251   0.10719
 Alpha virt. eigenvalues --    0.11077   0.12239   0.12744   0.13099   0.13677

  Beta  occ. eigenvalues --  -19.02402 -14.20741 -10.12318 -10.12241 -10.12112
  Beta  occ. eigenvalues --  -10.10252 -10.09287 -10.07390 -10.07275 -10.07158
  Beta  occ. eigenvalues --  -10.07139 -10.07118 -10.06528  -0.94817  -0.82145
  Beta  occ. eigenvalues --   -0.70402  -0.68662  -0.67672  -0.66494  -0.62489
  Beta  occ. eigenvalues --   -0.57369  -0.53503  -0.53279  -0.49124  -0.44175
  Beta  occ. eigenvalues --   -0.43177  -0.40134  -0.39843  -0.37125  -0.36741
  Beta  occ. eigenvalues --   -0.35312  -0.35100  -0.33900  -0.33334  -0.33302
  Beta  occ. eigenvalues --   -0.31879  -0.31001  -0.29190  -0.27064  -0.26133
  Beta  occ. eigenvalues --   -0.25962  -0.24750  -0.23419  -0.22857  -0.21077
  Beta  occ. eigenvalues --   -0.16928  -0.16787  -0.16165  -0.13738
  Beta virt. eigenvalues --    0.06232   0.06541   0.07567   0.07735   0.08587
  Beta virt. eigenvalues --    0.09215   0.09654   0.09990   0.10409   0.10574
  Beta virt. eigenvalues --    0.10983   0.11271   0.12472   0.12968   0.13298

 Mulliken charges and spin densities:
               1          2
     1  C    1.797429  -2.283083
     2  C   -0.754759   0.795093
     3  C    0.257861  -0.198069
     4  C   -0.845848   0.328337
     5  N    0.032792   0.086057
     6  C    0.081290  -0.503835
     7  C   -0.322265  -0.206889
     8  C    0.857291  -1.387718
     9  C   -1.365618   1.782022
    10  C    1.532934  -2.174367
    11  C   -0.557629   0.081452
    12  C    0.310258  -0.026942
    13  O   -0.137408  -0.032138
    14  H   -0.326548   0.484477
    15  H   -0.369591   0.533912
    16  H   -0.232270   0.386640
    17  H    0.087911   0.059895
    18  H   -0.129507   0.249542
    19  H    0.186557   0.007898
    20  H   -0.064865   0.239892
    21  H   -0.164338   0.300041
    22  H    0.192007   0.032092
    23  H   -0.112731   0.274751
    24  H   -0.244244   0.391520
    25  H   -0.399940   0.645275
    26  H   -0.053500   0.205238
    27  H   -0.352052   0.497929
    28  H   -0.084136   0.242743
    29  H    0.024375   0.107990
    30  H    0.156542   0.080246
 Sum of Mulliken charges =  -1.00000   1.00000

 Dipole moment (field-independent basis, Debye):
    X=              3.2792    Y=             -0.9704    Z=              1.0253  Tot=              3.5702
 Quadrupole moment (field-independent basis, Debye-Ang):
   XX=           -197.0178   YY=           -111.4948   ZZ=           -116.0449
   XY=              1.8898   XZ=              3.1301   YZ=              0.3452

 Summary of Natural Population Analysis:

                                       Natural Population
                Natural  -----------------------------------------------
    Atom  No    Charge         Core      Valence    Rydberg      Total
 -----------------------------------------------------------------------
      C    1   -0.31787      0.99962     2.31288    0.00538     3.31787
      C    2    0.00078      0.99923     1.99328    0.00671     2.99922
      C    3   -0.01922      0.99925     2.01336    0.00661     3.01922
      C    4   -0.11985      0.99957     2.11000    0.01028     3.11985
      N    5   -0.32821      0.99972     2.81725    0.01124     3.82821
      C    6   -0.01987      0.99956     2.00741    0.01290     3.01987
      C    7   -0.19279      0.99960     2.18253    0.01066     3.19279
      C    8   -0.19984      0.99961     2.19149    0.00875     3.19984
      C    9    0.05925      0.99958     1.92532    0.01585     2.94075
      C   10   -0.20265      0.99962     2.19503    0.00799     3.20265
      C   11   -0.20374      0.99962     2.19490    0.00922     3.20374
      C   12    0.05870      0.99953     1.92658    0.01518     2.94130
      O   13   -0.30251      0.99990     3.29489    0.00772     4.30251
      H   14    0.11189      0.00000     0.38614    0.00197     0.38811
      H   15    0.11259      0.00000     0.38527    0.00214     0.38741
      H   16    0.11056      0.00000     0.38765    0.00179     0.38944
      H   17    0.10154      0.00000     0.39674    0.00173     0.39846
      H   18    0.09339      0.00000     0.40475    0.00187     0.40661
      H   19    0.17419      0.00000     0.32249    0.00332     0.32581
      H   20    0.07953      0.00000     0.41773    0.00275     0.42047
      H   21    0.10047      0.00000     0.39834    0.00119     0.39953
      H   22    0.10521      0.00000     0.39322    0.00158     0.39479
      H   23    0.10087      0.00000     0.39806    0.00106     0.39913
      H   24    0.09818      0.00000     0.40005    0.00177     0.40182
      H   25    0.09432      0.00000     0.40445    0.00123     0.40568
      H   26    0.10212      0.00000     0.39651    0.00137     0.39788
      H   27    0.10121      0.00000     0.39712    0.00167     0.39879
      H   28    0.10013      0.00000     0.39880    0.00106     0.39987
      H   29    0.10163      0.00000     0.39706    0.00130     0.39837
      H   30    0.09998      0.00000     0.39874    0.00128     0.40002
 =======================================================================
   * Total *    0.00000     12.99441    35.84804    0.15755    49.00000

 Normal termination of Gaussian 16 at Mon Dec 14 13:34:46 2020.
