 Gaussian 16, Revision A.03,

 -----------------------------------------------------------
 # opt freq B3LYP/6-31G(d) empiricaldispersion=gd3bj scf=xqc
 -----------------------------------------------------------

 -------------------------------
 CID_117126182_JID_4286_neutraal
 -------------------------------
 Symbolic Z-matrix:
 Charge =  0 Multiplicity = 1

 SCF Done:  E(RB3LYP) =  -1029.15536962     A.U. after   14 cycles
 SCF Done:  E(RB3LYP) =  -1029.16342204     A.U. after   12 cycles
 SCF Done:  E(RB3LYP) =  -1029.16558206     A.U. after   12 cycles
 SCF Done:  E(RB3LYP) =  -1029.16712448     A.U. after   14 cycles
 SCF Done:  E(RB3LYP) =  -1029.16783235     A.U. after   12 cycles
 SCF Done:  E(RB3LYP) =  -1029.16814953     A.U. after   12 cycles
 SCF Done:  E(RB3LYP) =  -1029.16869741     A.U. after   12 cycles
 SCF Done:  E(RB3LYP) =  -1029.16878386     A.U. after   12 cycles
 SCF Done:  E(RB3LYP) =  -1029.16847806     A.U. after   12 cycles
 SCF Done:  E(RB3LYP) =  -1029.16885918     A.U. after   11 cycles
 SCF Done:  E(RB3LYP) =  -1029.16913121     A.U. after    9 cycles
 SCF Done:  E(RB3LYP) =  -1029.16913434     A.U. after   10 cycles
 SCF Done:  E(RB3LYP) =  -1029.16913386     A.U. after    9 cycles
 SCF Done:  E(RB3LYP) =  -1029.16913442     A.U. after    9 cycles
 SCF Done:  E(RB3LYP) =  -1029.16913442     A.U. after    6 cycles
 SCF Done:  E(RB3LYP) =  -1029.16913442     A.U. after    7 cycles
 Optimization completed.
    -- Stationary point found.
 Normal termination of Gaussian 16 at Thu Dec 10 09:49:07 2020.

 --------------------------------------------------------------------
 #N Geom=AllCheck Guess=TCheck SCRF=Check GenChk RB3LYP/6-31G(d) Freq
 --------------------------------------------------------------------

 Structure from the checkpoint file:  "JID_4286.chk"
 -------------------------------
 CID_117126182_JID_4286_neutraal
 -------------------------------
 Charge =  0 Multiplicity = 1

 SCF Done:  E(RB3LYP) =  -1029.16913442     A.U. after    1 cycles

  Exact polarizability: 146.450   3.017 114.896   0.973  -1.109 110.453
 Approx polarizability: 173.924   1.113 171.389  -2.043  -4.444 174.348

                      1                      2                      3
                      A                      A                      A
 Frequencies --     20.8822                24.5339                32.4107
 Red. masses --      3.5235                 3.3536                 2.1051
 Frc consts  --      0.0009                 0.0012                 0.0013
 IR Inten    --      0.5574                 1.8028                 0.0805

                      4                      5                      6
                      A                      A                      A
 Frequencies --     45.8239                78.0567                97.0081
 Red. masses --      2.1393                 3.1223                 4.0090
 Frc consts  --      0.0026                 0.0112                 0.0222
 IR Inten    --      0.2127                 2.0677                 4.7208

                      7                      8                      9
                      A                      A                      A
 Frequencies --    117.3689               157.9746               197.3963
 Red. masses --      3.9969                 3.6061                 3.7619
 Frc consts  --      0.0324                 0.0530                 0.0864
 IR Inten    --      2.2837                 0.7960                 3.0507

                     10                     11                     12
                      A                      A                      A
 Frequencies --    212.9944               247.1481               266.0928
 Red. masses --      4.4149                 1.1060                 1.1727
 Frc consts  --      0.1180                 0.0398                 0.0489
 IR Inten    --      8.0694                11.4639                27.5151

                     13                     14                     15
                      A                      A                      A
 Frequencies --    279.8434               323.8358               331.6407
 Red. masses --      4.5190                 3.7563                 3.2607
 Frc consts  --      0.2085                 0.2321                 0.2113
 IR Inten    --      0.5721                 6.4960                 6.0308

                     16                     17                     18
                      A                      A                      A
 Frequencies --    370.1975               423.7643               428.8780
 Red. masses --      2.0646                 2.4666                 4.9195
 Frc consts  --      0.1667                 0.2610                 0.5331
 IR Inten    --      0.3762                 7.6427                 7.5708

                     19                     20                     21
                      A                      A                      A
 Frequencies --    472.5583               498.4362               531.6911
 Red. masses --      2.0788                 3.4131                 5.4649
 Frc consts  --      0.2735                 0.4996                 0.9102
 IR Inten    --     13.1585                31.9168                50.5763

                     22                     23                     24
                      A                      A                      A
 Frequencies --    559.6749               609.1514               631.2583
 Red. masses --      2.1474                 3.5173                 2.6938
 Frc consts  --      0.3963                 0.7690                 0.6325
 IR Inten    --     53.2513                90.1773                 2.7503

                     25                     26                     27
                      A                      A                      A
 Frequencies --    658.4740               713.5404               779.4950
 Red. masses --      2.0763                 2.8312                 1.2575
 Frc consts  --      0.5304                 0.8493                 0.4502
 IR Inten    --     13.2843                67.9341                 0.0332

                     28                     29                     30
                      A                      A                      A
 Frequencies --    810.8660               822.2323               836.1196
 Red. masses --      2.5882                 2.3494                 1.9959
 Frc consts  --      1.0026                 0.9358                 0.8221
 IR Inten    --     19.1913                 4.0862                47.6280

                     31                     32                     33
                      A                      A                      A
 Frequencies --    889.0609               891.5358               913.5872
 Red. masses --      3.2624                 2.3641                 2.3881
 Frc consts  --      1.5193                 1.1071                 1.1744
 IR Inten    --      1.5209               114.0816                22.8867

                     34                     35                     36
                      A                      A                      A
 Frequencies --    928.9437               962.8726               970.1187
 Red. masses --      1.6269                 1.7831                 1.7239
 Frc consts  --      0.8271                 0.9740                 0.9559
 IR Inten    --     87.2333               107.0865                13.3875

                     37                     38                     39
                      A                      A                      A
 Frequencies --    974.0722               989.6016              1004.9072
 Red. masses --      1.8045                 1.5719                 1.3331
 Frc consts  --      1.0087                 0.9070                 0.7932
 IR Inten    --     12.3104                 1.6206                 1.1566

                     40                     41                     42
                      A                      A                      A
 Frequencies --   1037.7445              1055.8677              1059.0578
 Red. masses --      2.1813                 1.5203                 2.4233
 Frc consts  --      1.3840                 0.9986                 1.6014
 IR Inten    --    130.0909                 7.4923                 6.1810

                     43                     44                     45
                      A                      A                      A
 Frequencies --   1088.9963              1122.3629              1127.6006
 Red. masses --      2.7285                 2.4137                 4.0073
 Frc consts  --      1.9064                 1.7914                 3.0020
 IR Inten    --     24.0875                80.0391                70.4191

                     46                     47                     48
                      A                      A                      A
 Frequencies --   1143.1025              1181.1489              1215.2461
 Red. masses --      3.6765                 1.9190                 1.4315
 Frc consts  --      2.8305                 1.5773                 1.2456
 IR Inten    --     45.6869                10.3942                 0.7491

                     49                     50                     51
                      A                      A                      A
 Frequencies --   1216.6050              1255.0996              1273.0888
 Red. masses --      1.4098                 1.4455                 1.2987
 Frc consts  --      1.2294                 1.3416                 1.2402
 IR Inten    --      7.5418                 3.9266                12.5842

                     52                     53                     54
                      A                      A                      A
 Frequencies --   1282.0037              1297.7849              1310.9925
 Red. masses --      1.2897                 1.5525                 1.4926
 Frc consts  --      1.2488                 1.5406                 1.5114
 IR Inten    --      6.7999                20.1551                43.2231

                     55                     56                     57
                      A                      A                      A
 Frequencies --   1324.8493              1335.7685              1351.1141
 Red. masses --      1.9744                 1.2327                 1.3186
 Frc consts  --      2.0418                 1.2958                 1.4182
 IR Inten    --     56.7348                 5.3568                 2.4320

                     58                     59                     60
                      A                      A                      A
 Frequencies --   1357.2110              1360.0423              1363.1725
 Red. masses --      1.3716                 1.4599                 1.5331
 Frc consts  --      1.4886                 1.5910                 1.6785
 IR Inten    --      3.9372                14.0715                50.1266

                     61                     62                     63
                      A                      A                      A
 Frequencies --   1400.3598              1419.7620              1423.6675
 Red. masses --      1.2881                 1.3756                 1.2726
 Frc consts  --      1.4883                 1.6336                 1.5198
 IR Inten    --      0.8106                43.9434                10.2124

                     64                     65                     66
                      A                      A                      A
 Frequencies --   1437.6977              1447.2238              1460.5838
 Red. masses --      1.2834                 1.4033                 1.3636
 Frc consts  --      1.5630                 1.7317                 1.7139
 IR Inten    --     19.0387                32.1378                26.3763

                     67                     68                     69
                      A                      A                      A
 Frequencies --   1514.3330              1517.1602              1523.2269
 Red. masses --      1.0713                 1.0767                 1.0577
 Frc consts  --      1.4475                 1.4602                 1.4459
 IR Inten    --      6.9347                 0.1478                 2.7998

                     70                     71                     72
                      A                      A                      A
 Frequencies --   1527.2963              1530.5078              1537.5647
 Red. masses --      1.0923                 1.0850                 1.0480
 Frc consts  --      1.5012                 1.4974                 1.4598
 IR Inten    --      1.5512                 3.8344                 4.2081

                     73                     74                     75
                      A                      A                      A
 Frequencies --   1552.0885              1702.6957              3023.1644
 Red. masses --      1.1046                 1.0885                 1.0836
 Frc consts  --      1.5678                 1.8594                 5.8349
 IR Inten    --      1.4233                35.2732                 9.1545

                     76                     77                     78
                      A                      A                      A
 Frequencies --   3036.0518              3045.3126              3047.4883
 Red. masses --      1.0802                 1.0646                 1.0417
 Frc consts  --      5.8663                 5.8172                 5.6998
 IR Inten    --     12.1370                19.1514                26.6819

                     79                     80                     81
                      A                      A                      A
 Frequencies --   3052.7028              3057.3090              3065.1373
 Red. masses --      1.0695                 1.0716                 1.0634
 Frc consts  --      5.8721                 5.9017                 5.8862
 IR Inten    --     50.2028                28.3587                31.1654

                     82                     83                     84
                      A                      A                      A
 Frequencies --   3077.3159              3095.3740              3105.7654
 Red. masses --      1.0645                 1.0992                 1.1023
 Frc consts  --      5.9392                 6.2053                 6.2644
 IR Inten    --     46.0788                27.5213                 6.4023

                     85                     86                     87
                      A                      A                      A
 Frequencies --   3109.7017              3123.7124              3126.5325
 Red. masses --      1.1005                 1.1046                 1.0971
 Frc consts  --      6.2703                 6.3505                 6.3185
 IR Inten    --     42.3207                59.0296                10.4303

                     88                     89                     90
                      A                      A                      A
 Frequencies --   3142.8154              3155.8657              3451.7575
 Red. masses --      1.1007                 1.0954                 1.0498
 Frc consts  --      6.4055                 6.4279                 7.3693
 IR Inten    --     21.0421                10.7192                 2.3705

                     91                     92                     93
                      A                      A                      A
 Frequencies --   3505.0391              3532.1648              3561.0048
 Red. masses --      1.0747                 1.0905                 1.0756
 Frc consts  --      7.7789                 8.0157                 8.0361
 IR Inten    --     12.3999                 0.5405                33.9180

 - Thermochemistry -
 -------------------
 Temperature   298.150 Kelvin.  Pressure   1.00000 Atm.
 Atom     1 has atomic number  6 and mass  12.00000

 Molecular mass:   221.11980 amu.
 Principal axes and moments of inertia in atomic units:
                           1         2         3
     Eigenvalues --  1912.034515170.047056041.52569
           X            1.00000  -0.00001   0.00064
           Y            0.00000   0.99997   0.00832
           Z           -0.00064  -0.00832   0.99997
 This molecule is an asymmetric top.
 Rotational symmetry number  1.
 Warning -- assumption of classical behavior for rotation
           may cause significant error
 Rotational temperatures (Kelvin)      0.04530     0.01675     0.01434
 Rotational constants (GHZ):           0.94389     0.34908     0.29872
 Zero-point vibrational energy     760653.2 (Joules/Mol)
                                  181.80049 (Kcal/Mol)
 Warning -- explicit consideration of  23 degrees of freedom as
           vibrations may cause significant error
 Vibrational temperatures:     30.04    35.30    46.63    65.93   112.31
          (Kelvin)            139.57   168.87   227.29   284.01   306.45
                              355.59   382.85   402.63   465.93   477.16
                              532.63   609.70   617.06   679.91   717.14
                              764.98   805.25   876.43   908.24   947.40
                             1026.63  1121.52  1166.66  1183.01  1202.99
                             1279.16  1282.72  1314.45  1336.54  1385.36
                             1395.78  1401.47  1423.82  1445.84  1493.08
                             1519.16  1523.75  1566.82  1614.83  1622.37
                             1644.67  1699.41  1748.47  1750.42  1805.81
                             1831.69  1844.52  1867.22  1886.23  1906.16
                             1921.87  1943.95  1952.72  1956.80  1961.30
                             2014.81  2042.72  2048.34  2068.53  2082.23
                             2101.45  2178.79  2182.86  2191.58  2197.44
                             2202.06  2212.21  2233.11  2449.80  4349.66
                             4368.20  4381.53  4384.66  4392.16  4398.79
                             4410.05  4427.57  4453.55  4468.50  4474.17
                             4494.33  4498.38  4521.81  4540.59  4966.31
                             5042.97  5082.00  5123.49

 Zero-point correction=                           0.289718 (Hartree/Particle)
 Thermal correction to Energy=                    0.305613
 Thermal correction to Enthalpy=                  0.306558
 Thermal correction to Gibbs Free Energy=         0.243620
 Sum of electronic and zero-point Energies=          -1028.879417
 Sum of electronic and thermal Energies=             -1028.863521
 Sum of electronic and thermal Enthalpies=           -1028.862577
 Sum of electronic and thermal Free Energies=        -1028.925514

                     E (Thermal)             CV                S
                      KCal/Mol        Cal/Mol-Kelvin    Cal/Mol-Kelvin
 Total                  191.775             58.423            132.463
 Electronic               0.000              0.000              0.000
 Translational            0.889              2.981             42.083
 Rotational               0.889              2.981             32.457
 Vibrational            189.998             52.461             57.923
 Vibration     1          0.593              1.986              6.548
 Vibration     2          0.593              1.985              6.229
 Vibration     3          0.594              1.983              5.676
 Vibration     4          0.595              1.979              4.990
 Vibration     5          0.599              1.964              3.939
 Vibration     6          0.603              1.951              3.514
 Vibration     7          0.608              1.935              3.143
 Vibration     8          0.621              1.894              2.574
 Vibration     9          0.637              1.844              2.157
 Vibration    10          0.644              1.821              2.018
 Vibration    11          0.661              1.768              1.751
 Vibration    12          0.672              1.735              1.621
 Vibration    13          0.680              1.711              1.535
 Vibration    14          0.708              1.628              1.291
 Vibration    15          0.714              1.612              1.252
 Vibration    16          0.742              1.533              1.079
 Vibration    17          0.786              1.419              0.879
 Vibration    18          0.790              1.407              0.862
 Vibration    19          0.829              1.311              0.730
 Vibration    20          0.854              1.253              0.662
 Vibration    21          0.887              1.180              0.583
 Vibration    22          0.915              1.119              0.524
 Vibration    23          0.968              1.012              0.434

 Optimization completed.
    -- Stationary point found.
 Normal termination of Gaussian 16 at Thu Dec 10 09:59:20 2020.

 ----------------------------------------------------------------------
 # B3LYP/6-311++G(d,p) empiricaldispersion=gd3bj scf=xqc pop=npa geom=c
 heck
 ----------------------------------------------------------------------

 ---------------------------------------
 CID_117126182_JID_4286_Energie_neutraal
 ---------------------------------------
 Structure from the checkpoint file:  "JID_4286.chk"
 Charge =  0 Multiplicity = 1

 SCF Done:  E(RB3LYP) =  -1029.39136978     A.U. after   14 cycles
 Normal termination of Gaussian 16 at Thu Dec 10 10:04:21 2020.

 ----------------------------------------------------------------------
 # B3LYP/6-311++G(d,p) empiricaldispersion=gd3bj scf=xqc pop=npa geom=c
 heck
 ----------------------------------------------------------------------

 -------------------------------------
 CID_117126182_JID_4286_Energie_kation
 -------------------------------------
 Structure from the checkpoint file:  "JID_4286.chk"
 Charge =  1 Multiplicity = 2

 SCF Done:  E(UB3LYP) =  -1029.06753590     A.U. after   23 cycles
 Normal termination of Gaussian 16 at Thu Dec 10 10:16:01 2020.
 Gaussian 16:  ES64L-G16RevA.03 25-Dec-2016

 ----------------------------------------------------------------------
 # B3LYP/6-311++G(d,p) empiricaldispersion=gd3bj scf=xqc pop=npa geom=c
 heck
 ----------------------------------------------------------------------

 ------------------------------------
 CID_117126182_JID_4286_Energie_anion
 ------------------------------------
 Structure from the checkpoint file:  "JID_4286.chk"
 Charge = -1 Multiplicity = 2

                         Standard orientation:
 ---------------------------------------------------------------------
 Center     Atomic      Atomic             Coordinates (Angstroms)
 Number     Number       Type             X           Y           Z
 ---------------------------------------------------------------------
      1          6           0        4.320303   -1.062607   -0.270558
      2          6           0        3.019445   -1.369036    0.472442
      3          6           0        2.328464   -0.084090    0.969611
      4          7           0        1.898476    0.752502   -0.165832
      5         16           0        0.366412    1.426837   -0.115380
      6          8           0       -0.069614    1.762872    1.239784
      7          8           0        0.372226    2.453986   -1.160720
      8          7           0       -0.508729    0.053194   -0.556245
      9          6           0       -1.965281    0.094853   -0.302023
     10          6           0       -2.677578   -0.952199   -1.169993
     11          6           0       -4.038726   -1.173025   -0.469234
     12          6           0       -3.849149   -0.666839    0.993124
     13          6           0       -2.354439   -0.316378    1.121648
     14          7           0        2.164019   -2.199060   -0.379459
     15          1           0        4.119517   -0.471389   -1.173025
     16          1           0        4.803794   -1.992345   -0.581761
     17          1           0        5.015303   -0.496579    0.360179
     18          1           0        3.260761   -1.958297    1.368011
     19          1           0        1.437363   -0.348419    1.544772
     20          1           0        2.983371    0.488767    1.638647
     21          1           0        2.553073    1.476767   -0.447372
     22          1           0       -0.300332   -0.131697   -1.536996
     23          1           0       -2.375129    1.090497   -0.525062
     24          1           0       -2.774752   -0.641239   -2.215847
     25          1           0       -2.081693   -1.874052   -1.150440
     26          1           0       -4.330632   -2.226690   -0.505756
     27          1           0       -4.830019   -0.609337   -0.973442
     28          1           0       -4.160128   -1.407584    1.735597
     29          1           0       -4.459951    0.226542    1.163619
     30          1           0       -1.764821   -1.202719    1.388729
     31          1           0       -2.144159    0.460356    1.858084
     32          1           0        1.281617   -2.376140    0.101202
     33          1           0        1.908744   -1.641212   -1.194923
 ---------------------------------------------------------------------

 SCF Done:  E(UB3LYP) =  -1029.38157988     A.U. after   28 cycles

 The electronic state is 2-A.
 Alpha  occ. eigenvalues --  -88.98436 -19.02519 -19.02482 -14.25189 -14.25073
 Alpha  occ. eigenvalues --  -14.19204 -10.12170 -10.11285 -10.10687 -10.07942
 Alpha  occ. eigenvalues --  -10.07791 -10.07686 -10.06956 -10.06350  -8.04400
 Alpha  occ. eigenvalues --   -6.00652  -6.00632  -6.00591  -1.03635  -0.91876
 Alpha  occ. eigenvalues --   -0.84825  -0.83143  -0.78769  -0.74029  -0.65750
 Alpha  occ. eigenvalues --   -0.62595  -0.62276  -0.59897  -0.54354  -0.49436
 Alpha  occ. eigenvalues --   -0.49203  -0.47904  -0.44895  -0.42602  -0.41881
 Alpha  occ. eigenvalues --   -0.40478  -0.39406  -0.37800  -0.36746  -0.35955
 Alpha  occ. eigenvalues --   -0.34826  -0.33759  -0.32801  -0.31484  -0.29524
 Alpha  occ. eigenvalues --   -0.27965  -0.27239  -0.26515  -0.25961  -0.25773
 Alpha  occ. eigenvalues --   -0.25368  -0.25225  -0.24795  -0.23896  -0.23322
 Alpha  occ. eigenvalues --   -0.22994  -0.21513  -0.19412  -0.17618  -0.14779
 Alpha  occ. eigenvalues --    0.04050
 Alpha virt. eigenvalues --    0.05780   0.06914   0.07352   0.08057   0.08319
 Alpha virt. eigenvalues --    0.08723   0.10108   0.10555   0.10600   0.11151
 Alpha virt. eigenvalues --    0.11243   0.11792   0.12020   0.12903   0.13648

  Beta  occ. eigenvalues --  -88.98431 -19.02502 -19.02471 -14.25162 -14.25045
  Beta  occ. eigenvalues --  -14.19177 -10.12164 -10.11263 -10.10676 -10.07909
  Beta  occ. eigenvalues --  -10.07770 -10.07674 -10.06941 -10.06312  -8.04393
  Beta  occ. eigenvalues --   -6.00648  -6.00628  -6.00585  -1.03597  -0.91837
  Beta  occ. eigenvalues --   -0.84783  -0.83103  -0.78721  -0.73993  -0.65694
  Beta  occ. eigenvalues --   -0.62549  -0.62228  -0.59836  -0.54307  -0.49373
  Beta  occ. eigenvalues --   -0.49136  -0.47851  -0.44846  -0.42560  -0.41832
  Beta  occ. eigenvalues --   -0.40427  -0.39357  -0.37764  -0.36713  -0.35919
  Beta  occ. eigenvalues --   -0.34796  -0.33722  -0.32766  -0.31447  -0.29485
  Beta  occ. eigenvalues --   -0.27921  -0.27194  -0.26482  -0.25929  -0.25731
  Beta  occ. eigenvalues --   -0.25335  -0.25182  -0.24752  -0.23860  -0.23295
  Beta  occ. eigenvalues --   -0.22971  -0.21493  -0.19379  -0.17592  -0.14750
  Beta virt. eigenvalues --    0.06176   0.06703   0.07564   0.07935   0.08542
  Beta virt. eigenvalues --    0.08617   0.09122   0.10647   0.10830   0.10971
  Beta virt. eigenvalues --    0.11281   0.11408   0.12043   0.12274   0.13122

 Mulliken charges and spin densities:
               1          2
     1  C    1.023045  -1.595204
     2  C   -0.927192   0.492574
     3  C    0.229531  -0.487798
     4  N   -0.396578   0.035882
     5  S    1.061319  -0.702465
     6  O   -0.220406   0.030886
     7  O   -0.106763   0.006490
     8  N   -0.273343   0.072589
     9  C   -1.099675   0.670733
    10  C    0.401412  -0.697757
    11  C    0.499201  -0.856687
    12  C   -0.270404  -0.315456
    13  C    0.274288  -0.342976
    14  N   -0.004563  -0.102360
    15  H   -0.070208   0.214406
    16  H   -0.072687   0.229868
    17  H   -0.346851   0.486460
    18  H   -0.141946   0.320268
    19  H   -0.047832   0.237518
    20  H   -0.383523   0.589645
    21  H    0.046636   0.293995
    22  H   -0.078020   0.430787
    23  H    0.237154  -0.028512
    24  H   -0.423630   0.597133
    25  H    0.100985   0.049954
    26  H   -0.233471   0.380176
    27  H   -0.018988   0.164549
    28  H   -0.015272   0.167837
    29  H   -0.027644   0.164634
    30  H    0.004073   0.120131
    31  H    0.159483   0.054228
    32  H   -0.020556   0.269048
    33  H    0.142425   0.049423
 Sum of Mulliken charges =  -1.00000   1.00000

 Dipole moment (field-independent basis, Debye):
    X=             -2.4929    Y=              1.0413    Z=              0.8294  Tot=              2.8261
 Quadrupole moment (field-independent basis, Debye-Ang):
   XX=           -171.0452   YY=           -143.6641   ZZ=           -130.7645
   XY=             -1.8807   XZ=             -5.7051   YZ=             -1.9743

 Summary of Natural Population Analysis:

                                       Natural Population
                Natural  -----------------------------------------------
    Atom  No    Charge         Core      Valence    Rydberg      Total
 -----------------------------------------------------------------------
      C    1   -0.29137      0.99964     2.28560    0.00613     3.29137
      C    2   -0.01873      0.99962     2.00642    0.01268     3.01873
      C    3   -0.09937      0.99959     2.08683    0.01295     3.09937
      N    4   -0.44100      0.99974     2.92820    0.01305     3.94100
      S    5    1.16445      4.99934     1.73313    0.10309     6.83555
      O    6   -0.45965      0.99990     3.45442    0.00534     4.45965
      O    7   -0.46227      0.99990     3.45721    0.00515     4.46227
      N    8   -0.42883      0.99973     2.91574    0.01336     3.92883
      C    9   -0.01851      0.99956     2.00427    0.01468     3.01851
      C   10   -0.19349      0.99962     2.18482    0.00905     3.19349
      C   11   -0.19206      0.99965     2.18482    0.00759     3.19206
      C   12   -0.19165      0.99965     2.18534    0.00667     3.19165
      C   13   -0.19401      0.99961     2.18657    0.00783     3.19401
      N   14   -0.41999      0.99977     2.91045    0.00978     3.91999
      H   15    0.09710      0.00000     0.40163    0.00127     0.40290
      H   16    0.10484      0.00000     0.39411    0.00105     0.39516
      H   17    0.10104      0.00000     0.39729    0.00166     0.39896
      H   18    0.09164      0.00000     0.40717    0.00119     0.40836
      H   19    0.10558      0.00000     0.39238    0.00205     0.39442
      H   20    0.09762      0.00000     0.40082    0.00156     0.40238
      H   21    0.20267      0.00000     0.29500    0.00232     0.29733
      H   22    0.19661      0.00000     0.30043    0.00297     0.30339
      H   23    0.09284      0.00000     0.40584    0.00132     0.40716
      H   24    0.10349      0.00000     0.39503    0.00148     0.39651
      H   25    0.10070      0.00000     0.39725    0.00206     0.39930
      H   26    0.10060      0.00000     0.39821    0.00119     0.39940
      H   27    0.09701      0.00000     0.40189    0.00110     0.40299
      H   28    0.10003      0.00000     0.39881    0.00116     0.39997
      H   29    0.09447      0.00000     0.40423    0.00130     0.40553
      H   30    0.09878      0.00000     0.39957    0.00166     0.40122
      H   31    0.11182      0.00000     0.38700    0.00118     0.38818
      H   32    0.17596      0.00000     0.32161    0.00243     0.32404
      H   33    0.17371      0.00000     0.32369    0.00260     0.32629
 =======================================================================
   * Total *   -0.00000     17.99531    41.74578    0.25891    60.00000

 Normal termination of Gaussian 16 at Thu Dec 10 10:30:03 2020.
