 Gaussian 16, Revision A.03,

 -----------------------------------------------------------
 # opt freq B3LYP/6-31G(d) empiricaldispersion=gd3bj scf=xqc
 -----------------------------------------------------------

 ------------------------------
 CID_60848097_JID_6845_neutraal
 ------------------------------
 Symbolic Z-matrix:
 Charge =  0 Multiplicity = 1

 SCF Done:  E(RB3LYP) =  -742.971440046     A.U. after   15 cycles
 SCF Done:  E(RB3LYP) =  -742.948676552     A.U. after   14 cycles
 SCF Done:  E(RB3LYP) =  -742.975946664     A.U. after   12 cycles
 SCF Done:  E(RB3LYP) =  -742.976806852     A.U. after   13 cycles
 SCF Done:  E(RB3LYP) =  -742.977982901     A.U. after   13 cycles
 SCF Done:  E(RB3LYP) =  -742.978756046     A.U. after   13 cycles
 SCF Done:  E(RB3LYP) =  -742.979387528     A.U. after   13 cycles
 SCF Done:  E(RB3LYP) =  -742.979766937     A.U. after   14 cycles
 SCF Done:  E(RB3LYP) =  -742.980239425     A.U. after   11 cycles
 SCF Done:  E(RB3LYP) =  -742.980537554     A.U. after   12 cycles
 SCF Done:  E(RB3LYP) =  -742.981803378     A.U. after   10 cycles
 SCF Done:  E(RB3LYP) =  -742.981803981     A.U. after    9 cycles
 SCF Done:  E(RB3LYP) =  -742.981804388     A.U. after    9 cycles
 SCF Done:  E(RB3LYP) =  -742.981805023     A.U. after    9 cycles
 SCF Done:  E(RB3LYP) =  -742.981805167     A.U. after    8 cycles
 Optimization completed.
    -- Stationary point found.
 Normal termination of Gaussian 16 at Fri Dec 11 01:15:57 2020.

 --------------------------------------------------------------------
 #N Geom=AllCheck Guess=TCheck SCRF=Check GenChk RB3LYP/6-31G(d) Freq
 --------------------------------------------------------------------

 Structure from the checkpoint file:  "JID_6845.chk"
 ------------------------------
 CID_60848097_JID_6845_neutraal
 ------------------------------
 Charge =  0 Multiplicity = 1

 SCF Done:  E(RB3LYP) =  -742.981805168     A.U. after    1 cycles

  Exact polarizability: 175.377  -7.829 152.380  20.400   4.577  87.048
 Approx polarizability: 249.780 -16.070 232.800  44.610   7.539 138.572

                      1                      2                      3
                      A                      A                      A
 Frequencies --     23.5132                29.4541                44.9400
 Red. masses --      3.7552                 5.0512                 4.4215
 Frc consts  --      0.0012                 0.0026                 0.0053
 IR Inten    --      0.7495                 2.6945                 0.2127

                      4                      5                      6
                      A                      A                      A
 Frequencies --     65.7527                72.7525                77.5136
 Red. masses --      1.2856                 3.4446                 5.6515
 Frc consts  --      0.0033                 0.0107                 0.0200
 IR Inten    --      0.2987                 1.0735                 1.0457

                      7                      8                      9
                      A                      A                      A
 Frequencies --     93.0511               121.7167               202.6749
 Red. masses --      3.9440                 3.1706                 2.6584
 Frc consts  --      0.0201                 0.0277                 0.0643
 IR Inten    --      1.5909                 3.2124                 0.9708

                     10                     11                     12
                      A                      A                      A
 Frequencies --    216.6482               227.4646               264.4439
 Red. masses --      3.0817                 3.7615                 4.3486
 Frc consts  --      0.0852                 0.1147                 0.1792
 IR Inten    --      0.9259                 2.5884                 8.2069

                     13                     14                     15
                      A                      A                      A
 Frequencies --    284.3755               297.5936               334.0170
 Red. masses --      2.6021                 2.1398                 2.0645
 Frc consts  --      0.1240                 0.1117                 0.1357
 IR Inten    --     16.0884                 9.0636                28.3071

                     16                     17                     18
                      A                      A                      A
 Frequencies --    393.4149               405.0156               454.7071
 Red. masses --      7.8146                 3.7065                 3.0629
 Frc consts  --      0.7126                 0.3582                 0.3731
 IR Inten    --      9.3382                 3.8037                 4.3486

                     19                     20                     21
                      A                      A                      A
 Frequencies --    477.2878               494.2316               518.6535
 Red. masses --      1.6280                 2.5780                 4.2752
 Frc consts  --      0.2185                 0.3710                 0.6776
 IR Inten    --     36.7850                17.2245                 4.3934

                     22                     23                     24
                      A                      A                      A
 Frequencies --    532.6022               570.1821               612.9353
 Red. masses --      4.6385                 3.7931                 2.1138
 Frc consts  --      0.7752                 0.7266                 0.4679
 IR Inten    --      3.6390                21.0139                64.3161

                     25                     26                     27
                      A                      A                      A
 Frequencies --    637.1548               658.2592               677.3908
 Red. masses --      3.1849                 3.0788                 1.9283
 Frc consts  --      0.7618                 0.7860                 0.5213
 IR Inten    --      6.3173                19.3082                61.7731

                     28                     29                     30
                      A                      A                      A
 Frequencies --    715.4682               742.5426               768.8689
 Red. masses --      2.5920                 3.7768                 2.7093
 Frc consts  --      0.7817                 1.2269                 0.9436
 IR Inten    --     11.2200                68.8922                 5.1003

                     31                     32                     33
                      A                      A                      A
 Frequencies --    809.8406               839.1515               877.7608
 Red. masses --      1.8383                 3.0694                 3.8444
 Frc consts  --      0.7103                 1.2735                 1.7451
 IR Inten    --     18.7738                16.5281                 2.5423

                     34                     35                     36
                      A                      A                      A
 Frequencies --    900.4570               905.7891               930.2166
 Red. masses --      1.3051                 1.4082                 1.3599
 Frc consts  --      0.6235                 0.6807                 0.6933
 IR Inten    --      0.6307                71.1065                16.1612

                     37                     38                     39
                      A                      A                      A
 Frequencies --    975.4318               990.4905              1007.0076
 Red. masses --      1.2825                 2.1900                 1.9550
 Frc consts  --      0.7189                 1.2659                 1.1680
 IR Inten    --      0.0242                 5.2360                55.3438

                     40                     41                     42
                      A                      A                      A
 Frequencies --   1023.1298              1045.5017              1048.7256
 Red. masses --      6.0836                 1.6958                 3.0884
 Frc consts  --      3.7521                 1.0922                 2.0013
 IR Inten    --      0.9346                 2.9996                26.8467

                     43                     44                     45
                      A                      A                      A
 Frequencies --   1076.8240              1078.9033              1126.0049
 Red. masses --      1.5465                 1.6514                 1.5686
 Frc consts  --      1.0565                 1.1326                 1.1718
 IR Inten    --     12.6754                33.3446                 2.4667

                     46                     47                     48
                      A                      A                      A
 Frequencies --   1171.2048              1183.0095              1202.7501
 Red. masses --      1.3078                 2.6066                 1.2641
 Frc consts  --      1.0570                 2.1493                 1.0774
 IR Inten    --      1.0063                14.0000                 0.3827

                     49                     50                     51
                      A                      A                      A
 Frequencies --   1208.6557              1278.0174              1282.3736
 Red. masses --      1.5529                 1.7348                 1.6882
 Frc consts  --      1.3366                 1.6694                 1.6357
 IR Inten    --     12.0545                12.4245                78.6899

                     52                     53                     54
                      A                      A                      A
 Frequencies --   1310.9939              1325.8743              1340.0715
 Red. masses --      1.2158                 1.7233                 2.3325
 Frc consts  --      1.2311                 1.7850                 2.4679
 IR Inten    --      1.7695               155.8021                 1.3802

                     55                     56                     57
                      A                      A                      A
 Frequencies --   1365.7177              1375.5485              1420.7560
 Red. masses --      2.0863                 1.7723                 1.7564
 Frc consts  --      2.2927                 1.9758                 2.0889
 IR Inten    --      2.5225                90.2513               111.1532

                     58                     59                     60
                      A                      A                      A
 Frequencies --   1440.1681              1451.6969              1459.5334
 Red. masses --      1.2514                 1.8551                 2.5710
 Frc consts  --      1.5292                 2.3034                 3.2268
 IR Inten    --      1.2467                43.0415                91.4187

                     61                     62                     63
                      A                      A                      A
 Frequencies --   1488.7930              1507.2564              1517.3147
 Red. masses --      1.8880                 1.1892                 1.7974
 Frc consts  --      2.4656                 1.5917                 2.4380
 IR Inten    --      4.9130                 2.4104                23.6874

                     64                     65                     66
                      A                      A                      A
 Frequencies --   1520.3010              1527.5650              1540.9194
 Red. masses --      1.0552                 1.2892                 1.0874
 Frc consts  --      1.4369                 1.7724                 1.5213
 IR Inten    --      4.1373                 5.5261                 3.2015

                     67                     68                     69
                      A                      A                      A
 Frequencies --   1552.0925              1649.8925              1668.5155
 Red. masses --      2.3656                 5.5774                 5.7147
 Frc consts  --      3.3576                 8.9453                 9.3735
 IR Inten    --     54.5444                33.4519                46.2997

                     70                     71                     72
                      A                      A                      A
 Frequencies --   1694.3045              1785.7485              1794.8542
 Red. masses --      1.0913                 8.7412                 7.7077
 Frc consts  --      1.8457                16.4234                14.6296
 IR Inten    --     44.2935               682.4713               183.5443

                     73                     74                     75
                      A                      A                      A
 Frequencies --   2997.4886              3042.9260              3045.9441
 Red. masses --      1.0741                 1.0586                 1.0397
 Frc consts  --      5.6861                 5.7750                 5.6832
 IR Inten    --     36.9305                41.1163                26.7838

                     76                     77                     78
                      A                      A                      A
 Frequencies --   3088.1871              3103.6063              3131.7887
 Red. masses --      1.1063                 1.0967                 1.1026
 Frc consts  --      6.2164                 6.2238                 6.3718
 IR Inten    --     32.3868                17.7913                15.7409

                     79                     80                     81
                      A                      A                      A
 Frequencies --   3183.7669              3190.8162              3195.7851
 Red. masses --      1.0868                 1.0873                 1.0905
 Frc consts  --      6.4908                 6.5222                 6.5617
 IR Inten    --      4.0509                 7.1933                18.0596

                     82                     83                     84
                      A                      A                      A
 Frequencies --   3208.0395              3210.5792              3463.3894
 Red. masses --      1.0916                 1.0964                 1.0499
 Frc consts  --      6.6189                 6.6584                 7.4202
 IR Inten    --      2.9615                16.8441                 0.9926

                     85                     86                     87
                      A                      A                      A
 Frequencies --   3546.1405              3563.8438              3579.6131
 Red. masses --      1.0926                 1.0751                 1.0754
 Frc consts  --      8.0950                 8.0452                 8.1185
 IR Inten    --      0.6564                59.8719                30.4044

 - Thermochemistry -
 -------------------
 Temperature   298.150 Kelvin.  Pressure   1.00000 Atm.
 Atom     1 has atomic number  6 and mass  12.00000

 Molecular mass:   221.11643 amu.
 Principal axes and moments of inertia in atomic units:
                           1         2         3
     Eigenvalues --  2297.544935527.872567330.83646
           X            1.00000  -0.00056  -0.00014
           Y            0.00056   0.99990   0.01398
           Z            0.00013  -0.01398   0.99990
 This molecule is an asymmetric top.
 Rotational symmetry number  1.
 Warning -- assumption of classical behavior for rotation
           may cause significant error
 Rotational temperatures (Kelvin)      0.03770     0.01567     0.01182
 Rotational constants (GHZ):           0.78551     0.32648     0.24618
 Zero-point vibrational energy     677479.4 (Joules/Mol)
                                  161.92145 (Kcal/Mol)
 Warning -- explicit consideration of  24 degrees of freedom as
           vibrations may cause significant error
 Vibrational temperatures:     33.83    42.38    64.66    94.60   104.67
          (Kelvin)            111.52   133.88   175.12   291.60   311.71
                              327.27   380.48   409.15   428.17   480.58
                              566.04   582.73   654.22   686.71   711.09
                              746.23   766.30   820.36   881.88   916.72
                              947.09   974.61  1029.40  1068.35  1106.23
                             1165.18  1207.35  1262.90  1295.56  1303.23
                             1338.37  1403.43  1425.09  1448.86  1472.06
                             1504.24  1508.88  1549.31  1552.30  1620.07
                             1685.10  1702.09  1730.49  1738.99  1838.78
                             1845.05  1886.23  1907.64  1928.06  1964.96
                             1979.11  2044.15  2072.08  2088.67  2099.94
                             2142.04  2168.61  2183.08  2187.37  2197.83
                             2217.04  2233.11  2373.83  2400.62  2437.73
                             2569.29  2582.39  4312.72  4378.09  4382.43
                             4443.21  4465.40  4505.95  4580.73  4590.87
                             4598.02  4615.65  4619.31  4983.04  5102.11
                             5127.58  5150.26

 Zero-point correction=                           0.258038 (Hartree/Particle)
 Thermal correction to Energy=                    0.274244
 Thermal correction to Enthalpy=                  0.275189
 Thermal correction to Gibbs Free Energy=         0.211891
 Sum of electronic and zero-point Energies=           -742.723767
 Sum of electronic and thermal Energies=              -742.707561
 Sum of electronic and thermal Enthalpies=            -742.706617
 Sum of electronic and thermal Free Energies=         -742.769914

                     E (Thermal)             CV                S
                      KCal/Mol        Cal/Mol-Kelvin    Cal/Mol-Kelvin
 Total                  172.091             59.275            133.221
 Electronic               0.000              0.000              0.000
 Translational            0.889              2.981             42.083
 Rotational               0.889              2.981             32.898
 Vibrational            170.314             53.313             58.240
 Vibration     1          0.593              1.985              6.313
 Vibration     2          0.593              1.984              5.866
 Vibration     3          0.595              1.979              5.028
 Vibration     4          0.597              1.971              4.277
 Vibration     5          0.599              1.967              4.077
 Vibration     6          0.599              1.964              3.953
 Vibration     7          0.602              1.954              3.595
 Vibration     8          0.609              1.931              3.073
 Vibration     9          0.639              1.836              2.109
 Vibration    10          0.645              1.816              1.987
 Vibration    11          0.651              1.799              1.899
 Vibration    12          0.671              1.738              1.632
 Vibration    13          0.683              1.703              1.507
 Vibration    14          0.691              1.678              1.430
 Vibration    15          0.716              1.608              1.241
 Vibration    16          0.761              1.484              0.987
 Vibration    17          0.770              1.459              0.944
 Vibration    18          0.813              1.350              0.782
 Vibration    19          0.834              1.300              0.717
 Vibration    20          0.850              1.263              0.673
 Vibration    21          0.874              1.209              0.613
 Vibration    22          0.888              1.178              0.581
 Vibration    23          0.926              1.096              0.504
 Vibration    24          0.972              1.004              0.428

 Optimization completed.
    -- Stationary point found.
 Normal termination of Gaussian 16 at Fri Dec 11 01:26:34 2020.

 ----------------------------------------------------------------------
 # B3LYP/6-311++G(d,p) empiricaldispersion=gd3bj scf=xqc pop=npa geom=c
 heck
 ----------------------------------------------------------------------

 --------------------------------------
 CID_60848097_JID_6845_Energie_neutraal
 --------------------------------------
 Structure from the checkpoint file:  "JID_6845.chk"
 Charge =  0 Multiplicity = 1

 SCF Done:  E(RB3LYP) =  -743.205653673     A.U. after   16 cycles
 Normal termination of Gaussian 16 at Fri Dec 11 01:31:54 2020.

 ----------------------------------------------------------------------
 # B3LYP/6-311++G(d,p) empiricaldispersion=gd3bj scf=xqc pop=npa geom=c
 heck
 ----------------------------------------------------------------------

 ------------------------------------
 CID_60848097_JID_6845_Energie_kation
 ------------------------------------
 Structure from the checkpoint file:  "JID_6845.chk"
 Charge =  1 Multiplicity = 2

 SCF Done:  E(UB3LYP) =  -742.896524522     A.U. after   32 cycles
 Normal termination of Gaussian 16 at Fri Dec 11 01:47:05 2020.
 Gaussian 16:  ES64L-G16RevA.03 25-Dec-2016

 ----------------------------------------------------------------------
 # B3LYP/6-311++G(d,p) empiricaldispersion=gd3bj scf=xqc pop=npa geom=c
 heck
 ----------------------------------------------------------------------

 -----------------------------------
 CID_60848097_JID_6845_Energie_anion
 -----------------------------------
 Structure from the checkpoint file:  "JID_6845.chk"
 Charge = -1 Multiplicity = 2

                         Standard orientation:
 ---------------------------------------------------------------------
 Center     Atomic      Atomic             Coordinates (Angstroms)
 Number     Number       Type             X           Y           Z
 ---------------------------------------------------------------------
      1          6           0        2.388684   -2.696288   -0.652078
      2          6           0        2.546897   -1.253757   -0.236897
      3          6           0        1.566941   -0.316617   -0.575226
      4          6           0        1.695793    1.023006   -0.194298
      5          6           0        2.836564    1.446562    0.493573
      6          6           0        3.832356    0.522206    0.804782
      7          6           0        3.683976   -0.819379    0.455450
      8          7           0        0.692298    1.974564   -0.529583
      9          6           0       -0.658252    1.921420   -0.301395
     10          8           0       -1.411847    2.781668   -0.738592
     11          6           0       -1.178119    0.803477    0.605102
     12          7           0       -2.605274    0.680040    0.416460
     13          6           0       -3.319761   -0.477602    0.327146
     14          8           0       -4.497216   -0.494961   -0.012198
     15          6           0       -2.585029   -1.780150    0.663712
     16          7           0       -1.649341   -2.124949   -0.424325
     17          1           0        1.332413   -2.950070   -0.784478
     18          1           0        2.897440   -2.893856   -1.604453
     19          1           0        2.817317   -3.375570    0.092283
     20          1           0        0.691853   -0.636440   -1.131974
     21          1           0        2.929416    2.487077    0.790833
     22          1           0        4.719454    0.848183    1.340170
     23          1           0        4.457394   -1.536107    0.719306
     24          1           0        0.983344    2.827130   -0.994500
     25          1           0       -0.695530   -0.146613    0.392732
     26          1           0       -0.920282    1.089813    1.637931
     27          1           0       -3.067504    1.514828    0.068786
     28          1           0       -2.005850   -1.670593    1.588222
     29          1           0       -3.369190   -2.528012    0.836531
     30          1           0       -1.240941   -3.038802   -0.233916
     31          1           0       -2.180903   -2.229481   -1.288245
 ---------------------------------------------------------------------

 SCF Done:  E(UB3LYP) =  -743.201454733     A.U. after   33 cycles
 SCF Done:  E(UB3LYP) =  -743.201454733     a.u. after    1 cycles

 The electronic state is 2-A.
 Alpha  occ. eigenvalues --  -19.00681 -18.99304 -14.25637 -14.24077 -14.21117
 Alpha  occ. eigenvalues --  -10.18992 -10.17704 -10.12252 -10.12221 -10.11016
 Alpha  occ. eigenvalues --  -10.09030 -10.08445 -10.08157 -10.07667 -10.07489
 Alpha  occ. eigenvalues --  -10.06956  -0.96038  -0.94292  -0.84868  -0.83254
 Alpha  occ. eigenvalues --   -0.79561  -0.76053  -0.68088  -0.65413  -0.64405
 Alpha  occ. eigenvalues --   -0.60597  -0.59422  -0.53867  -0.50583  -0.49492
 Alpha  occ. eigenvalues --   -0.48616  -0.43654  -0.42555  -0.40525  -0.39632
 Alpha  occ. eigenvalues --   -0.38934  -0.38187  -0.37518  -0.36247  -0.34243
 Alpha  occ. eigenvalues --   -0.34004  -0.32663  -0.32427  -0.32252  -0.31785
 Alpha  occ. eigenvalues --   -0.30473  -0.29687  -0.29027  -0.27931  -0.26833
 Alpha  occ. eigenvalues --   -0.26301  -0.25380  -0.20191  -0.18463  -0.16955
 Alpha  occ. eigenvalues --   -0.16384  -0.16121  -0.15621  -0.14373   0.03768
 Alpha virt. eigenvalues --    0.05620   0.06562   0.07137   0.07446   0.07724
 Alpha virt. eigenvalues --    0.08307   0.09303   0.09449   0.10103   0.10226
 Alpha virt. eigenvalues --    0.10685   0.11208   0.11525   0.11927   0.13058

  Beta  occ. eigenvalues --  -19.00649 -18.99284 -14.25643 -14.24072 -14.21063
  Beta  occ. eigenvalues --  -10.18943 -10.17692 -10.12244 -10.12142 -10.11001
  Beta  occ. eigenvalues --  -10.09021 -10.08440 -10.08131 -10.07651 -10.07420
  Beta  occ. eigenvalues --  -10.06920  -0.95971  -0.94257  -0.84802  -0.83231
  Beta  occ. eigenvalues --   -0.79468  -0.75982  -0.68015  -0.65308  -0.64353
  Beta  occ. eigenvalues --   -0.60512  -0.59339  -0.53754  -0.50514  -0.49422
  Beta  occ. eigenvalues --   -0.48576  -0.43586  -0.42502  -0.40467  -0.39551
  Beta  occ. eigenvalues --   -0.38866  -0.38123  -0.37453  -0.36180  -0.34187
  Beta  occ. eigenvalues --   -0.33953  -0.32590  -0.32378  -0.32203  -0.31726
  Beta  occ. eigenvalues --   -0.30378  -0.29646  -0.28962  -0.27851  -0.26712
  Beta  occ. eigenvalues --   -0.26191  -0.25321  -0.20030  -0.18426  -0.16903
  Beta  occ. eigenvalues --   -0.16306  -0.16081  -0.15503  -0.14122
  Beta virt. eigenvalues --    0.06108   0.06660   0.07041   0.07483   0.07713
  Beta virt. eigenvalues --    0.08158   0.08681   0.09702   0.09805   0.10230
  Beta virt. eigenvalues --    0.10519   0.10910   0.11442   0.11825   0.12322

 Mulliken charges and spin densities:
               1          2
     1  C    2.483309  -3.125850
     2  C   -0.962502   1.629467
     3  C   -0.216517   0.227286
     4  C   -0.304183  -0.205001
     5  C   -0.105434   0.089064
     6  C    0.115202  -0.288273
     7  C   -0.350993  -0.113614
     8  N   -0.204063   0.052200
     9  C   -0.297451   0.309337
    10  O   -0.345061   0.013798
    11  C   -0.032570  -0.299575
    12  N   -0.158658   0.033273
    13  C   -0.067197   0.051831
    14  O   -0.364746   0.015103
    15  C    0.172206  -0.552177
    16  N   -0.230653  -0.140753
    17  H   -0.048513   0.182856
    18  H    0.034239   0.127313
    19  H   -0.449207   0.597728
    20  H    0.069603   0.199681
    21  H   -0.243019   0.405423
    22  H   -0.292753   0.457778
    23  H   -0.169186   0.318009
    24  H    0.038951   0.294197
    25  H    0.973306  -0.715819
    26  H   -0.012572   0.226163
    27  H    0.303407   0.007170
    28  H   -0.100184   0.278458
    29  H   -0.091017   0.273095
    30  H   -0.251192   0.523160
    31  H    0.107450   0.128671
 Sum of Mulliken charges =  -1.00000   1.00000

 Dipole moment (field-independent basis, Debye):
    X=              1.0298    Y=              2.6715    Z=              0.2406  Tot=              2.8732
 Quadrupole moment (field-independent basis, Debye-Ang):
   XX=           -173.4031   YY=           -154.8214   ZZ=           -118.0704
   XY=              1.6113   XZ=             -6.2264   YZ=              4.4774

 Summary of Natural Population Analysis:

                                       Natural Population
                Natural  -----------------------------------------------
    Atom  No    Charge         Core      Valence    Rydberg      Total
 -----------------------------------------------------------------------
      C    1   -0.29330      0.99963     2.28753    0.00614     3.29330
      C    2   -0.00820      0.99952     1.99805    0.01062     3.00820
      C    3   -0.11061      0.99947     2.10267    0.00847     3.11061
      C    4    0.08013      0.99946     1.90897    0.01144     2.91987
      C    5   -0.11048      0.99951     2.10126    0.00971     3.11048
      C    6   -0.09448      0.99957     2.08520    0.00972     3.09448
      C    7   -0.09348      0.99951     2.08484    0.00914     3.09348
      N    8   -0.31520      0.99964     2.80522    0.01033     3.81520
      C    9    0.35246      0.99968     1.62690    0.02096     2.64754
      O   10   -0.32427      0.99988     3.31857    0.00582     4.32427
      C   11   -0.14312      0.99957     2.13368    0.00987     3.14312
      N   12   -0.31344      0.99966     2.80513    0.00865     3.81344
      C   13    0.33929      0.99968     1.63806    0.02298     2.66071
      O   14   -0.32361      0.99988     3.31793    0.00580     4.32361
      C   15   -0.13166      0.99961     2.12056    0.01149     3.13166
      N   16   -0.42358      0.99977     2.91334    0.01046     3.92358
      H   17    0.10704      0.00000     0.39127    0.00169     0.39296
      H   18    0.10241      0.00000     0.39668    0.00091     0.39759
      H   19    0.10564      0.00000     0.39264    0.00172     0.39436
      H   20    0.11160      0.00000     0.38659    0.00181     0.38840
      H   21    0.10296      0.00000     0.39570    0.00135     0.39704
      H   22    0.09981      0.00000     0.39924    0.00095     0.40019
      H   23    0.09952      0.00000     0.39945    0.00103     0.40048
      H   24    0.19991      0.00000     0.29685    0.00324     0.30009
      H   25    0.12747      0.00000     0.36995    0.00258     0.37253
      H   26    0.10203      0.00000     0.39670    0.00127     0.39797
      H   27    0.20388      0.00000     0.29323    0.00289     0.29612
      H   28    0.09642      0.00000     0.40224    0.00133     0.40358
      H   29    0.09499      0.00000     0.40364    0.00137     0.40501
      H   30    0.18308      0.00000     0.31223    0.00469     0.31692
      H   31    0.17679      0.00000     0.32132    0.00190     0.32321
 =======================================================================
   * Total *    0.00000     15.99404    42.80564    0.20033    59.00000

 Normal termination of Gaussian 16 at Fri Dec 11 02:03:11 2020.
