 Gaussian 16, Revision A.03,

 -----------------------------------------------------------
 # opt freq B3LYP/6-31G(d) empiricaldispersion=gd3bj scf=xqc
 -----------------------------------------------------------

 ------------------------------
 CID_64914349_JID_7894_neutraal
 ------------------------------
 Symbolic Z-matrix:
 Charge =  0 Multiplicity = 1

 SCF Done:  E(RB3LYP) =  -1540.91769443     A.U. after   15 cycles
 SCF Done:  E(RB3LYP) =  -1540.91072734     A.U. after   15 cycles
 SCF Done:  E(RB3LYP) =  -1540.92118636     A.U. after   13 cycles
 SCF Done:  E(RB3LYP) =  -1540.91162072     A.U. after   13 cycles
 SCF Done:  E(RB3LYP) =  -1540.91654385     A.U. after   14 cycles
 SCF Done:  E(RB3LYP) =  -1540.92311766     A.U. after   12 cycles
 SCF Done:  E(RB3LYP) =  -1540.92426181     A.U. after   12 cycles
 SCF Done:  E(RB3LYP) =  -1540.92542324     A.U. after   13 cycles
 SCF Done:  E(RB3LYP) =  -1540.92725976     A.U. after   13 cycles
 SCF Done:  E(RB3LYP) =  -1540.92911737     A.U. after   12 cycles
 SCF Done:  E(RB3LYP) =  -1540.93183116     A.U. after   11 cycles
 SCF Done:  E(RB3LYP) =  -1540.93184876     A.U. after   10 cycles
 SCF Done:  E(RB3LYP) =  -1540.93185650     A.U. after   10 cycles
 SCF Done:  E(RB3LYP) =  -1540.93185801     A.U. after    8 cycles
 SCF Done:  E(RB3LYP) =  -1540.93185828     A.U. after    8 cycles
 Optimization completed.
    -- Stationary point found.
 Normal termination of Gaussian 16 at Mon Dec 14 13:31:23 2020.

 --------------------------------------------------------------------
 #N Geom=AllCheck Guess=TCheck SCRF=Check GenChk RB3LYP/6-31G(d) Freq
 --------------------------------------------------------------------

 Structure from the checkpoint file:  "JID_7894.chk"
 ------------------------------
 CID_64914349_JID_7894_neutraal
 ------------------------------
 Charge =  0 Multiplicity = 1

 SCF Done:  E(RB3LYP) =  -1540.93185828     A.U. after    1 cycles

  Exact polarizability: 178.514  -7.499 162.251  24.988  -1.005 112.495
 Approx polarizability: 271.182  -3.582 261.228  59.836  -2.210 194.846

                      1                      2                      3
                      A                      A                      A
 Frequencies --     40.6807                43.3218                56.0873
 Red. masses --      5.8201                 8.8389                 5.4939
 Frc consts  --      0.0057                 0.0098                 0.0102
 IR Inten    --      0.1796                 1.8103                 0.9537

                      4                      5                      6
                      A                      A                      A
 Frequencies --     75.4757                96.3676               115.0705
 Red. masses --      5.7521                 7.0814                 4.6581
 Frc consts  --      0.0193                 0.0387                 0.0363
 IR Inten    --      0.9594                 1.1875                 0.7860

                      7                      8                      9
                      A                      A                      A
 Frequencies --    130.5953               162.6172               176.0564
 Red. masses --      7.4603                 5.7548                 5.2444
 Frc consts  --      0.0750                 0.0897                 0.0958
 IR Inten    --      2.0023                 1.8613                 2.2423

                     10                     11                     12
                      A                      A                      A
 Frequencies --    238.1034               255.6453               266.1349
 Red. masses --      4.6792                 1.8656                 2.5729
 Frc consts  --      0.1563                 0.0718                 0.1074
 IR Inten    --      2.4510                 1.6973                 1.9246

                     13                     14                     15
                      A                      A                      A
 Frequencies --    275.5870               285.6560               294.5219
 Red. masses --      2.5427                 5.4603                 2.5621
 Frc consts  --      0.1138                 0.2625                 0.1309
 IR Inten    --      0.4567                 1.6502                11.7147

                     16                     17                     18
                      A                      A                      A
 Frequencies --    324.3160               350.6352               415.5342
 Red. masses --      2.4149                 2.7121                 3.4724
 Frc consts  --      0.1497                 0.1965                 0.3533
 IR Inten    --      1.6676                 0.1959                 8.2088

                     19                     20                     21
                      A                      A                      A
 Frequencies --    425.7174               430.2905               457.0082
 Red. masses --      5.5878                 4.4329                 2.6773
 Frc consts  --      0.5967                 0.4836                 0.3295
 IR Inten    --      1.6631                 5.1365                 6.6959

                     22                     23                     24
                      A                      A                      A
 Frequencies --    476.9354               498.1906               527.5558
 Red. masses --      3.5329                 5.1683                 3.9236
 Frc consts  --      0.4735                 0.7558                 0.6434
 IR Inten    --     18.3024                26.1479                10.4883

                     25                     26                     27
                      A                      A                      A
 Frequencies --    544.1710               555.3955               572.8755
 Red. masses --      4.5852                 3.4523                 6.1746
 Frc consts  --      0.8000                 0.6274                 1.1939
 IR Inten    --     12.3765                27.0801                38.1426

                     28                     29                     30
                      A                      A                      A
 Frequencies --    645.5177               660.8282               684.9206
 Red. masses --      1.7888                 4.4385                 4.3944
 Frc consts  --      0.4392                 1.1420                 1.2146
 IR Inten    --    194.7532                20.7899                19.8276

                     31                     32                     33
                      A                      A                      A
 Frequencies --    719.3815               723.0309               755.7278
 Red. masses --      2.3259                 4.7341                 4.4330
 Frc consts  --      0.7092                 1.4582                 1.4917
 IR Inten    --    108.0212                10.0454               119.7552

                     34                     35                     36
                      A                      A                      A
 Frequencies --    763.8967               773.8739               797.4494
 Red. masses --      3.0984                 1.2108                 2.5524
 Frc consts  --      1.0653                 0.4272                 0.9563
 IR Inten    --     60.8818                41.1864                36.8813

                     37                     38                     39
                      A                      A                      A
 Frequencies --    856.3648               887.0862               889.0449
 Red. masses --      2.5534                 1.3321                 2.1709
 Frc consts  --      1.1033                 0.6176                 1.0110
 IR Inten    --     22.8743                 0.5534                15.6721

                     40                     41                     42
                      A                      A                      A
 Frequencies --    932.6349               970.8188              1000.0901
 Red. masses --      2.1300                 1.3360                 1.2843
 Frc consts  --      1.0916                 0.7419                 0.7568
 IR Inten    --      3.1998                 1.1645                 0.0694

                     43                     44                     45
                      A                      A                      A
 Frequencies --   1034.6107              1053.0217              1072.3821
 Red. masses --      1.5874                 6.8594                 3.3091
 Frc consts  --      1.0011                 4.4814                 2.2421
 IR Inten    --     28.9512                27.8748                 2.2967

                     46                     47                     48
                      A                      A                      A
 Frequencies --   1085.6157              1098.2665              1116.7791
 Red. masses --      1.3546                 1.4096                 2.6752
 Frc consts  --      0.9406                 1.0018                 1.9658
 IR Inten    --     36.6788                13.9550                37.0855

                     49                     50                     51
                      A                      A                      A
 Frequencies --   1126.1611              1150.5294              1168.4890
 Red. masses --      2.3561                 4.7874                 1.7579
 Frc consts  --      1.7605                 3.7337                 1.4141
 IR Inten    --     25.9699               160.1150                13.0326

                     52                     53                     54
                      A                      A                      A
 Frequencies --   1200.9149              1210.3000              1243.3626
 Red. masses --      1.1267                 2.0489                 1.2258
 Frc consts  --      0.9574                 1.7683                 1.1166
 IR Inten    --      1.1044               125.5903                22.6139

                     55                     56                     57
                      A                      A                      A
 Frequencies --   1282.8409              1293.7747              1339.3272
 Red. masses --      1.4178                 1.4534                 6.4596
 Frc consts  --      1.3747                 1.4333                 6.8270
 IR Inten    --      6.1134                 3.3177                30.1959

                     58                     59                     60
                      A                      A                      A
 Frequencies --   1344.1929              1359.2805              1361.6286
 Red. masses --      1.5424                 5.2957                 1.5582
 Frc consts  --      1.6420                 5.7649                 1.7022
 IR Inten    --     22.7703               122.6174                19.0436

                     61                     62                     63
                      A                      A                      A
 Frequencies --   1388.0944              1450.3354              1477.8526
 Red. masses --      2.0983                 1.2390                 2.0109
 Frc consts  --      2.3821                 1.5355                 2.5877
 IR Inten    --     13.8265                 3.6413                 8.1898

                     64                     65                     66
                      A                      A                      A
 Frequencies --   1484.8048              1498.4608              1523.0606
 Red. masses --      1.1350                 2.1564                 1.0438
 Frc consts  --      1.4743                 2.8529                 1.4266
 IR Inten    --     22.0662                31.3964                 8.1053

                     67                     68                     69
                      A                      A                      A
 Frequencies --   1533.1302              1611.5386              1622.9079
 Red. masses --      1.0565                 1.1109                 5.5250
 Frc consts  --      1.4631                 1.6998                 8.5738
 IR Inten    --     12.3349                72.3119                 5.3728

                     70                     71                     72
                      A                      A                      A
 Frequencies --   1639.6790              1851.8091              3043.8984
 Red. masses --      5.4125                 9.8483                 1.0828
 Frc consts  --      8.5736                19.8977                 5.9108
 IR Inten    --      8.8998               271.4406                11.2574

                     73                     74                     75
                      A                      A                      A
 Frequencies --   3073.9976              3102.7847              3137.8391
 Red. masses --      1.0382                 1.0593                 1.1030
 Frc consts  --      5.7801                 6.0084                 6.3985
 IR Inten    --     13.8833                 9.5874                17.9631

                     76                     77                     78
                      A                      A                      A
 Frequencies --   3156.0760              3166.4385              3195.9946
 Red. masses --      1.1064                 1.0992                 1.0863
 Frc consts  --      6.4933                 6.4931                 6.5377
 IR Inten    --      3.6849                14.4384                 2.4129

                     79                     80                     81
                      A                      A                      A
 Frequencies --   3211.6906              3219.4142              3237.7397
 Red. masses --      1.0901                 1.0951                 1.0929
 Frc consts  --      6.6252                 6.6874                 6.7499
 IR Inten    --     12.5026                13.0890                 4.6137

                     82                     83                     84
                      A                      A                      A
 Frequencies --   3493.1951              3615.7815              3669.9649
 Red. masses --      1.0467                 1.0990                 1.0641
 Frc consts  --      7.5250                 8.4652                 8.4438
 IR Inten    --     76.0559                66.9915                69.4202

 - Thermochemistry -
 -------------------
 Temperature   298.150 Kelvin.  Pressure   1.00000 Atm.
 Atom     1 has atomic number  6 and mass  12.00000

 Molecular mass:   275.02860 amu.
 Principal axes and moments of inertia in atomic units:
                           1         2         3
     Eigenvalues --  3231.552315556.582767162.29853
           X            0.99994  -0.01062   0.00034
           Y            0.01062   0.99994   0.00134
           Z           -0.00036  -0.00134   1.00000
 This molecule is an asymmetric top.
 Rotational symmetry number  1.
 Warning -- assumption of classical behavior for rotation
           may cause significant error
 Rotational temperatures (Kelvin)      0.02680     0.01559     0.01209
 Rotational constants (GHZ):           0.55848     0.32479     0.25198
 Zero-point vibrational energy     604707.4 (Joules/Mol)
                                  144.52853 (Kcal/Mol)
 Warning -- explicit consideration of  27 degrees of freedom as
           vibrations may cause significant error
 Vibrational temperatures:     58.53    62.33    80.70   108.59   138.65
          (Kelvin)            165.56   187.90   233.97   253.31   342.58
                              367.82   382.91   396.51   411.00   423.75
                              466.62   504.49   597.86   612.51   619.09
                              657.53   686.20   716.79   759.04   782.94
                              799.09   824.24   928.76   950.78   985.45
                             1035.03  1040.28  1087.32  1099.08  1113.43
                             1147.35  1232.12  1276.32  1279.14  1341.85
                             1396.79  1438.91  1488.57  1515.06  1542.92
                             1561.96  1580.16  1606.80  1620.29  1655.36
                             1681.20  1727.85  1741.35  1788.92  1845.72
                             1861.45  1926.99  1933.99  1955.70  1959.08
                             1997.16  2086.71  2126.30  2136.30  2155.95
                             2191.34  2205.83  2318.64  2335.00  2359.13
                             2664.34  4379.49  4422.80  4464.22  4514.65
                             4540.89  4555.80  4598.32  4620.91  4632.02
                             4658.39  5025.93  5202.30  5280.26

 Zero-point correction=                           0.230321 (Hartree/Particle)
 Thermal correction to Energy=                    0.247293
 Thermal correction to Enthalpy=                  0.248237
 Thermal correction to Gibbs Free Energy=         0.185166
 Sum of electronic and zero-point Energies=          -1540.701537
 Sum of electronic and thermal Energies=             -1540.684566
 Sum of electronic and thermal Enthalpies=           -1540.683621
 Sum of electronic and thermal Free Energies=        -1540.746692

                     E (Thermal)             CV                S
                      KCal/Mol        Cal/Mol-Kelvin    Cal/Mol-Kelvin
 Total                  155.179             64.289            132.744
 Electronic               0.000              0.000              0.000
 Translational            0.889              2.981             42.734
 Rotational               0.889              2.981             33.219
 Vibrational            153.401             58.327             56.791
 Vibration     1          0.594              1.981              5.226
 Vibration     2          0.595              1.980              5.101
 Vibration     3          0.596              1.975              4.590
 Vibration     4          0.599              1.965              4.005
 Vibration     5          0.603              1.952              3.526
 Vibration     6          0.608              1.937              3.182
 Vibration     7          0.612              1.923              2.937
 Vibration     8          0.623              1.888              2.519
 Vibration     9          0.628              1.872              2.370
 Vibration    10          0.656              1.782              1.817
 Vibration    11          0.666              1.753              1.691
 Vibration    12          0.672              1.735              1.621
 Vibration    13          0.677              1.719              1.561
 Vibration    14          0.683              1.700              1.500
 Vibration    15          0.689              1.684              1.448
 Vibration    16          0.709              1.627              1.288
 Vibration    17          0.728              1.574              1.163
 Vibration    18          0.779              1.436              0.907
 Vibration    19          0.788              1.414              0.873
 Vibration    20          0.791              1.404              0.858
 Vibration    21          0.815              1.345              0.775
 Vibration    22          0.834              1.301              0.718
 Vibration    23          0.854              1.254              0.663
 Vibration    24          0.883              1.189              0.593
 Vibration    25          0.899              1.152              0.556
 Vibration    26          0.911              1.128              0.533
 Vibration    27          0.929              1.090              0.499

                           ! Non-Optimized Parameters !
 Normal termination of Gaussian 16 at Mon Dec 14 13:43:12 2020.

 ----------------------------------------------------------------------
 # B3LYP/6-311++G(d,p) empiricaldispersion=gd3bj scf=xqc pop=npa geom=c
 heck
 ----------------------------------------------------------------------

 --------------------------------------
 CID_64914349_JID_7894_Energie_neutraal
 --------------------------------------
 Structure from the checkpoint file:  "JID_7894.chk"
 Charge =  0 Multiplicity = 1

 SCF Done:  E(RB3LYP) =  -1541.21121072     A.U. after   16 cycles
 Normal termination of Gaussian 16 at Mon Dec 14 13:49:31 2020.

 ----------------------------------------------------------------------
 # B3LYP/6-311++G(d,p) empiricaldispersion=gd3bj scf=xqc pop=npa geom=c
 heck
 ----------------------------------------------------------------------

 ------------------------------------
 CID_64914349_JID_7894_Energie_kation
 ------------------------------------
 Structure from the checkpoint file:  "JID_7894.chk"
 Charge =  1 Multiplicity = 2

 SCF Done:  E(UB3LYP) =  -1540.89690018     A.U. after   27 cycles
 Normal termination of Gaussian 16 at Mon Dec 14 14:04:21 2020.
 Gaussian 16:  ES64L-G16RevA.03 25-Dec-2016

 ----------------------------------------------------------------------
 # B3LYP/6-311++G(d,p) empiricaldispersion=gd3bj scf=xqc pop=npa geom=c
 heck
 ----------------------------------------------------------------------

 -----------------------------------
 CID_64914349_JID_7894_Energie_anion
 -----------------------------------
 Structure from the checkpoint file:  "JID_7894.chk"
 Charge = -1 Multiplicity = 2

                         Standard orientation:
 ---------------------------------------------------------------------
 Center     Atomic      Atomic             Coordinates (Angstroms)
 Number     Number       Type             X           Y           Z
 ---------------------------------------------------------------------
      1          6           0        1.651518    1.085615   -1.732625
      2          6           0        2.619671    1.015895   -0.550709
      3          6           0        2.008113    1.467256    0.791794
      4         16           0        0.671371    0.378692    1.435624
      5          6           0       -0.776699    0.991086    0.569512
      6          6           0       -1.019039    2.366456    0.464700
      7          6           0       -2.145278    2.850104   -0.197096
      8          6           0       -3.072035    1.965719   -0.748167
      9          6           0       -2.865824    0.594376   -0.626193
     10          6           0       -1.727013    0.110515    0.021097
     11         16           0       -1.575947   -1.685126    0.149424
     12          8           0       -1.279252   -1.998679    1.545171
     13          8           0       -2.730248   -2.251529   -0.548470
     14          7           0       -0.241809   -2.137707   -0.749566
     15          6           0        3.274907   -0.340190   -0.330444
     16          8           0        4.212329   -0.527987    0.409087
     17          8           0        2.687139   -1.352063   -1.024780
     18          1           0        0.801578    0.414212   -1.599322
     19          1           0        2.154635    0.813859   -2.664905
     20          1           0        1.259608    2.102431   -1.835014
     21          1           0        3.459701    1.699646   -0.734577
     22          1           0        2.778290    1.430689    1.566481
     23          1           0        1.658406    2.498477    0.716274
     24          1           0       -0.329701    3.068683    0.920862
     25          1           0       -2.304714    3.922340   -0.264380
     26          1           0       -3.955857    2.338565   -1.256023
     27          1           0       -3.575182   -0.120867   -1.026170
     28          1           0       -0.394509   -2.011793   -1.746373
     29          1           0        0.633051   -1.723579   -0.430928
     30          1           0        3.170895   -2.164689   -0.779012
 ---------------------------------------------------------------------

 SCF Done:  E(UB3LYP) =  -1541.21765429     A.U. after   33 cycles
 SCF Done:  E(UB3LYP) =  -1541.21765429     a.u. after    1 cycles

 The electronic state is 2-A.
 Alpha  occ. eigenvalues --  -88.94439 -88.74236 -19.08775 -19.02750 -18.99797
 Alpha  occ. eigenvalues --  -18.99636 -14.22262 -10.21644 -10.10783 -10.10432
 Alpha  occ. eigenvalues --  -10.08728 -10.07625 -10.06755 -10.06751 -10.06698
 Alpha  occ. eigenvalues --  -10.05593 -10.05344  -8.00540  -7.82804  -5.96840
 Alpha  occ. eigenvalues --   -5.96801  -5.96623  -5.79196  -5.78799  -5.78203
 Alpha  occ. eigenvalues --   -1.02537  -1.00230  -0.93600  -0.89358  -0.79521
 Alpha  occ. eigenvalues --   -0.75639  -0.73021  -0.67353  -0.65051  -0.62308
 Alpha  occ. eigenvalues --   -0.57731  -0.55950  -0.54264  -0.50146  -0.48472
 Alpha  occ. eigenvalues --   -0.47291  -0.42835  -0.42276  -0.40680  -0.40069
 Alpha  occ. eigenvalues --   -0.38669  -0.38431  -0.36124  -0.35478  -0.34654
 Alpha  occ. eigenvalues --   -0.33634  -0.33381  -0.32686  -0.31251  -0.30611
 Alpha  occ. eigenvalues --   -0.28733  -0.27900  -0.27336  -0.27058  -0.25713
 Alpha  occ. eigenvalues --   -0.24364  -0.23679  -0.23164  -0.21629  -0.20861
 Alpha  occ. eigenvalues --   -0.20347  -0.19501  -0.19432  -0.18500  -0.16678
 Alpha  occ. eigenvalues --   -0.14923  -0.11708   0.03806
 Alpha virt. eigenvalues --    0.05981   0.06809   0.07742   0.08175   0.08669
 Alpha virt. eigenvalues --    0.09061   0.09662   0.09971   0.11252   0.11504
 Alpha virt. eigenvalues --    0.11943   0.12519   0.13576   0.14084   0.14378

  Beta  occ. eigenvalues --  -88.94434 -88.74240 -19.08743 -19.02731 -18.99773
  Beta  occ. eigenvalues --  -18.99603 -14.22209 -10.21602 -10.10759 -10.10422
  Beta  occ. eigenvalues --  -10.08419 -10.07390 -10.06836 -10.06741 -10.06740
  Beta  occ. eigenvalues --  -10.05378 -10.05185  -8.00535  -7.82807  -5.96827
  Beta  occ. eigenvalues --   -5.96786  -5.96626  -5.79204  -5.78806  -5.78204
  Beta  occ. eigenvalues --   -1.02473  -1.00157  -0.93552  -0.89302  -0.79392
  Beta  occ. eigenvalues --   -0.75295  -0.72918  -0.67093  -0.64674  -0.62114
  Beta  occ. eigenvalues --   -0.57628  -0.55779  -0.54081  -0.50042  -0.48213
  Beta  occ. eigenvalues --   -0.47134  -0.42666  -0.42221  -0.40616  -0.39996
  Beta  occ. eigenvalues --   -0.38573  -0.38316  -0.35975  -0.35326  -0.34541
  Beta  occ. eigenvalues --   -0.33554  -0.33258  -0.32615  -0.31195  -0.30527
  Beta  occ. eigenvalues --   -0.28640  -0.27510  -0.27061  -0.26850  -0.25481
  Beta  occ. eigenvalues --   -0.24242  -0.23550  -0.23045  -0.21389  -0.20742
  Beta  occ. eigenvalues --   -0.20108  -0.19437  -0.19292  -0.18225  -0.16072
  Beta  occ. eigenvalues --   -0.13991  -0.11069
  Beta virt. eigenvalues --    0.06347   0.07219   0.07811   0.08546   0.08587
  Beta virt. eigenvalues --    0.08903   0.09225   0.09771   0.10000   0.11567
  Beta virt. eigenvalues --    0.11616   0.11986   0.12542   0.13536   0.14059

 Mulliken charges and spin densities:
               1          2
     1  C   -0.017136  -0.798246
     2  C    0.018590   0.279588
     3  C   -0.075510  -0.416636
     4  S   -0.511837   0.265283
     5  C    0.642156   0.148517
     6  C   -0.172815  -0.191737
     7  C   -0.449677   0.130790
     8  C   -0.410273   0.133320
     9  C    0.083199  -0.059714
    10  C   -0.405871   0.267701
    11  S    0.195529  -0.051470
    12  O   -0.116909   0.000118
    13  O   -0.201414   0.003503
    14  N   -0.426393  -0.044220
    15  C   -0.060749  -0.091318
    16  O   -0.259887   0.016746
    17  O   -0.196634   0.009366
    18  H    0.373611  -0.068033
    19  H   -0.004254   0.165565
    20  H   -0.110782   0.266508
    21  H   -0.357319   0.597313
    22  H    0.304275  -0.056667
    23  H   -0.025229   0.166072
    24  H    0.141537   0.008952
    25  H    0.035843   0.078223
    26  H    0.124044  -0.001739
    27  H    0.214180   0.012801
    28  H    0.169267   0.110626
    29  H    0.466936  -0.128732
    30  H    0.033522   0.247520
 Sum of Mulliken charges =  -1.00000   1.00000

 Dipole moment (field-independent basis, Debye):
    X=              0.8118    Y=              1.7086    Z=             -1.4075  Tot=              2.3578
 Quadrupole moment (field-independent basis, Debye-Ang):
   XX=           -168.3803   YY=           -151.0511   ZZ=           -136.6753
   XY=             -9.5638   XZ=              3.7529   YZ=              8.1170

 Summary of Natural Population Analysis:

                                       Natural Population
                Natural  -----------------------------------------------
    Atom  No    Charge         Core      Valence    Rydberg      Total
 -----------------------------------------------------------------------
      C    1   -0.29041      0.99965     2.28307    0.00770     3.29041
      C    2   -0.16179      0.99954     2.14970    0.01255     3.16179
      C    3   -0.24504      0.99956     2.23318    0.01230     3.24504
      S    4    0.11896      4.99956     2.86334    0.01815     7.88104
      C    5   -0.03983      0.99933     2.02732    0.01317     3.03983
      C    6   -0.12635      0.99950     2.11632    0.01053     3.12635
      C    7   -0.05779      0.99957     2.04790    0.01032     3.05779
      C    8   -0.08421      0.99956     2.07482    0.00983     3.08421
      C    9   -0.10318      0.99951     2.09394    0.00973     3.10318
      C   10   -0.10912      0.99928     2.09124    0.01860     3.10912
      S   11    1.10910      4.99923     1.78910    0.10257     6.89090
      O   12   -0.45872      0.99990     3.45347    0.00535     4.45872
      O   13   -0.47287      0.99991     3.46778    0.00518     4.47287
      N   14   -0.52291      0.99976     3.01182    0.01133     4.02291
      C   15    0.41842      0.99967     1.55496    0.02695     2.58158
      O   16   -0.30789      0.99987     3.30197    0.00605     4.30789
      O   17   -0.35099      0.99987     3.34362    0.00749     4.35099
      H   18    0.10777      0.00000     0.39060    0.00163     0.39223
      H   19    0.10057      0.00000     0.39848    0.00095     0.39943
      H   20    0.10586      0.00000     0.39289    0.00125     0.39414
      H   21    0.11531      0.00000     0.38211    0.00258     0.38469
      H   22    0.11107      0.00000     0.38794    0.00099     0.38893
      H   23    0.10607      0.00000     0.39265    0.00128     0.39393
      H   24    0.09783      0.00000     0.40112    0.00105     0.40217
      H   25    0.09372      0.00000     0.40553    0.00075     0.40628
      H   26    0.09419      0.00000     0.40502    0.00080     0.40581
      H   27    0.11351      0.00000     0.38541    0.00109     0.38649
      H   28    0.19146      0.00000     0.30647    0.00207     0.30854
      H   29    0.20488      0.00000     0.29200    0.00313     0.29512
      H   30    0.24240      0.00000     0.25341    0.00420     0.25760
 =======================================================================
   * Total *   -0.00000     24.99327    46.69719    0.30954    72.00000

 Normal termination of Gaussian 16 at Mon Dec 14 14:22:12 2020.
