 Gaussian 16, Revision A.03,

 -----------------------------------------------------------
 # opt freq B3LYP/6-31G(d) empiricaldispersion=gd3bj scf=xqc
 -----------------------------------------------------------

 -------------------------------
 CID_112677609_JID_7940_neutraal
 -------------------------------
 Symbolic Z-matrix:
 Charge =  0 Multiplicity = 1

 SCF Done:  E(RB3LYP) =  -771.248179256     A.U. after   15 cycles
 SCF Done:  E(RB3LYP) =  -771.227149334     A.U. after   14 cycles
 SCF Done:  E(RB3LYP) =  -771.252729930     A.U. after   13 cycles
 SCF Done:  E(RB3LYP) =  -771.252403275     A.U. after   13 cycles
 SCF Done:  E(RB3LYP) =  -771.254542560     A.U. after   13 cycles
 SCF Done:  E(RB3LYP) =  -771.254615152     A.U. after   12 cycles
 SCF Done:  E(RB3LYP) =  -771.255013442     A.U. after   13 cycles
 SCF Done:  E(RB3LYP) =  -771.255193862     A.U. after   11 cycles
 SCF Done:  E(RB3LYP) =  -771.255200783     A.U. after   11 cycles
 SCF Done:  E(RB3LYP) =  -771.255251538     A.U. after   12 cycles
 SCF Done:  E(RB3LYP) =  -771.255359184     A.U. after   11 cycles
 SCF Done:  E(RB3LYP) =  -771.255360302     A.U. after   11 cycles
 SCF Done:  E(RB3LYP) =  -771.255360721     A.U. after    9 cycles
 SCF Done:  E(RB3LYP) =  -771.255360751     A.U. after    7 cycles
 SCF Done:  E(RB3LYP) =  -771.255360758     A.U. after    7 cycles
 Optimization completed.
    -- Stationary point found.
 Normal termination of Gaussian 16 at Mon Dec 14 16:55:32 2020.

 --------------------------------------------------------------------
 #N Geom=AllCheck Guess=TCheck SCRF=Check GenChk RB3LYP/6-31G(d) Freq
 --------------------------------------------------------------------

 Structure from the checkpoint file:  "JID_7940.chk"
 -------------------------------
 CID_112677609_JID_7940_neutraal
 -------------------------------
 Charge =  0 Multiplicity = 1

 SCF Done:  E(RB3LYP) =  -771.255360758     A.U. after    1 cycles

  Exact polarizability: 148.318  -8.480 166.124  19.444  14.337 140.044
 Approx polarizability: 208.212 -16.590 257.898  38.201  27.546 211.996

                      1                      2                      3
                      A                      A                      A
 Frequencies --     26.0799                38.2642                52.5316
 Red. masses --      3.7351                 2.6365                 2.3762
 Frc consts  --      0.0015                 0.0023                 0.0039
 IR Inten    --      0.0215                 3.1800                 0.0265

                      4                      5                      6
                      A                      A                      A
 Frequencies --     66.1538                72.5478                80.1103
 Red. masses --      3.2005                 4.2512                 4.3854
 Frc consts  --      0.0083                 0.0132                 0.0166
 IR Inten    --      2.0922                 1.1335                 0.5244

                      7                      8                      9
                      A                      A                      A
 Frequencies --     96.8378               121.6230               156.1540
 Red. masses --      3.6786                 3.3416                 2.8060
 Frc consts  --      0.0203                 0.0291                 0.0403
 IR Inten    --      0.9117                 1.9487                 0.3962

                     10                     11                     12
                      A                      A                      A
 Frequencies --    170.3712               182.6937               200.9363
 Red. masses --      3.9679                 2.8924                 2.0725
 Frc consts  --      0.0679                 0.0569                 0.0493
 IR Inten    --      3.2655                 6.8990                 2.0754

                     13                     14                     15
                      A                      A                      A
 Frequencies --    212.8057               257.4432               280.1981
 Red. masses --      1.2754                 1.5710                 3.8805
 Frc consts  --      0.0340                 0.0613                 0.1795
 IR Inten    --      1.0810                 0.7396                 0.3239

                     16                     17                     18
                      A                      A                      A
 Frequencies --    288.6278               325.5773               332.7001
 Red. masses --      2.7979                 2.7221                 2.4400
 Frc consts  --      0.1373                 0.1700                 0.1591
 IR Inten    --      5.3047                 3.5091                 5.6427

                     19                     20                     21
                      A                      A                      A
 Frequencies --    359.4074               390.7695               430.3560
 Red. masses --      3.0018                 5.0768                 4.4314
 Frc consts  --      0.2285                 0.4567                 0.4836
 IR Inten    --      0.9807                 4.6352                 2.5155

                     22                     23                     24
                      A                      A                      A
 Frequencies --    495.8258               497.5842               534.2578
 Red. masses --      3.2619                 2.3592                 3.0079
 Frc consts  --      0.4725                 0.3441                 0.5058
 IR Inten    --      9.0912                 0.5057                 4.1934

                     25                     26                     27
                      A                      A                      A
 Frequencies --    550.0258               575.4781               590.1114
 Red. masses --      3.6037                 2.5558                 3.8125
 Frc consts  --      0.6423                 0.4987                 0.7822
 IR Inten    --      2.0214                 1.6884                 3.7021

                     28                     29                     30
                      A                      A                      A
 Frequencies --    652.5893               725.3902               763.4308
 Red. masses --      5.1276                 3.5055                 1.7316
 Frc consts  --      1.2866                 1.0868                 0.5946
 IR Inten    --     11.4226                 1.2320                22.3464

                     31                     32                     33
                      A                      A                      A
 Frequencies --    773.7311               777.9966               805.9421
 Red. masses --      1.6696                 1.5787                 3.7789
 Frc consts  --      0.5889                 0.5630                 1.4462
 IR Inten    --     23.5699                 2.9109                 5.9508

                     34                     35                     36
                      A                      A                      A
 Frequencies --    821.1954               870.6599               895.0004
 Red. masses --      1.5758                 1.4929                 2.5859
 Frc consts  --      0.6261                 0.6668                 1.2204
 IR Inten    --      3.2480                 3.4120                 1.6365

                     37                     38                     39
                      A                      A                      A
 Frequencies --    899.6507               930.6048               940.5134
 Red. masses --      2.2001                 2.0981                 1.4918
 Frc consts  --      1.0492                 1.0705                 0.7775
 IR Inten    --     19.2807                 9.4355                14.5147

                     40                     41                     42
                      A                      A                      A
 Frequencies --    943.7827               971.2122               975.8084
 Red. masses --      1.2398                 3.5259                 1.2756
 Frc consts  --      0.6507                 1.9595                 0.7157
 IR Inten    --      4.8852                41.5791                 0.8631

                     43                     44                     45
                      A                      A                      A
 Frequencies --   1011.4824              1027.8564              1071.9499
 Red. masses --      1.9014                 1.7632                 2.7390
 Frc consts  --      1.1461                 1.0975                 1.8543
 IR Inten    --     42.2757                12.2725                15.6451

                     46                     47                     48
                      A                      A                      A
 Frequencies --   1078.9320              1089.1591              1095.6999
 Red. masses --      2.7083                 2.5560                 1.7559
 Frc consts  --      1.8575                 1.7865                 1.2420
 IR Inten    --     42.7341                13.0334                 1.5676

                     49                     50                     51
                      A                      A                      A
 Frequencies --   1112.5450              1129.0974              1159.0049
 Red. masses --      2.2248                 1.9824                 1.8305
 Frc consts  --      1.6225                 1.4890                 1.4488
 IR Inten    --     16.2139                 1.3444                13.1377

                     52                     53                     54
                      A                      A                      A
 Frequencies --   1163.9064              1174.0807              1196.0597
 Red. masses --      2.1388                 4.4188                 1.1202
 Frc consts  --      1.7071                 3.5888                 0.9441
 IR Inten    --     27.4389               119.9230                10.2458

                     55                     56                     57
                      A                      A                      A
 Frequencies --   1200.2585              1242.6362              1270.6321
 Red. masses --      1.8179                 3.0220                 1.9973
 Frc consts  --      1.5430                 2.7494                 1.8999
 IR Inten    --      4.8883                89.7104               107.3166

                     58                     59                     60
                      A                      A                      A
 Frequencies --   1282.5479              1293.1899              1297.5506
 Red. masses --      1.2867                 1.2238                 1.2107
 Frc consts  --      1.2471                 1.2058                 1.2010
 IR Inten    --     24.5619                 1.5231                 3.3149

                     61                     62                     63
                      A                      A                      A
 Frequencies --   1307.6670              1322.9916              1338.0615
 Red. masses --      1.4713                 1.2059                 1.3754
 Frc consts  --      1.4823                 1.2436                 1.4509
 IR Inten    --     25.3817                 5.9576                47.5621

                     64                     65                     66
                      A                      A                      A
 Frequencies --   1354.9494              1394.1399              1396.1544
 Red. masses --      4.4228                 1.8783                 1.3396
 Frc consts  --      4.7840                 2.1510                 1.5385
 IR Inten    --      6.3340                28.7878                16.8815

                     67                     68                     69
                      A                      A                      A
 Frequencies --   1410.1955              1427.9947              1440.8883
 Red. masses --      1.3189                 1.3315                 1.2825
 Frc consts  --      1.5454                 1.5997                 1.5688
 IR Inten    --     19.8853                13.9364                 4.3949

                     70                     71                     72
                      A                      A                      A
 Frequencies --   1441.4141              1473.8989              1480.3437
 Red. masses --      1.2416                 1.4385                 1.1005
 Frc consts  --      1.5199                 1.8411                 1.4209
 IR Inten    --      4.2616                 0.9414                 7.5974

                     73                     74                     75
                      A                      A                      A
 Frequencies --   1492.5376              1509.3936              1516.2654
 Red. masses --      2.0458                 1.0793                 1.2026
 Frc consts  --      2.6852                 1.4487                 1.6290
 IR Inten    --     36.8451                 0.9541                 2.0898

                     76                     77                     78
                      A                      A                      A
 Frequencies --   1522.9719              1523.6072              1527.0969
 Red. masses --      1.0642                 1.0397                 1.0772
 Frc consts  --      1.4543                 1.4220                 1.4801
 IR Inten    --     13.3470                 4.0086                 1.3740

                     79                     80                     81
                      A                      A                      A
 Frequencies --   1528.7482              1535.0619              1541.0175
 Red. masses --      1.0635                 2.1013                 1.1127
 Frc consts  --      1.4643                 2.9173                 1.5568
 IR Inten    --      5.6312                75.7530                10.5920

                     82                     83                     84
                      A                      A                      A
 Frequencies --   1554.4793              1633.3422              1658.2798
 Red. masses --      1.0906                 6.0291                 5.7557
 Frc consts  --      1.5527                 9.4767                 9.3253
 IR Inten    --      6.3379                21.2592                45.3509

                     85                     86                     87
                      A                      A                      A
 Frequencies --   1778.8075              2967.1199              2979.5481
 Red. masses --     11.3599                 1.0690                 1.0680
 Frc consts  --     21.1779                 5.5448                 5.5860
 IR Inten    --    178.6013                52.2428               124.4630

                     88                     89                     90
                      A                      A                      A
 Frequencies --   3036.0289              3038.3273              3046.2572
 Red. masses --      1.0654                 1.0708                 1.0847
 Frc consts  --      5.7862                 5.8243                 5.9303
 IR Inten    --     15.8819                18.6493                53.2088

                     91                     92                     93
                      A                      A                      A
 Frequencies --   3053.7658              3063.2626              3065.8727
 Red. masses --      1.0406                 1.0649                 1.0387
 Frc consts  --      5.7177                 5.8874                 5.7526
 IR Inten    --     16.3230                30.2121                29.1094

                     94                     95                     96
                      A                      A                      A
 Frequencies --   3069.5167              3077.9666              3081.5942
 Red. masses --      1.0914                 1.1012                 1.0876
 Frc consts  --      6.0586                 6.1466                 6.0853
 IR Inten    --      7.2633                33.7441                27.7339

                     97                     98                     99
                      A                      A                      A
 Frequencies --   3112.5710              3128.2232              3133.4098
 Red. masses --      1.1022                 1.1039                 1.1029
 Frc consts  --      6.2915                 6.3644                 6.3800
 IR Inten    --     50.2934                36.2287                26.6149

                    100                    101                    102
                      A                      A                      A
 Frequencies --   3143.2862              3157.5767              3188.9206
 Red. masses --      1.1024                 1.0982                 1.0853
 Frc consts  --      6.4173                 6.4513                 6.5026
 IR Inten    --     20.3734                17.0455                 1.2402

                    103                    104                    105
                      A                      A                      A
 Frequencies --   3197.4467              3212.0309              3219.0335
 Red. masses --      1.0891                 1.0929                 1.0961
 Frc consts  --      6.5605                 6.6435                 6.6922
 IR Inten    --     13.9996                26.1389                11.3345

 - Thermochemistry -
 -------------------
 Temperature   298.150 Kelvin.  Pressure   1.00000 Atm.
 Atom     1 has atomic number  6 and mass  12.00000

 Molecular mass:   236.14124 amu.
 Principal axes and moments of inertia in atomic units:
                           1         2         3
     Eigenvalues --  3621.879014498.971275141.68703
           X            0.99967  -0.02561   0.00260
           Y            0.02557   0.99956   0.01507
           Z           -0.00299  -0.01500   0.99988
 This molecule is an asymmetric top.
 Rotational symmetry number  1.
 Warning -- assumption of classical behavior for rotation
           may cause significant error
 Rotational temperatures (Kelvin)      0.02391     0.01925     0.01685
 Rotational constants (GHZ):           0.49829     0.40115     0.35100
 Zero-point vibrational energy     838053.7 (Joules/Mol)
                                  200.29964 (Kcal/Mol)
 Warning -- explicit consideration of  27 degrees of freedom as
           vibrations may cause significant error
 Vibrational temperatures:     37.52    55.05    75.58    95.18   104.38
          (Kelvin)            115.26   139.33   174.99   224.67   245.13
                              262.86   289.10   306.18   370.40   403.14
                              415.27   468.43   478.68   517.11   562.23
                              619.19   713.38   715.91   768.68   791.36
                              827.98   849.04   938.93  1043.67  1098.41
                             1113.23  1119.36  1159.57  1181.52  1252.69
                             1287.71  1294.40  1338.93  1353.19  1357.89
                             1397.36  1403.97  1455.30  1478.86  1542.30
                             1552.34  1567.06  1576.47  1600.70  1624.52
                             1667.55  1674.60  1689.24  1720.86  1726.90
                             1787.88  1828.16  1845.30  1860.61  1866.89
                             1881.44  1903.49  1925.17  1949.47  2005.86
                             2008.75  2028.96  2054.57  2073.12  2073.87
                             2120.61  2129.88  2147.43  2171.68  2181.57
                             2191.22  2192.13  2197.15  2199.53  2208.61
                             2217.18  2236.55  2350.02  2385.89  2559.31
                             4269.02  4286.91  4368.17  4371.48  4382.88
                             4393.69  4407.35  4411.11  4416.35  4428.51
                             4433.73  4478.30  4500.82  4508.28  4522.49
                             4543.05  4588.15  4600.41  4621.40  4631.47

 Zero-point correction=                           0.319198 (Hartree/Particle)
 Thermal correction to Energy=                    0.337147
 Thermal correction to Enthalpy=                  0.338091
 Thermal correction to Gibbs Free Energy=         0.271962
 Sum of electronic and zero-point Energies=           -770.936163
 Sum of electronic and thermal Energies=              -770.918214
 Sum of electronic and thermal Enthalpies=            -770.917270
 Sum of electronic and thermal Free Energies=         -770.983398

                     E (Thermal)             CV                S
                      KCal/Mol        Cal/Mol-Kelvin    Cal/Mol-Kelvin
 Total                  211.563             65.972            139.179
 Electronic               0.000              0.000              0.000
 Translational            0.889              2.981             42.279
 Rotational               0.889              2.981             32.793
 Vibrational            209.785             60.011             64.106
 Vibration     1          0.593              1.985              6.107
 Vibration     2          0.594              1.982              5.347
 Vibration     3          0.596              1.977              4.720
 Vibration     4          0.598              1.970              4.265
 Vibration     5          0.599              1.967              4.083
 Vibration     6          0.600              1.963              3.888
 Vibration     7          0.603              1.951              3.517
 Vibration     8          0.609              1.931              3.074
 Vibration     9          0.620              1.896              2.596
 Vibration    10          0.625              1.879              2.431
 Vibration    11          0.630              1.863              2.301
 Vibration    12          0.638              1.839              2.125
 Vibration    13          0.644              1.821              2.019
 Vibration    14          0.667              1.750              1.679
 Vibration    15          0.680              1.710              1.532
 Vibration    16          0.685              1.695              1.482
 Vibration    17          0.710              1.624              1.282
 Vibration    18          0.715              1.610              1.247
 Vibration    19          0.734              1.556              1.125
 Vibration    20          0.758              1.490              0.997
 Vibration    21          0.792              1.404              0.857
 Vibration    22          0.851              1.259              0.669
 Vibration    23          0.853              1.255              0.664
 Vibration    24          0.889              1.174              0.578
 Vibration    25          0.905              1.140              0.544
 Vibration    26          0.932              1.084              0.494
 Vibration    27          0.947              1.053              0.467

 Optimization completed.
    -- Stationary point found.
 Normal termination of Gaussian 16 at Mon Dec 14 17:12:30 2020.

 ----------------------------------------------------------------------
 # B3LYP/6-311++G(d,p) empiricaldispersion=gd3bj scf=xqc pop=npa geom=c
 heck
 ----------------------------------------------------------------------

 ---------------------------------------
 CID_112677609_JID_7940_Energie_neutraal
 ---------------------------------------
 Structure from the checkpoint file:  "JID_7940.chk"
 Charge =  0 Multiplicity = 1

 SCF Done:  E(RB3LYP) =  -771.470893841     A.U. after   15 cycles
 Normal termination of Gaussian 16 at Mon Dec 14 17:20:46 2020.

 ----------------------------------------------------------------------
 # B3LYP/6-311++G(d,p) empiricaldispersion=gd3bj scf=xqc pop=npa geom=c
 heck
 ----------------------------------------------------------------------

 -------------------------------------
 CID_112677609_JID_7940_Energie_kation
 -------------------------------------
 Structure from the checkpoint file:  "JID_7940.chk"
 Charge =  1 Multiplicity = 2

 SCF Done:  E(UB3LYP) =  -771.176749771     A.U. after   30 cycles
 Normal termination of Gaussian 16 at Mon Dec 14 17:45:51 2020.
 Gaussian 16:  ES64L-G16RevA.03 25-Dec-2016

 ----------------------------------------------------------------------
 # B3LYP/6-311++G(d,p) empiricaldispersion=gd3bj scf=xqc pop=npa geom=c
 heck
 ----------------------------------------------------------------------

 ------------------------------------
 CID_112677609_JID_7940_Energie_anion
 ------------------------------------
 Structure from the checkpoint file:  "JID_7940.chk"
 Charge = -1 Multiplicity = 2

                         Standard orientation:
 ---------------------------------------------------------------------
 Center     Atomic      Atomic             Coordinates (Angstroms)
 Number     Number       Type             X           Y           Z
 ---------------------------------------------------------------------
      1          6           0       -1.579942    0.244949    2.421962
      2          6           0       -2.560604   -0.894168    2.137504
      3          6           0       -2.162268   -1.729275    0.928700
      4          8           0       -2.134989   -0.885301   -0.214225
      5          6           0       -1.759529   -1.557808   -1.397262
      6          6           0       -1.302886   -0.519827   -2.403300
      7          8           0       -0.012419   -0.000189   -2.068071
      8          6           0        0.087372    0.941855   -1.082367
      9          6           0       -0.634413    2.137783   -1.131675
     10          6           0       -0.410302    3.130868   -0.181257
     11          6           0        0.557542    2.955502    0.809147
     12          6           0        1.291246    1.772967    0.842945
     13          6           0        1.052615    0.743278   -0.077464
     14          6           0        1.765260   -0.570045    0.055258
     15          8           0        1.166535   -1.632812    0.011259
     16          6           0        3.275645   -0.526982    0.240357
     17          6           0        3.892056   -1.904173    0.464351
     18          1           0       -0.567436   -0.142862    2.583535
     19          1           0       -1.874594    0.807351    3.315221
     20          1           0       -1.534954    0.936715    1.578010
     21          1           0       -2.628840   -1.565912    3.003734
     22          1           0       -3.567185   -0.489717    1.970104
     23          1           0       -1.167704   -2.174937    1.075218
     24          1           0       -2.884626   -2.549147    0.774613
     25          1           0       -0.932799   -2.252947   -1.206649
     26          1           0       -2.611396   -2.125417   -1.813562
     27          1           0       -1.179466   -0.975382   -3.389608
     28          1           0       -2.045981    0.282850   -2.477242
     29          1           0       -1.358577    2.293211   -1.924241
     30          1           0       -0.983137    4.052836   -0.226964
     31          1           0        0.736722    3.730631    1.547583
     32          1           0        2.031443    1.627763    1.623945
     33          1           0        3.691293   -0.043823   -0.656185
     34          1           0        3.520173    0.155042    1.065171
     35          1           0        3.664978   -2.571026   -0.371982
     36          1           0        4.979361   -1.828906    0.567215
     37          1           0        3.488948   -2.369453    1.368983
 ---------------------------------------------------------------------

 SCF Done:  E(UB3LYP) =  -771.463442891     A.U. after   33 cycles
 SCF Done:  E(UB3LYP) =  -771.463442891     a.u. after    1 cycles

 The electronic state is 2-A.
 Alpha  occ. eigenvalues --  -19.01415 -19.00671 -18.94512 -10.10946 -10.09752
 Alpha  occ. eigenvalues --  -10.09722 -10.09619 -10.09018 -10.05808 -10.04747
 Alpha  occ. eigenvalues --  -10.04560 -10.04154 -10.04096 -10.03940 -10.03780
 Alpha  occ. eigenvalues --  -10.03745 -10.03267  -0.93710  -0.91725  -0.88375
 Alpha  occ. eigenvalues --   -0.72316  -0.67760  -0.65379  -0.64291  -0.62235
 Alpha  occ. eigenvalues --   -0.60114  -0.55951  -0.53376  -0.51311  -0.48639
 Alpha  occ. eigenvalues --   -0.47144  -0.45824  -0.41934  -0.39188  -0.38992
 Alpha  occ. eigenvalues --   -0.37579  -0.35743  -0.34870  -0.34455  -0.33287
 Alpha  occ. eigenvalues --   -0.32959  -0.32153  -0.31042  -0.30349  -0.29959
 Alpha  occ. eigenvalues --   -0.28847  -0.27425  -0.26682  -0.25535  -0.24982
 Alpha  occ. eigenvalues --   -0.24826  -0.24187  -0.23649  -0.23302  -0.22804
 Alpha  occ. eigenvalues --   -0.22177  -0.21335  -0.20699  -0.20436  -0.17125
 Alpha  occ. eigenvalues --   -0.14741  -0.12797  -0.10125  -0.10033   0.05261
 Alpha virt. eigenvalues --    0.07211   0.07734   0.08024   0.08213   0.09492
 Alpha virt. eigenvalues --    0.09748   0.10380   0.10505   0.10700   0.11416
 Alpha virt. eigenvalues --    0.11720   0.12026   0.12150   0.12948   0.13389

  Beta  occ. eigenvalues --  -19.01406 -19.00671 -18.94133 -10.10940 -10.09748
  Beta  occ. eigenvalues --  -10.09710 -10.09524 -10.08728 -10.05803 -10.04770
  Beta  occ. eigenvalues --  -10.04549 -10.04166 -10.04006 -10.03944 -10.03779
  Beta  occ. eigenvalues --  -10.03508 -10.03167  -0.93667  -0.91712  -0.87665
  Beta  occ. eigenvalues --   -0.72069  -0.67742  -0.65197  -0.64212  -0.61924
  Beta  occ. eigenvalues --   -0.59975  -0.55919  -0.53094  -0.51244  -0.48287
  Beta  occ. eigenvalues --   -0.47118  -0.45721  -0.41722  -0.39157  -0.38683
  Beta  occ. eigenvalues --   -0.37521  -0.35613  -0.34647  -0.34397  -0.33114
  Beta  occ. eigenvalues --   -0.32849  -0.32090  -0.30948  -0.30279  -0.29842
  Beta  occ. eigenvalues --   -0.28610  -0.27403  -0.26300  -0.25411  -0.24924
  Beta  occ. eigenvalues --   -0.24553  -0.23858  -0.23450  -0.23166  -0.22779
  Beta  occ. eigenvalues --   -0.22059  -0.21081  -0.20393  -0.19403  -0.16908
  Beta  occ. eigenvalues --   -0.14703  -0.11816  -0.09814  -0.09472
  Beta virt. eigenvalues --    0.07308   0.07805   0.08165   0.08256   0.09491
  Beta virt. eigenvalues --    0.09789   0.10254   0.10438   0.10559   0.10859
  Beta virt. eigenvalues --    0.11621   0.11769   0.12052   0.12179   0.13005

 Mulliken charges and spin densities:
               1          2
     1  C   -0.430762   0.064944
     2  C   -0.327253  -0.188107
     3  C    0.003580  -0.112185
     4  O   -0.034540   0.011509
     5  C    0.002948  -0.270721
     6  C    0.005549  -0.253387
     7  O   -0.011144   0.002851
     8  C   -0.865967   0.234058
     9  C    0.194826  -0.261535
    10  C   -0.149581   0.058331
    11  C   -0.466735  -0.125450
    12  C   -0.354304   0.002774
    13  C    1.880215   0.188074
    14  C   -0.811413   0.244740
    15  O   -0.250280   0.121095
    16  C   -0.238765  -0.018609
    17  C   -0.368899  -0.291741
    18  H    0.140309  -0.003209
    19  H    0.073109   0.057724
    20  H    0.304100  -0.098770
    21  H    0.065010   0.051884
    22  H    0.022263   0.117749
    23  H    0.173063   0.002627
    24  H   -0.021936   0.141051
    25  H    0.251961  -0.039838
    26  H   -0.395712   0.506628
    27  H   -0.016400   0.162186
    28  H    0.073795   0.067941
    29  H   -0.044707   0.169785
    30  H    0.036609   0.076236
    31  H    0.105899   0.027450
    32  H    0.084315   0.016187
    33  H    0.047320   0.127759
    34  H    0.141827  -0.023000
    35  H    0.098371   0.051304
    36  H   -0.009597   0.130163
    37  H    0.092925   0.051500
 Sum of Mulliken charges =  -1.00000   1.00000

 Dipole moment (field-independent basis, Debye):
    X=             -0.1549    Y=              0.5950    Z=              1.7679  Tot=              1.8718
 Quadrupole moment (field-independent basis, Debye-Ang):
   XX=           -145.7016   YY=           -137.0884   ZZ=           -124.4245
   XY=              1.1160   XZ=              0.9614   YZ=             -0.6512

 Summary of Natural Population Analysis:

                                       Natural Population
                Natural  -----------------------------------------------
    Atom  No    Charge         Core      Valence    Rydberg      Total
 -----------------------------------------------------------------------
      C    1   -0.28887      0.99966     2.28395    0.00526     3.28887
      C    2   -0.19599      0.99964     2.18904    0.00731     3.19599
      C    3   -0.01119      0.99958     1.99831    0.01329     3.01119
      O    4   -0.30431      0.99987     3.29335    0.01109     4.30431
      C    5   -0.02536      0.99958     2.01316    0.01262     3.02536
      C    6   -0.01381      0.99955     2.00131    0.01295     3.01381
      O    7   -0.28422      0.99985     3.27489    0.00947     4.28422
      C    8    0.19165      0.99933     1.79499    0.01402     2.80835
      C    9   -0.13763      0.99951     2.12797    0.01014     3.13763
      C   10   -0.05695      0.99958     2.04791    0.00946     3.05695
      C   11   -0.13383      0.99957     2.12383    0.01044     3.13383
      C   12   -0.06815      0.99954     2.06052    0.00809     3.06815
      C   13   -0.06769      0.99942     2.05578    0.01248     3.06769
      C   14    0.32050      0.99963     1.65859    0.02127     2.67950
      O   15   -0.26775      0.99987     3.26172    0.00616     4.26775
      C   16   -0.23215      0.99961     2.22598    0.00656     3.23215
      C   17   -0.28515      0.99967     2.27981    0.00566     3.28515
      H   18    0.09930      0.00000     0.39966    0.00104     0.40070
      H   19    0.08958      0.00000     0.40961    0.00081     0.41042
      H   20    0.11250      0.00000     0.38506    0.00244     0.38750
      H   21    0.09042      0.00000     0.40856    0.00102     0.40958
      H   22    0.09276      0.00000     0.40580    0.00143     0.40724
      H   23    0.09254      0.00000     0.40590    0.00156     0.40746
      H   24    0.07249      0.00000     0.42614    0.00137     0.42751
      H   25    0.10023      0.00000     0.39822    0.00155     0.39977
      H   26    0.07406      0.00000     0.42396    0.00198     0.42594
      H   27    0.08824      0.00000     0.41076    0.00100     0.41176
      H   28    0.08441      0.00000     0.41400    0.00159     0.41559
      H   29    0.09583      0.00000     0.40248    0.00169     0.40417
      H   30    0.09093      0.00000     0.40823    0.00084     0.40907
      H   31    0.09337      0.00000     0.40575    0.00088     0.40663
      H   32    0.09208      0.00000     0.40668    0.00123     0.40792
      H   33    0.10474      0.00000     0.39353    0.00173     0.39526
      H   34    0.09886      0.00000     0.39974    0.00139     0.40114
      H   35    0.10150      0.00000     0.39710    0.00140     0.39850
      H   36    0.08907      0.00000     0.40969    0.00124     0.41093
      H   37    0.09796      0.00000     0.40077    0.00126     0.40204
 =======================================================================
   * Total *   -0.00000     16.99347    46.80278    0.20375    64.00000

 Normal termination of Gaussian 16 at Mon Dec 14 18:12:54 2020.
