 Gaussian 16, Revision A.03,

 -----------------------------------------------------------
 # opt freq B3LYP/6-31G(d) empiricaldispersion=gd3bj scf=xqc
 -----------------------------------------------------------

 ------------------------------
 CID_88706729_JID_4071_neutraal
 ------------------------------
 Symbolic Z-matrix:
 Charge =  0 Multiplicity = 1

 SCF Done:  E(RB3LYP) =  -653.250673091     A.U. after   14 cycles
 SCF Done:  E(RB3LYP) =  -653.258413982     A.U. after   12 cycles
 SCF Done:  E(RB3LYP) =  -653.259193525     A.U. after   12 cycles
 SCF Done:  E(RB3LYP) =  -653.259311065     A.U. after   11 cycles
 SCF Done:  E(RB3LYP) =  -653.259336073     A.U. after   10 cycles
 SCF Done:  E(RB3LYP) =  -653.259346056     A.U. after   10 cycles
 SCF Done:  E(RB3LYP) =  -653.259357274     A.U. after   11 cycles
 SCF Done:  E(RB3LYP) =  -653.259364425     A.U. after   11 cycles
 SCF Done:  E(RB3LYP) =  -653.259370963     A.U. after   10 cycles
 SCF Done:  E(RB3LYP) =  -653.259376176     A.U. after   11 cycles
 SCF Done:  E(RB3LYP) =  -653.259379140     A.U. after    9 cycles
 SCF Done:  E(RB3LYP) =  -653.259379695     A.U. after   10 cycles
 SCF Done:  E(RB3LYP) =  -653.259379957     A.U. after    7 cycles
 SCF Done:  E(RB3LYP) =  -653.259380186     A.U. after    8 cycles
 SCF Done:  E(RB3LYP) =  -653.259380235     A.U. after    6 cycles
 Optimization completed.
    -- Stationary point found.
 Normal termination of Gaussian 16 at Thu Dec 10 09:16:07 2020.

 --------------------------------------------------------------------
 #N Geom=AllCheck Guess=TCheck SCRF=Check GenChk RB3LYP/6-31G(d) Freq
 --------------------------------------------------------------------

 Structure from the checkpoint file:  "JID_4071.chk"
 ------------------------------
 CID_88706729_JID_4071_neutraal
 ------------------------------
 Charge =  0 Multiplicity = 1

 SCF Done:  E(RB3LYP) =  -653.259380235     A.U. after    1 cycles

  Exact polarizability: 160.882  18.480  97.653   2.485  -7.411 107.905
 Approx polarizability: 207.267  36.394 141.256  10.359 -19.510 186.334

                      1                      2                      3
                      A                      A                      A
 Frequencies --     15.1884                36.6505                48.0257
 Red. masses --      3.7714                 4.5117                 3.5728
 Frc consts  --      0.0005                 0.0036                 0.0049
 IR Inten    --      0.5139                 0.2201                 3.2709

                      4                      5                      6
                      A                      A                      A
 Frequencies --     83.9368               127.6724               141.9147
 Red. masses --      3.3773                 4.8327                 4.4039
 Frc consts  --      0.0140                 0.0464                 0.0523
 IR Inten    --      4.1826                 2.5447                 3.7873

                      7                      8                      9
                      A                      A                      A
 Frequencies --    186.5465               217.8147               236.8947
 Red. masses --      1.3857                 1.8941                 2.8454
 Frc consts  --      0.0284                 0.0529                 0.0941
 IR Inten    --      0.8094                 0.0723                 4.5353

                     10                     11                     12
                      A                      A                      A
 Frequencies --    259.6443               284.0862               348.1242
 Red. masses --      1.3329                 2.7615                 3.0924
 Frc consts  --      0.0529                 0.1313                 0.2208
 IR Inten    --      0.1716                 3.2821                 5.2391

                     13                     14                     15
                      A                      A                      A
 Frequencies --    354.9998               413.3770               425.7172
 Red. masses --      3.0436                 4.2480                 3.1220
 Frc consts  --      0.2260                 0.4277                 0.3334
 IR Inten    --      1.6584                 2.8574                 0.8503

                     16                     17                     18
                      A                      A                      A
 Frequencies --    454.0269               500.5836               527.1635
 Red. masses --      3.3966                 4.1219                 3.1242
 Frc consts  --      0.4125                 0.6086                 0.5115
 IR Inten    --      4.8215                 2.3241                 8.7802

                     19                     20                     21
                      A                      A                      A
 Frequencies --    585.8939               605.7259               654.6224
 Red. masses --      5.6587                 3.6813                 6.7853
 Frc consts  --      1.1445                 0.7958                 1.7132
 IR Inten    --     12.1515                21.9894                 1.7862

                     22                     23                     24
                      A                      A                      A
 Frequencies --    719.6989               765.3583               769.4806
 Red. masses --      3.9870                 4.9194                 4.2947
 Frc consts  --      1.2168                 1.6978                 1.4982
 IR Inten    --      2.2781                40.1250                23.2033

                     25                     26                     27
                      A                      A                      A
 Frequencies --    825.9496               842.6110               860.1973
 Red. masses --      1.3402                 1.9798                 3.1085
 Frc consts  --      0.5387                 0.8282                 1.3552
 IR Inten    --     11.8071                27.5455                23.5084

                     28                     29                     30
                      A                      A                      A
 Frequencies --    894.0739               940.1251               952.8407
 Red. masses --      1.9449                 1.4454                 2.3209
 Frc consts  --      0.9160                 0.7527                 1.2415
 IR Inten    --     21.7940                 9.2931                30.1125

                     31                     32                     33
                      A                      A                      A
 Frequencies --    962.7586               990.8564              1021.9169
 Red. masses --      1.3351                 3.0792                 1.8790
 Frc consts  --      0.7291                 1.7812                 1.1562
 IR Inten    --      1.0871                 9.5250                 5.1577

                     34                     35                     36
                      A                      A                      A
 Frequencies --   1037.7145              1055.0992              1082.5214
 Red. masses --      2.4376                 1.6045                 6.2483
 Frc consts  --      1.5466                 1.0524                 4.3141
 IR Inten    --      0.6488                72.9228                52.4337

                     37                     38                     39
                      A                      A                      A
 Frequencies --   1122.8200              1148.0808              1153.0600
 Red. masses --      1.9746                 1.4982                 2.7765
 Frc consts  --      1.4668                 1.1635                 2.1750
 IR Inten    --     13.3473                59.8352               199.7826

                     40                     41                     42
                      A                      A                      A
 Frequencies --   1171.6153              1186.5337              1186.6108
 Red. masses --      1.5032                 1.2858                 1.9056
 Frc consts  --      1.2157                 1.0665                 1.5809
 IR Inten    --      5.7463                 2.1571                14.8614

                     43                     44                     45
                      A                      A                      A
 Frequencies --   1210.6900              1220.1485              1242.1943
 Red. masses --      1.1703                 1.3838                 3.0099
 Frc consts  --      1.0107                 1.2138                 2.7364
 IR Inten    --     24.5590                 9.0809                13.9259

                     46                     47                     48
                      A                      A                      A
 Frequencies --   1287.1039              1304.1269              1304.6529
 Red. masses --      1.5091                 2.1994                 1.6285
 Frc consts  --      1.4730                 2.2040                 1.6332
 IR Inten    --     70.1994               129.8020               109.2426

                     49                     50                     51
                      A                      A                      A
 Frequencies --   1349.9342              1375.9596              1380.0702
 Red. masses --      1.4095                 2.7822                 1.2474
 Frc consts  --      1.5134                 3.1035                 1.3998
 IR Inten    --     16.9339                33.8328                 9.5781

                     52                     53                     54
                      A                      A                      A
 Frequencies --   1415.1736              1440.2457              1472.1496
 Red. masses --      1.4185                 1.2719                 2.8311
 Frc consts  --      1.6737                 1.5544                 3.6150
 IR Inten    --     33.5070                 8.2816                 1.3218

                     55                     56                     57
                      A                      A                      A
 Frequencies --   1499.8304              1500.1921              1520.9309
 Red. masses --      1.3852                 1.1962                 1.1141
 Frc consts  --      1.8359                 1.5862                 1.5184
 IR Inten    --      7.2032                13.3498                10.1775

                     58                     59                     60
                      A                      A                      A
 Frequencies --   1521.1107              1527.1214              1535.7200
 Red. masses --      1.0477                 1.0964                 1.0626
 Frc consts  --      1.4283                 1.5065                 1.4765
 IR Inten    --      5.4660                 3.9794                38.2203

                     61                     62                     63
                      A                      A                      A
 Frequencies --   1541.3843              1569.5067              1639.2225
 Red. masses --      1.6526                 2.4655                 6.4545
 Frc consts  --      2.3133                 3.5783                10.2185
 IR Inten    --     17.0770                80.9934                19.9597

                     64                     65                     66
                      A                      A                      A
 Frequencies --   1678.7591              3026.4732              3053.1037
 Red. masses --      5.7864                 1.0348                 1.0357
 Frc consts  --      9.6081                 5.5843                 5.6881
 IR Inten    --     75.3162                54.0677                21.8777

                     67                     68                     69
                      A                      A                      A
 Frequencies --   3057.0956              3085.2937              3110.9903
 Red. masses --      1.0609                 1.1066                 1.1052
 Frc consts  --      5.8418                 6.2066                 6.3019
 IR Inten    --     39.6351                42.9810                20.7905

                     70                     71                     72
                      A                      A                      A
 Frequencies --   3117.2839              3125.4286              3129.3653
 Red. masses --      1.1020                 1.0949                 1.0894
 Frc consts  --      6.3093                 6.3015                 6.2856
 IR Inten    --     20.1290                 1.9527                17.0631

                     73                     74                     75
                      A                      A                      A
 Frequencies --   3143.3640              3160.3492              3184.9696
 Red. masses --      1.0947                 1.0998                 1.0894
 Frc consts  --      6.3730                 6.4718                 6.5112
 IR Inten    --     52.2794                27.3207                12.0496

                     76                     77                     78
                      A                      A                      A
 Frequencies --   3192.1271              3216.9058              3229.6771
 Red. masses --      1.0884                 1.0937                 1.0912
 Frc consts  --      6.5344                 6.6684                 6.7060
 IR Inten    --      8.5085                 8.0581                11.0662

 - Thermochemistry -
 -------------------
 Temperature   298.150 Kelvin.  Pressure   1.00000 Atm.
 Atom     1 has atomic number  6 and mass  12.00000

 Molecular mass:   194.09429 amu.
 Principal axes and moments of inertia in atomic units:
                           1         2         3
     Eigenvalues --  1228.630266120.246006451.33835
           X            0.99993  -0.00153  -0.01144
           Y            0.00167   0.99993   0.01198
           Z            0.01142  -0.01200   0.99986
 This molecule is an asymmetric top.
 Rotational symmetry number  1.
 Warning -- assumption of classical behavior for rotation
           may cause significant error
 Rotational temperatures (Kelvin)      0.07050     0.01415     0.01343
 Rotational constants (GHZ):           1.46891     0.29488     0.27975
 Zero-point vibrational energy     613488.0 (Joules/Mol)
                                  146.62715 (Kcal/Mol)
 Warning -- explicit consideration of  20 degrees of freedom as
           vibrations may cause significant error
 Vibrational temperatures:     21.85    52.73    69.10   120.77   183.69
          (Kelvin)            204.18   268.40   313.39   340.84   373.57
                              408.74   500.87   510.77   594.76   612.51
                              653.24   720.23   758.47   842.97   871.50
                              941.86  1035.49  1101.18  1107.11  1188.36
                             1212.33  1237.63  1286.37  1352.63  1370.93
                             1385.19  1425.62  1470.31  1493.04  1518.05
                             1557.51  1615.49  1651.83  1659.00  1685.69
                             1707.16  1707.27  1741.91  1755.52  1787.24
                             1851.86  1876.35  1877.10  1942.25  1979.70
                             1985.61  2036.12  2072.19  2118.09  2157.92
                             2158.44  2188.28  2188.54  2197.19  2209.56
                             2217.71  2258.17  2358.48  2415.36  4354.42
                             4392.74  4398.48  4439.05  4476.02  4485.08
                             4496.79  4502.46  4522.60  4547.04  4582.46
                             4592.76  4628.41  4646.78

 Zero-point correction=                           0.233665 (Hartree/Particle)
 Thermal correction to Energy=                    0.247310
 Thermal correction to Enthalpy=                  0.248254
 Thermal correction to Gibbs Free Energy=         0.190988
 Sum of electronic and zero-point Energies=           -653.025715
 Sum of electronic and thermal Energies=              -653.012070
 Sum of electronic and thermal Enthalpies=            -653.011126
 Sum of electronic and thermal Free Energies=         -653.068392

                     E (Thermal)             CV                S
                      KCal/Mol        Cal/Mol-Kelvin    Cal/Mol-Kelvin
 Total                  155.189             50.525            120.527
 Electronic               0.000              0.000              0.000
 Translational            0.889              2.981             41.695
 Rotational               0.889              2.981             32.251
 Vibrational            153.412             44.564             46.582
 Vibration     1          0.593              1.986              7.181
 Vibration     2          0.594              1.982              5.432
 Vibration     3          0.595              1.978              4.897
 Vibration     4          0.601              1.960              3.797
 Vibration     5          0.611              1.926              2.981
 Vibration     6          0.615              1.911              2.778
 Vibration     7          0.632              1.858              2.262
 Vibration     8          0.646              1.814              1.977
 Vibration     9          0.656              1.784              1.826
 Vibration    10          0.668              1.746              1.664
 Vibration    11          0.682              1.703              1.509
 Vibration    12          0.726              1.579              1.175
 Vibration    13          0.731              1.565              1.144
 Vibration    14          0.777              1.441              0.915
 Vibration    15          0.788              1.414              0.873
 Vibration    16          0.812              1.352              0.784
 Vibration    17          0.856              1.249              0.657
 Vibration    18          0.882              1.190              0.594
 Vibration    19          0.943              1.062              0.475
 Vibration    20          0.964              1.020              0.440

                           ! Non-Optimized Parameters !
 Normal termination of Gaussian 16 at Thu Dec 10 09:22:33 2020.

 ----------------------------------------------------------------------
 # B3LYP/6-311++G(d,p) empiricaldispersion=gd3bj scf=xqc pop=npa geom=c
 heck
 ----------------------------------------------------------------------

 --------------------------------------
 CID_88706729_JID_4071_Energie_neutraal
 --------------------------------------
 Structure from the checkpoint file:  "JID_4071.chk"
 Charge =  0 Multiplicity = 1

 SCF Done:  E(RB3LYP) =  -653.443323962     A.U. after   14 cycles
 Normal termination of Gaussian 16 at Thu Dec 10 09:25:00 2020.

 ----------------------------------------------------------------------
 # B3LYP/6-311++G(d,p) empiricaldispersion=gd3bj scf=xqc pop=npa geom=c
 heck
 ----------------------------------------------------------------------

 ------------------------------------
 CID_88706729_JID_4071_Energie_kation
 ------------------------------------
 Structure from the checkpoint file:  "JID_4071.chk"
 Charge =  1 Multiplicity = 2

 SCF Done:  E(UB3LYP) =  -653.143935738     A.U. after   23 cycles
 Normal termination of Gaussian 16 at Thu Dec 10 09:30:02 2020.
 Gaussian 16:  ES64L-G16RevA.03 25-Dec-2016

 ----------------------------------------------------------------------
 # B3LYP/6-311++G(d,p) empiricaldispersion=gd3bj scf=xqc pop=npa geom=c
 heck
 ----------------------------------------------------------------------

 -----------------------------------
 CID_88706729_JID_4071_Energie_anion
 -----------------------------------
 Structure from the checkpoint file:  "JID_4071.chk"
 Charge = -1 Multiplicity = 2

                         Standard orientation:
 ---------------------------------------------------------------------
 Center     Atomic      Atomic             Coordinates (Angstroms)
 Number     Number       Type             X           Y           Z
 ---------------------------------------------------------------------
      1          6           0        4.211806   -1.923875   -0.675761
      2          6           0        3.807993   -0.551913   -0.204798
      3          6           0        2.417796   -0.109113   -0.143710
      4          8           0        3.092669   -0.486009    1.055619
      5          8           0        2.156084    1.233926   -0.317653
      6          6           0        1.114527    1.721556    0.548078
      7          6           0       -0.228724    1.094698    0.269419
      8          6           0       -0.814192    1.208378   -1.002034
      9          6           0       -2.041632    0.627033   -1.277814
     10          6           0       -2.720784   -0.089099   -0.278909
     11          6           0       -2.150245   -0.217760    0.990504
     12          6           0       -0.907976    0.370453    1.247019
     13          8           0       -3.921902   -0.619925   -0.647144
     14          6           0       -4.648891   -1.352566    0.324953
     15          1           0        3.379958   -2.628459   -0.580528
     16          1           0        5.049850   -2.303254   -0.080349
     17          1           0        4.527193   -1.892004   -1.725215
     18          1           0        4.552966    0.237483   -0.314288
     19          1           0        1.597906   -0.774075   -0.420647
     20          1           0        1.406803    1.559544    1.592688
     21          1           0        1.095721    2.798961    0.359014
     22          1           0       -0.289447    1.754040   -1.781741
     23          1           0       -2.502399    0.711250   -2.256769
     24          1           0       -2.650268   -0.771842    1.775835
     25          1           0       -0.463180    0.256416    2.232555
     26          1           0       -4.087448   -2.230829    0.669826
     27          1           0       -4.905556   -0.727766    1.190530
     28          1           0       -5.564984   -1.680146   -0.169174
 ---------------------------------------------------------------------

 SCF Done:  E(UB3LYP) =  -653.428624381     A.U. after   33 cycles
 SCF Done:  E(UB3LYP) =  -653.428624381     a.u. after    1 cycles

 The electronic state is 2-A.
 Alpha  occ. eigenvalues --  -19.06234 -19.05450 -19.04783 -10.18167 -10.14734
 Alpha  occ. eigenvalues --  -10.14303 -10.13963 -10.12205 -10.09075 -10.09056
 Alpha  occ. eigenvalues --  -10.08881 -10.08539 -10.08375 -10.08346  -1.01200
 Alpha  occ. eigenvalues --   -0.97841  -0.94526  -0.77149  -0.68811  -0.66548
 Alpha  occ. eigenvalues --   -0.66462  -0.63171  -0.59531  -0.54178  -0.52907
 Alpha  occ. eigenvalues --   -0.51957  -0.49157  -0.44842  -0.43907  -0.41295
 Alpha  occ. eigenvalues --   -0.40013  -0.38704  -0.37506  -0.37198  -0.35962
 Alpha  occ. eigenvalues --   -0.35534  -0.33924  -0.33514  -0.32240  -0.31196
 Alpha  occ. eigenvalues --   -0.29937  -0.29255  -0.28558  -0.27611  -0.26103
 Alpha  occ. eigenvalues --   -0.24003  -0.23196  -0.21288  -0.20163  -0.19454
 Alpha  occ. eigenvalues --   -0.17120  -0.13665   0.04251
 Alpha virt. eigenvalues --    0.05567   0.06697   0.07080   0.07463   0.07771
 Alpha virt. eigenvalues --    0.08344   0.08737   0.09212   0.09515   0.09756
 Alpha virt. eigenvalues --    0.10628   0.11275   0.11934   0.12359   0.13666

  Beta  occ. eigenvalues --  -19.06222 -19.05449 -19.04779 -10.18162 -10.14735
  Beta  occ. eigenvalues --  -10.14297 -10.13959 -10.12141 -10.09069 -10.09049
  Beta  occ. eigenvalues --  -10.08881 -10.08536 -10.08355 -10.08309  -1.01194
  Beta  occ. eigenvalues --   -0.97815  -0.94521  -0.77138  -0.68795  -0.66521
  Beta  occ. eigenvalues --   -0.66428  -0.63131  -0.59480  -0.54147  -0.52876
  Beta  occ. eigenvalues --   -0.51922  -0.49128  -0.44808  -0.43875  -0.41269
  Beta  occ. eigenvalues --   -0.39988  -0.38678  -0.37470  -0.37176  -0.35937
  Beta  occ. eigenvalues --   -0.35504  -0.33901  -0.33477  -0.32192  -0.31167
  Beta  occ. eigenvalues --   -0.29907  -0.29232  -0.28533  -0.27582  -0.26084
  Beta  occ. eigenvalues --   -0.23960  -0.23172  -0.21276  -0.20158  -0.19438
  Beta  occ. eigenvalues --   -0.17107  -0.13653
  Beta virt. eigenvalues --    0.06210   0.06746   0.07014   0.07182   0.07776
  Beta virt. eigenvalues --    0.08185   0.08560   0.09338   0.09567   0.10173
  Beta virt. eigenvalues --    0.10253   0.10970   0.11781   0.12217   0.12611

 Mulliken charges and spin densities:
               1          2
     1  C    0.890864  -1.417888
     2  C   -0.049816   0.215883
     3  C   -0.504497   0.027642
     4  O   -0.133379   0.015696
     5  O   -0.016056   0.001704
     6  C    0.213361  -0.929961
     7  C    1.308384  -0.650963
     8  C   -0.133259   0.293342
     9  C   -0.862233   0.643075
    10  C   -0.188369  -0.564251
    11  C    0.513782  -0.415957
    12  C   -0.477054   0.244828
    13  O   -0.227157   0.079916
    14  C    1.414580  -1.742761
    15  H   -0.252694   0.413299
    16  H   -0.189264   0.337069
    17  H   -0.260707   0.404281
    18  H   -0.051642   0.242021
    19  H    0.313631  -0.132451
    20  H    0.233298  -0.054074
    21  H    0.047369   0.140853
    22  H   -0.084266   0.262448
    23  H   -0.072329   0.264287
    24  H   -0.593512   0.814230
    25  H   -0.284639   0.452583
    26  H   -0.376809   0.539440
    27  H   -0.421237   0.581338
    28  H   -0.756351   0.934371
 Sum of Mulliken charges =  -1.00000   1.00000

 Dipole moment (field-independent basis, Debye):
    X=              5.0235    Y=              5.5885    Z=             -1.5434  Tot=              7.6714
 Quadrupole moment (field-independent basis, Debye-Ang):
   XX=           -201.3740   YY=           -123.4395   ZZ=           -119.6702
   XY=             -6.4741   XZ=             12.9290   YZ=              2.8515

 Summary of Natural Population Analysis:

                                       Natural Population
                Natural  -----------------------------------------------
    Atom  No    Charge         Core      Valence    Rydberg      Total
 -----------------------------------------------------------------------
      C    1   -0.29975      0.99966     2.29454    0.00555     3.29975
      C    2    0.04096      0.99957     1.94526    0.01422     2.95904
      C    3    0.18819      0.99950     1.79250    0.01981     2.81181
      O    4   -0.28830      0.99992     3.28128    0.00710     4.28830
      O    5   -0.29228      0.99988     3.28412    0.00828     4.29228
      C    6   -0.01690      0.99952     2.00569    0.01168     3.01690
      C    7   -0.06055      0.99949     2.05217    0.00889     3.06055
      C    8   -0.08909      0.99952     2.08051    0.00906     3.08909
      C    9   -0.11682      0.99952     2.10775    0.00955     3.11682
      C   10    0.16431      0.99939     1.82188    0.01442     2.83569
      C   11   -0.14105      0.99952     2.13214    0.00940     3.14105
      C   12   -0.08530      0.99952     2.07523    0.01054     3.08530
      O   13   -0.27170      0.99986     3.26139    0.01044     4.27170
      C   14   -0.10117      0.99960     2.09237    0.00920     3.10117
      H   15    0.10525      0.00000     0.39348    0.00126     0.39475
      H   16    0.10366      0.00000     0.39511    0.00124     0.39634
      H   17    0.10550      0.00000     0.39301    0.00149     0.39450
      H   18    0.09122      0.00000     0.40730    0.00148     0.40878
      H   19    0.08547      0.00000     0.41296    0.00156     0.41453
      H   20    0.09062      0.00000     0.40791    0.00147     0.40938
      H   21    0.09351      0.00000     0.40528    0.00121     0.40649
      H   22    0.10278      0.00000     0.39612    0.00110     0.39722
      H   23    0.10635      0.00000     0.39250    0.00114     0.39365
      H   24    0.11162      0.00000     0.38640    0.00199     0.38838
      H   25    0.10242      0.00000     0.39641    0.00117     0.39758
      H   26    0.08753      0.00000     0.40971    0.00276     0.41247
      H   27    0.08721      0.00000     0.40990    0.00289     0.41279
      H   28    0.09629      0.00000     0.40169    0.00202     0.40371
 =======================================================================
   * Total *    0.00000     13.99447    37.83459    0.17094    52.00000

 Normal termination of Gaussian 16 at Thu Dec 10 09:38:22 2020.
