 Gaussian 16, Revision A.03,

 -----------------------------------------------------------
 # opt freq B3LYP/6-31G(d) empiricaldispersion=gd3bj scf=xqc
 -----------------------------------------------------------

 ------------------------------
 CID_67501539_JID_5619_neutraal
 ------------------------------
 Symbolic Z-matrix:
 Charge =  0 Multiplicity = 1

 SCF Done:  E(RB3LYP) =  -739.555654404     A.U. after   15 cycles
 SCF Done:  E(RB3LYP) =  -739.560747357     A.U. after   13 cycles
 SCF Done:  E(RB3LYP) =  -739.560383080     A.U. after   14 cycles
 SCF Done:  E(RB3LYP) =  -739.562463652     A.U. after   12 cycles
 SCF Done:  E(RB3LYP) =  -739.562961181     A.U. after   12 cycles
 SCF Done:  E(RB3LYP) =  -739.563303245     A.U. after   14 cycles
 SCF Done:  E(RB3LYP) =  -739.563523455     A.U. after   12 cycles
 SCF Done:  E(RB3LYP) =  -739.563619868     A.U. after   13 cycles
 SCF Done:  E(RB3LYP) =  -739.563727133     A.U. after   13 cycles
 SCF Done:  E(RB3LYP) =  -739.564017118     A.U. after   13 cycles
 SCF Done:  E(RB3LYP) =  -739.564320291     A.U. after   12 cycles
 SCF Done:  E(RB3LYP) =  -739.564323519     A.U. after   11 cycles
 SCF Done:  E(RB3LYP) =  -739.564324027     A.U. after   11 cycles
 SCF Done:  E(RB3LYP) =  -739.564325857     A.U. after   11 cycles
 SCF Done:  E(RB3LYP) =  -739.564325976     A.U. after    8 cycles
 SCF Done:  E(RB3LYP) =  -739.564325990     A.U. after    7 cycles
 Optimization completed.
    -- Stationary point found.
 Normal termination of Gaussian 16 at Thu Dec 10 16:42:08 2020.

 --------------------------------------------------------------------
 #N Geom=AllCheck Guess=TCheck SCRF=Check GenChk RB3LYP/6-31G(d) Freq
 --------------------------------------------------------------------

 Structure from the checkpoint file:  "JID_5619.chk"
 ------------------------------
 CID_67501539_JID_5619_neutraal
 ------------------------------
 Charge =  0 Multiplicity = 1

 SCF Done:  E(RB3LYP) =  -739.564325990     A.U. after    1 cycles

  Exact polarizability: 108.330  -8.318 124.752  18.690  12.678 109.675
 Approx polarizability: 153.243 -15.369 205.193  40.842  19.164 197.494

                      1                      2                      3
                      A                      A                      A
 Frequencies --     22.2875                42.6643                61.7243
 Red. masses --      5.9479                 5.7313                 5.0035
 Frc consts  --      0.0017                 0.0061                 0.0112
 IR Inten    --      0.2385                 1.7737                 0.3699

                      4                      5                      6
                      A                      A                      A
 Frequencies --     79.8682               111.9135               128.5045
 Red. masses --      6.2814                 3.8793                 1.1573
 Frc consts  --      0.0236                 0.0286                 0.0113
 IR Inten    --      4.2402                 1.8029                 1.0696

                      7                      8                      9
                      A                      A                      A
 Frequencies --    175.5822               180.0447               219.2210
 Red. masses --      4.1983                 5.7681                 3.4302
 Frc consts  --      0.0763                 0.1102                 0.0971
 IR Inten    --      2.8423                 0.8848                 7.1731

                     10                     11                     12
                      A                      A                      A
 Frequencies --    231.9291               278.4366               325.4300
 Red. masses --      4.4729                 2.9882                 4.6114
 Frc consts  --      0.1418                 0.1365                 0.2877
 IR Inten    --      2.6413                14.9677                16.7731

                     13                     14                     15
                      A                      A                      A
 Frequencies --    332.3875               345.8330               396.3088
 Red. masses --      2.8152                 1.4222                 3.3220
 Frc consts  --      0.1833                 0.1002                 0.3074
 IR Inten    --     26.2507               200.2253                 7.4989

                     16                     17                     18
                      A                      A                      A
 Frequencies --    433.6794               484.7641               514.3319
 Red. masses --      3.3584                 2.8069                 1.5605
 Frc consts  --      0.3722                 0.3886                 0.2432
 IR Inten    --      1.6271                49.1041                72.2221

                     19                     20                     21
                      A                      A                      A
 Frequencies --    520.5639               575.9184               581.9684
 Red. masses --      4.2042                 4.2522                 4.0547
 Frc consts  --      0.6712                 0.8310                 0.8091
 IR Inten    --      5.6342                 6.8963                 8.3713

                     22                     23                     24
                      A                      A                      A
 Frequencies --    600.0544               631.3923               682.0731
 Red. masses --      3.2987                 4.8116                 4.4034
 Frc consts  --      0.6998                 1.1302                 1.2070
 IR Inten    --     56.4257                18.5349                17.2093

                     25                     26                     27
                      A                      A                      A
 Frequencies --    712.0943               739.4330               782.2308
 Red. masses --      2.8336                 5.3190                 2.3115
 Frc consts  --      0.8466                 1.7135                 0.8333
 IR Inten    --      9.0099                 6.3629                52.7421

                     28                     29                     30
                      A                      A                      A
 Frequencies --    807.2510               845.6212               865.0507
 Red. masses --      3.9201                 1.4932                 5.5437
 Frc consts  --      1.5051                 0.6291                 2.4442
 IR Inten    --     45.0662                20.2650                10.0587

                     31                     32                     33
                      A                      A                      A
 Frequencies --    867.0358               914.5473               960.5445
 Red. masses --      4.9294                 1.4291                 1.3679
 Frc consts  --      2.1833                 0.7042                 0.7436
 IR Inten    --      2.6730                 0.8920                 1.1383

                     34                     35                     36
                      A                      A                      A
 Frequencies --    982.1338              1052.1326              1080.5239
 Red. masses --      2.3375                 7.7470                 1.9711
 Frc consts  --      1.3285                 5.0527                 1.3559
 IR Inten    --     27.2356                48.9890                11.5462

                     37                     38                     39
                      A                      A                      A
 Frequencies --   1095.5089              1117.3890              1170.1164
 Red. masses --      1.9510                 2.4863                 3.5604
 Frc consts  --      1.3795                 1.8290                 2.8722
 IR Inten    --      7.5434                 7.8385                44.2484

                     40                     41                     42
                      A                      A                      A
 Frequencies --   1187.7498              1221.4191              1232.2709
 Red. masses --      1.2805                 1.4767                 1.5648
 Frc consts  --      1.0644                 1.2980                 1.4000
 IR Inten    --      0.7089                 2.3939                11.9601

                     43                     44                     45
                      A                      A                      A
 Frequencies --   1262.8934              1288.4029              1314.1111
 Red. masses --      1.9858                 3.5084                 3.7107
 Frc consts  --      1.8660                 3.4313                 3.7755
 IR Inten    --     84.3063                86.4907               162.4383

                     46                     47                     48
                      A                      A                      A
 Frequencies --   1328.0539              1348.8673              1374.8511
 Red. masses --      1.8472                 3.1980                 1.5010
 Frc consts  --      1.9195                 3.4282                 1.6716
 IR Inten    --     43.8458                31.3182                45.1359

                     49                     50                     51
                      A                      A                      A
 Frequencies --   1399.5757              1471.2543              1480.7986
 Red. masses --      1.6081                 1.4254                 2.7049
 Frc consts  --      1.8559                 1.8179                 3.4946
 IR Inten    --     61.6323                14.5030                98.0246

                     52                     53                     54
                      A                      A                      A
 Frequencies --   1490.0167              1498.9135              1514.3370
 Red. masses --      1.1717                 1.1208                 1.0485
 Frc consts  --      1.5327                 1.4836                 1.4167
 IR Inten    --     15.1622                11.3432                 7.2052

                     55                     56                     57
                      A                      A                      A
 Frequencies --   1521.5895              1536.8631              1611.7605
 Red. masses --      1.0466                 2.3994                 5.8136
 Frc consts  --      1.4276                 3.3390                 8.8981
 IR Inten    --      6.4636                18.4983                12.1948

                     58                     59                     60
                      A                      A                      A
 Frequencies --   1649.6740              1682.7426              1798.2738
 Red. masses --      5.1407                 1.2642                 9.0319
 Frc consts  --      8.2427                 2.1091                17.2085
 IR Inten    --      7.3137               126.0354               286.2084

                     61                     62                     63
                      A                      A                      A
 Frequencies --   1837.6035              3081.5288              3092.3924
 Red. masses --     11.4604                 1.0293                 1.0624
 Frc consts  --     22.8010                 5.7590                 5.9861
 IR Inten    --    200.3122                21.2781                15.8789

                     64                     65                     66
                      A                      A                      A
 Frequencies --   3136.6665              3144.9991              3160.0359
 Red. masses --      1.1021                 1.0893                 1.1078
 Frc consts  --      6.3884                 6.3481                 6.5176
 IR Inten    --      3.6659                35.3395                18.0033

                     67                     68                     69
                      A                      A                      A
 Frequencies --   3189.1362              3192.6360              3222.0112
 Red. masses --      1.0893                 1.1076                 1.0938
 Frc consts  --      6.5276                 6.6518                 6.6904
 IR Inten    --     15.9936                10.4374                 8.5455

                     70                     71                     72
                      A                      A                      A
 Frequencies --   3565.3933              3575.3507              3688.4897
 Red. masses --      1.0756                 1.0468                 1.1018
 Frc consts  --      8.0556                 7.8843                 8.8316
 IR Inten    --     27.6191                34.9941                37.0867

 - Thermochemistry -
 -------------------
 Temperature   298.150 Kelvin.  Pressure   1.00000 Atm.
 Atom     1 has atomic number  6 and mass  12.00000

 Molecular mass:   209.08004 amu.
 Principal axes and moments of inertia in atomic units:
                           1         2         3
     Eigenvalues --  2268.478393467.254843872.08194
           X            0.99937   0.02473   0.02533
           Y           -0.02821   0.98866   0.14751
           Z           -0.02139  -0.14814   0.98874
 This molecule is an asymmetric top.
 Rotational symmetry number  1.
 Warning -- assumption of classical behavior for rotation
           may cause significant error
 Rotational temperatures (Kelvin)      0.03818     0.02498     0.02237
 Rotational constants (GHZ):           0.79557     0.52051     0.46609
 Zero-point vibrational energy     538613.6 (Joules/Mol)
                                  128.73173 (Kcal/Mol)
 Warning -- explicit consideration of  22 degrees of freedom as
           vibrations may cause significant error
 Vibrational temperatures:     32.07    61.38    88.81   114.91   161.02
          (Kelvin)            184.89   252.62   259.04   315.41   333.69
                              400.61   468.22   478.23   497.58   570.20
                              623.97   697.47   740.01   748.98   828.62
                              837.32   863.34   908.43   981.35  1024.54
                             1063.88  1125.46  1161.45  1216.66  1244.62
                             1247.47  1315.83  1382.01  1413.07  1513.78
                             1554.63  1576.19  1607.67  1683.54  1708.91
                             1757.35  1772.96  1817.02  1853.72  1890.71
                             1910.77  1940.72  1978.10  2013.68  2116.81
                             2130.54  2143.80  2156.60  2178.79  2189.23
                             2211.20  2318.96  2373.51  2421.09  2587.31
                             2643.90  4433.63  4449.26  4512.96  4524.95
                             4546.59  4588.46  4593.49  4635.76  5129.81
                             5144.13  5306.91

 Zero-point correction=                           0.205147 (Hartree/Particle)
 Thermal correction to Energy=                    0.219515
 Thermal correction to Enthalpy=                  0.220459
 Thermal correction to Gibbs Free Energy=         0.162508
 Sum of electronic and zero-point Energies=           -739.359179
 Sum of electronic and thermal Energies=              -739.344811
 Sum of electronic and thermal Enthalpies=            -739.343867
 Sum of electronic and thermal Free Energies=         -739.401818

                     E (Thermal)             CV                S
                      KCal/Mol        Cal/Mol-Kelvin    Cal/Mol-Kelvin
 Total                  137.748             52.688            121.969
 Electronic               0.000              0.000              0.000
 Translational            0.889              2.981             41.916
 Rotational               0.889              2.981             31.788
 Vibrational            135.970             46.726             48.265
 Vibration     1          0.593              1.985              6.419
 Vibration     2          0.595              1.980              5.131
 Vibration     3          0.597              1.973              4.401
 Vibration     4          0.600              1.963              3.894
 Vibration     5          0.607              1.940              3.235
 Vibration     6          0.611              1.925              2.968
 Vibration     7          0.628              1.872              2.375
 Vibration     8          0.629              1.867              2.328
 Vibration     9          0.647              1.812              1.966
 Vibration    10          0.653              1.792              1.864
 Vibration    11          0.679              1.713              1.543
 Vibration    12          0.710              1.625              1.283
 Vibration    13          0.714              1.611              1.248
 Vibration    14          0.724              1.584              1.185
 Vibration    15          0.763              1.478              0.976
 Vibration    16          0.794              1.397              0.847
 Vibration    17          0.841              1.284              0.697
 Vibration    18          0.869              1.218              0.623
 Vibration    19          0.876              1.204              0.609
 Vibration    20          0.932              1.083              0.493
 Vibration    21          0.939              1.070              0.482
 Vibration    22          0.958              1.032              0.450

 Optimization completed.
    -- Stationary point found.
 Normal termination of Gaussian 16 at Thu Dec 10 16:52:07 2020.

 ----------------------------------------------------------------------
 # B3LYP/6-311++G(d,p) empiricaldispersion=gd3bj scf=xqc pop=npa geom=c
 heck
 ----------------------------------------------------------------------

 --------------------------------------
 CID_67501539_JID_5619_Energie_neutraal
 --------------------------------------
 Structure from the checkpoint file:  "JID_5619.chk"
 Charge =  0 Multiplicity = 1

 SCF Done:  E(RB3LYP) =  -739.785300625     A.U. after   16 cycles
 Normal termination of Gaussian 16 at Thu Dec 10 16:56:14 2020.

 ----------------------------------------------------------------------
 # B3LYP/6-311++G(d,p) empiricaldispersion=gd3bj scf=xqc pop=npa geom=c
 heck
 ----------------------------------------------------------------------

 ------------------------------------
 CID_67501539_JID_5619_Energie_kation
 ------------------------------------
 Structure from the checkpoint file:  "JID_5619.chk"
 Charge =  1 Multiplicity = 2

 SCF Done:  E(UB3LYP) =  -739.480200077     A.U. after   28 cycles
 Normal termination of Gaussian 16 at Thu Dec 10 17:08:04 2020.
 Gaussian 16:  ES64L-G16RevA.03 25-Dec-2016

 ----------------------------------------------------------------------
 # B3LYP/6-311++G(d,p) empiricaldispersion=gd3bj scf=xqc pop=npa geom=c
 heck
 ----------------------------------------------------------------------

 -----------------------------------
 CID_67501539_JID_5619_Energie_anion
 -----------------------------------
 Structure from the checkpoint file:  "JID_5619.chk"
 Charge = -1 Multiplicity = 2

                         Standard orientation:
 ---------------------------------------------------------------------
 Center     Atomic      Atomic             Coordinates (Angstroms)
 Number     Number       Type             X           Y           Z
 ---------------------------------------------------------------------
      1          6           0        2.759303    1.784426    0.435934
      2          8           0        2.241520    0.448910    0.300240
      3          6           0        1.904271    0.089952   -0.949513
      4          8           0        2.081243    0.768724   -1.934853
      5          6           0        1.272674   -1.300056   -1.007702
      6          7           0        0.844623   -1.884890    0.256625
      7          6           0        0.065599   -1.177330    1.171289
      8          8           0        0.172656   -1.367555    2.370862
      9          6           0       -0.909062   -0.198476    0.592121
     10          6           0       -1.821076   -0.525657   -0.430759
     11          6           0       -2.672918    0.507109   -0.879508
     12          7           0       -2.677296    1.741898   -0.393420
     13          6           0       -1.828715    2.029101    0.607111
     14          6           0       -0.947202    1.091678    1.129198
     15          7           0       -1.942373   -1.801770   -0.946591
     16          1           0        3.005044    1.894156    1.491650
     17          1           0        1.997434    2.509048    0.137773
     18          1           0        3.646212    1.914968   -0.188028
     19          1           0        0.437569   -1.227173   -1.708498
     20          1           0        2.000149   -1.977217   -1.466127
     21          1           0        1.556235   -2.415371    0.749090
     22          1           0       -3.385200    0.293742   -1.677454
     23          1           0       -1.864163    3.043166    0.996975
     24          1           0       -0.272788    1.342845    1.940967
     25          1           0       -2.387498   -1.903106   -1.847012
     26          1           0       -1.208267   -2.466832   -0.744660
 ---------------------------------------------------------------------

 SCF Done:  E(UB3LYP) =  -739.789041402     A.U. after   32 cycles

 The electronic state is 2-A.
 Alpha  occ. eigenvalues --  -19.06910 -19.00765 -18.95848 -14.21267 -14.20497
 Alpha  occ. eigenvalues --  -14.15983 -10.19411 -10.13527 -10.13184 -10.10699
 Alpha  occ. eigenvalues --  -10.09031 -10.06068 -10.05947 -10.04364 -10.03912
 Alpha  occ. eigenvalues --   -1.00913  -0.92068  -0.91149  -0.81810  -0.80143
 Alpha  occ. eigenvalues --   -0.78549  -0.66565  -0.65045  -0.61234  -0.59900
 Alpha  occ. eigenvalues --   -0.53261  -0.49679  -0.47794  -0.45606  -0.41845
 Alpha  occ. eigenvalues --   -0.41295  -0.40072  -0.39232  -0.38372  -0.36580
 Alpha  occ. eigenvalues --   -0.35524  -0.33050  -0.32688  -0.31987  -0.31018
 Alpha  occ. eigenvalues --   -0.30201  -0.28693  -0.27609  -0.27352  -0.26525
 Alpha  occ. eigenvalues --   -0.25633  -0.23902  -0.21121  -0.20984  -0.19104
 Alpha  occ. eigenvalues --   -0.15499  -0.14457  -0.13016  -0.11910  -0.09227
 Alpha  occ. eigenvalues --    0.04473
 Alpha virt. eigenvalues --    0.07010   0.07915   0.08566   0.10035   0.10576
 Alpha virt. eigenvalues --    0.10804   0.11046   0.11764   0.12089   0.12760
 Alpha virt. eigenvalues --    0.13703   0.13837   0.14099   0.14756   0.15399

  Beta  occ. eigenvalues --  -19.06883 -19.00753 -18.95655 -14.21256 -14.20474
  Beta  occ. eigenvalues --  -14.15601 -10.19360 -10.13382 -10.13182 -10.10663
  Beta  occ. eigenvalues --  -10.08985 -10.06007 -10.06004 -10.04201 -10.03773
  Beta  occ. eigenvalues --   -1.00854  -0.92028  -0.90803  -0.81581  -0.79947
  Beta  occ. eigenvalues --   -0.78228  -0.66128  -0.64969  -0.61005  -0.59799
  Beta  occ. eigenvalues --   -0.52740  -0.49558  -0.47704  -0.45435  -0.41788
  Beta  occ. eigenvalues --   -0.41148  -0.39951  -0.39095  -0.38307  -0.36436
  Beta  occ. eigenvalues --   -0.35419  -0.32864  -0.32540  -0.31893  -0.30789
  Beta  occ. eigenvalues --   -0.30096  -0.28096  -0.27304  -0.27108  -0.26326
  Beta  occ. eigenvalues --   -0.25204  -0.23640  -0.20999  -0.20383  -0.18942
  Beta  occ. eigenvalues --   -0.14772  -0.13894  -0.12396  -0.11452  -0.08633
  Beta virt. eigenvalues --    0.07523   0.07932   0.08771   0.09663   0.10143
  Beta virt. eigenvalues --    0.10882   0.11050   0.11154   0.11857   0.12522
  Beta virt. eigenvalues --    0.12886   0.13787   0.13999   0.14224   0.15055

 Mulliken charges and spin densities:
               1          2
     1  C   -0.248935  -0.004620
     2  O    0.046211   0.003876
     3  C   -0.071114  -0.053446
     4  O   -0.267370   0.014906
     5  C    0.589142  -0.815543
     6  N   -0.294671   0.018292
     7  C   -0.562831  -0.047256
     8  O   -0.297276   0.067084
     9  C    0.418732   0.143839
    10  C   -0.057937  -0.082069
    11  C   -0.253010  -0.037220
    12  N   -0.137886   0.176758
    13  C   -0.533724  -0.055938
    14  C    0.410796   0.139237
    15  N   -0.404930   0.051931
    16  H    0.142685  -0.000066
    17  H    0.191700  -0.000467
    18  H    0.151388   0.004527
    19  H    0.240682  -0.013436
    20  H   -0.928570   1.146284
    21  H    0.085597   0.238046
    22  H    0.111369  -0.006291
    23  H    0.125697   0.000996
    24  H    0.162368  -0.009765
    25  H    0.199552   0.032502
    26  H    0.182333   0.087839
 Sum of Mulliken charges =  -1.00000   1.00000

 Dipole moment (field-independent basis, Debye):
    X=              1.8461    Y=              2.4945    Z=             -0.2413  Tot=              3.1127
 Quadrupole moment (field-independent basis, Debye-Ang):
   XX=           -120.1489   YY=           -117.4553   ZZ=           -116.4778
   XY=             18.8421   XZ=             11.3935   YZ=              8.5974

 Summary of Natural Population Analysis:

                                       Natural Population
                Natural  -----------------------------------------------
    Atom  No    Charge         Core      Valence    Rydberg      Total
 -----------------------------------------------------------------------
      C    1   -0.10570      0.99960     2.09804    0.00805     3.10570
      O    2   -0.27171      0.99986     3.26393    0.00792     4.27171
      C    3    0.41175      0.99970     1.56292    0.02563     2.58825
      O    4   -0.31048      0.99987     3.30509    0.00552     4.31048
      C    5   -0.13915      0.99956     2.12609    0.01350     3.13915
      N    6   -0.33721      0.99969     2.82435    0.01317     3.83721
      C    7    0.36517      0.99962     1.61098    0.02423     2.63483
      O    8   -0.29763      0.99987     3.29220    0.00555     4.29763
      C    9   -0.06032      0.99942     2.04934    0.01156     3.06032
      C   10    0.07625      0.99946     1.90936    0.01493     2.92375
      C   11    0.00891      0.99957     1.97824    0.01329     2.99109
      N   12   -0.17913      0.99971     2.66729    0.01214     3.67913
      C   13   -0.01842      0.99959     2.00427    0.01456     3.01842
      C   14   -0.07371      0.99953     2.06667    0.00751     3.07371
      N   15   -0.40182      0.99971     2.89303    0.00908     3.90182
      H   16    0.08989      0.00000     0.40940    0.00072     0.41011
      H   17    0.09505      0.00000     0.40397    0.00098     0.40495
      H   18    0.08869      0.00000     0.41030    0.00101     0.41131
      H   19    0.11199      0.00000     0.38660    0.00140     0.38801
      H   20    0.11756      0.00000     0.37586    0.00658     0.38244
      H   21    0.19195      0.00000     0.30506    0.00299     0.30805
      H   22    0.07636      0.00000     0.42204    0.00160     0.42364
      H   23    0.08130      0.00000     0.41746    0.00124     0.41870
      H   24    0.10046      0.00000     0.39823    0.00131     0.39954
      H   25    0.18369      0.00000     0.31502    0.00129     0.31631
      H   26    0.19625      0.00000     0.30173    0.00202     0.30375
 =======================================================================
   * Total *    0.00000     14.99474    39.79746    0.20779    55.00000

 Normal termination of Gaussian 16 at Thu Dec 10 17:20:52 2020.
