 Gaussian 16, Revision A.03,

 -----------------------------------------------------------
 # opt freq B3LYP/6-31G(d) empiricaldispersion=gd3bj scf=xqc
 -----------------------------------------------------------

 -------------------------------
 CID_84742960_JID_10867_neutraal
 -------------------------------
 Symbolic Z-matrix:
 Charge =  0 Multiplicity = 1

 SCF Done:  E(RB3LYP) =  -839.563822652     A.U. after   16 cycles
 SCF Done:  E(RB3LYP) =  -839.589421113     A.U. after   13 cycles
 SCF Done:  E(RB3LYP) =  -839.591401598     A.U. after   13 cycles
 SCF Done:  E(RB3LYP) =  -839.592572181     A.U. after   13 cycles
 SCF Done:  E(RB3LYP) =  -839.593030041     A.U. after   12 cycles
 SCF Done:  E(RB3LYP) =  -839.593113722     A.U. after   12 cycles
 SCF Done:  E(RB3LYP) =  -839.593256881     A.U. after   11 cycles
 SCF Done:  E(RB3LYP) =  -839.593336770     A.U. after   11 cycles
 SCF Done:  E(RB3LYP) =  -839.593408583     A.U. after   10 cycles
 SCF Done:  E(RB3LYP) =  -839.593434250     A.U. after   10 cycles
 SCF Done:  E(RB3LYP) =  -839.593461002     A.U. after    9 cycles
 SCF Done:  E(RB3LYP) =  -839.593467624     A.U. after    9 cycles
 SCF Done:  E(RB3LYP) =  -839.593468549     A.U. after    8 cycles
 SCF Done:  E(RB3LYP) =  -839.593468887     A.U. after    8 cycles
 Optimization completed.
    -- Stationary point found.
 Normal termination of Gaussian 16 at Sun Dec 13 20:49:09 2020.

 --------------------------------------------------------------------
 #N Geom=AllCheck Guess=TCheck SCRF=Check GenChk RB3LYP/6-31G(d) Freq
 --------------------------------------------------------------------

 Structure from the checkpoint file:  "JID_10867.chk"
 -------------------------------
 CID_84742960_JID_10867_neutraal
 -------------------------------
 Charge =  0 Multiplicity = 1

 SCF Done:  E(RB3LYP) =  -839.593468887     A.U. after    1 cycles

  Exact polarizability: 262.393 -14.127 170.881  -2.829 -20.373 125.166
 Approx polarizability: 361.710 -28.092 283.451  -7.668 -53.778 206.277

                      1                      2                      3
                      A                      A                      A
 Frequencies --     30.5327                42.7774                57.7071
 Red. masses --      4.8610                 3.8080                 3.4950
 Frc consts  --      0.0027                 0.0041                 0.0069
 IR Inten    --      0.2526                 0.5207                 1.5939

                      4                      5                      6
                      A                      A                      A
 Frequencies --     71.0782                93.9387               105.1207
 Red. masses --      5.3769                 3.5991                 5.2191
 Frc consts  --      0.0160                 0.0187                 0.0340
 IR Inten    --      1.2294                 0.2564                 1.5707

                      7                      8                      9
                      A                      A                      A
 Frequencies --    127.9558               137.2363               155.3024
 Red. masses --      7.6768                 2.1538                 2.8993
 Frc consts  --      0.0741                 0.0239                 0.0412
 IR Inten    --      3.6758                 0.7991                 2.5316

                     10                     11                     12
                      A                      A                      A
 Frequencies --    181.6814               188.2044               226.8195
 Red. masses --      3.0336                 1.9179                 1.9836
 Frc consts  --      0.0590                 0.0400                 0.0601
 IR Inten    --      0.7360                 1.1802                 0.5722

                     13                     14                     15
                      A                      A                      A
 Frequencies --    259.7568               292.4052               312.9991
 Red. masses --      3.8006                 3.0092                 3.3458
 Frc consts  --      0.1511                 0.1516                 0.1931
 IR Inten    --      1.6428                 3.7307                 0.6541

                     16                     17                     18
                      A                      A                      A
 Frequencies --    320.7169               365.1507               378.4507
 Red. masses --      5.1965                 3.6355                 4.0846
 Frc consts  --      0.3149                 0.2856                 0.3447
 IR Inten    --      0.3497                 2.4048                 0.1937

                     19                     20                     21
                      A                      A                      A
 Frequencies --    420.4816               436.8867               454.1582
 Red. masses --      3.0323                 4.8019                 5.5060
 Frc consts  --      0.3159                 0.5400                 0.6691
 IR Inten    --      0.2476                 3.4192                 0.5536

                     22                     23                     24
                      A                      A                      A
 Frequencies --    509.8718               544.6339               578.3366
 Red. masses --      4.2454                 5.8330                 4.4733
 Frc consts  --      0.6503                 1.0194                 0.8815
 IR Inten    --      2.3927                16.3625                 1.8533

                     25                     26                     27
                      A                      A                      A
 Frequencies --    635.0077               644.8778               657.4221
 Red. masses --      6.3601                 2.6675                 2.6367
 Frc consts  --      1.5110                 0.6536                 0.6714
 IR Inten    --      0.0938                 0.5964                 3.0399

                     28                     29                     30
                      A                      A                      A
 Frequencies --    667.7835               693.1830               712.2158
 Red. masses --      4.5093                 5.2762                 2.0780
 Frc consts  --      1.1848                 1.4937                 0.6210
 IR Inten    --      3.7781                 3.9311                17.4793

                     31                     32                     33
                      A                      A                      A
 Frequencies --    722.5302               736.1984               785.3141
 Red. masses --      3.8806                 6.4047                 1.9218
 Frc consts  --      1.1936                 2.0452                 0.6983
 IR Inten    --     23.6803                16.2047                15.1132

                     34                     35                     36
                      A                      A                      A
 Frequencies --    786.3316               826.1903               853.4645
 Red. masses --      1.7781                 4.9367                 1.6475
 Frc consts  --      0.6478                 1.9854                 0.7071
 IR Inten    --     21.7549                41.3395                 0.6502

                     37                     38                     39
                      A                      A                      A
 Frequencies --    856.6775               862.8188               877.3971
 Red. masses --      1.4680                 1.2454                 2.9076
 Frc consts  --      0.6348                 0.5462                 1.3188
 IR Inten    --      8.0297                 0.4041                 3.4975

                     40                     41                     42
                      A                      A                      A
 Frequencies --    899.8130               934.2966               935.0263
 Red. masses --      3.0422                 1.4862                 2.3277
 Frc consts  --      1.4513                 0.7643                 1.1990
 IR Inten    --      5.2140                 2.7315                 1.0041

                     43                     44                     45
                      A                      A                      A
 Frequencies --    955.4926               961.5377               973.0087
 Red. masses --      2.2749                 2.6880                 1.3420
 Frc consts  --      1.2237                 1.4642                 0.7486
 IR Inten    --      7.0812                 5.4742                 0.6662

                     46                     47                     48
                      A                      A                      A
 Frequencies --    996.1586              1000.0479              1021.5357
 Red. masses --      3.0824                 1.2898                 6.0786
 Frc consts  --      1.8022                 0.7600                 3.7373
 IR Inten    --      8.1620                 0.3489                 0.3091

                     49                     50                     51
                      A                      A                      A
 Frequencies --   1039.0183              1052.7115              1086.2130
 Red. masses --      2.8435                 2.9823                 2.0210
 Frc consts  --      1.8086                 1.9472                 1.4049
 IR Inten    --     18.7562                 9.7342                11.5158

                     52                     53                     54
                      A                      A                      A
 Frequencies --   1090.0010              1114.4603              1114.8933
 Red. masses --      2.0991                 2.0045                 1.9339
 Frc consts  --      1.4694                 1.4668                 1.4163
 IR Inten    --     44.1915                16.1699                 2.8635

                     55                     56                     57
                      A                      A                      A
 Frequencies --   1147.1826              1158.4462              1171.7312
 Red. masses --      2.3024                 1.3056                 2.1265
 Frc consts  --      1.7852                 1.0323                 1.7202
 IR Inten    --      2.7984                 0.3340                 6.8170

                     58                     59                     60
                      A                      A                      A
 Frequencies --   1191.9363              1195.5615              1217.1395
 Red. masses --      2.0749                 1.0992                 1.1384
 Frc consts  --      1.7368                 0.9257                 0.9937
 IR Inten    --     19.4927                 0.1386                 1.0406

                     61                     62                     63
                      A                      A                      A
 Frequencies --   1228.7721              1244.1401              1266.0648
 Red. masses --      1.3091                 1.1965                 2.6901
 Frc consts  --      1.1645                 1.0912                 2.5405
 IR Inten    --      4.2789                 3.1499                 0.8719

                     64                     65                     66
                      A                      A                      A
 Frequencies --   1275.7617              1303.2412              1318.1895
 Red. masses --      1.1728                 1.4594                 2.1768
 Frc consts  --      1.1246                 1.4604                 2.2285
 IR Inten    --      3.5305                 6.5700                 9.4907

                     67                     68                     69
                      A                      A                      A
 Frequencies --   1324.2235              1334.9610              1341.0693
 Red. masses --      3.2905                 1.3417                 2.6016
 Frc consts  --      3.3996                 1.4088                 2.7567
 IR Inten    --     25.4988                 0.5503                 0.7673

                     70                     71                     72
                      A                      A                      A
 Frequencies --   1355.8806              1368.2541              1370.1088
 Red. masses --      1.3609                 1.3647                 1.9944
 Frc consts  --      1.4740                 1.5053                 2.2058
 IR Inten    --     11.6094                 3.8103                 1.5559

                     73                     74                     75
                      A                      A                      A
 Frequencies --   1370.6131              1390.8665              1396.0097
 Red. masses --      1.2621                 2.9759                 1.5787
 Frc consts  --      1.3969                 3.3919                 1.8127
 IR Inten    --      1.6881                22.6760                10.7153

                     76                     77                     78
                      A                      A                      A
 Frequencies --   1444.9217              1486.6252              1500.0693
 Red. masses --      2.7628                 1.7932                 1.8963
 Frc consts  --      3.3985                 2.3350                 2.5141
 IR Inten    --     54.4797                 4.8351                24.8726

                     79                     80                     81
                      A                      A                      A
 Frequencies --   1513.7108              1516.8248              1523.9586
 Red. masses --      2.0797                 1.2288                 1.0771
 Frc consts  --      2.8076                 1.6657                 1.4739
 IR Inten    --     19.8991                 7.2147                 9.6636

                     82                     83                     84
                      A                      A                      A
 Frequencies --   1525.9275              1528.5377              1539.4234
 Red. masses --      1.0801                 1.0816                 1.0922
 Frc consts  --      1.4817                 1.4889                 1.5249
 IR Inten    --      3.1340                 6.7381                 9.2240

                     85                     86                     87
                      A                      A                      A
 Frequencies --   1548.5707              1560.8572              1588.9740
 Red. masses --      1.0997                 3.3135                 4.9492
 Frc consts  --      1.5538                 4.7563                 7.3624
 IR Inten    --      3.0638                 4.1752                 4.7378

                     88                     89                     90
                      A                      A                      A
 Frequencies --   1639.7611              1667.6838              2374.1165
 Red. masses --      5.5110                 5.5800                12.6807
 Frc consts  --      8.7305                 9.1434                42.1112
 IR Inten    --      0.5637                 5.8824                 3.7310

                     91                     92                     93
                      A                      A                      A
 Frequencies --   3047.2172              3055.8459              3059.6776
 Red. masses --      1.0689                 1.0798                 1.0714
 Frc consts  --      5.8476                 5.9409                 5.9098
 IR Inten    --     37.9496                 8.4648                46.0802

                     94                     95                     96
                      A                      A                      A
 Frequencies --   3069.0310              3078.3861              3088.7686
 Red. masses --      1.0396                 1.0604                 1.0633
 Frc consts  --      5.7691                 5.9205                 5.9768
 IR Inten    --     34.1849                26.4790                40.7113

                     97                     98                     99
                      A                      A                      A
 Frequencies --   3108.2234              3118.8156              3130.1331
 Red. masses --      1.0968                 1.1029                 1.0987
 Frc consts  --      6.2429                 6.3207                 6.3423
 IR Inten    --     17.0138                17.4503                13.2945

                    100                    101                    102
                      A                      A                      A
 Frequencies --   3136.8185              3141.8772              3176.6352
 Red. masses --      1.1017                 1.1042                 1.1020
 Frc consts  --      6.3872                 6.4223                 6.5520
 IR Inten    --     14.9675                61.1999                 6.7620

                    103                    104                    105
                      A                      A                      A
 Frequencies --   3186.6844              3195.7622              3205.8478
 Red. masses --      1.0852                 1.0885                 1.0922
 Frc consts  --      6.4930                 6.5500                 6.6136
 IR Inten    --      1.5437                 7.1717                32.8959

                    106                    107                    108
                      A                      A                      A
 Frequencies --   3214.1163              3228.3585              3260.6533
 Red. masses --      1.0964                 1.0938                 1.0970
 Frc consts  --      6.6734                 6.7163                 6.8715
 IR Inten    --     20.4020                 4.0089                 6.1457

 - Thermochemistry -
 -------------------
 Temperature   298.150 Kelvin.  Pressure   1.00000 Atm.
 Atom     1 has atomic number  6 and mass  12.00000

 Molecular mass:   266.15315 amu.
 Principal axes and moments of inertia in atomic units:
                           1         2         3
     Eigenvalues --  2486.481308721.517609689.56981
           X            0.99989   0.01369   0.00652
           Y           -0.01356   0.99974  -0.01842
           Z           -0.00677   0.01833   0.99981
 This molecule is an asymmetric top.
 Rotational symmetry number  1.
 Warning -- assumption of classical behavior for rotation
           may cause significant error
 Rotational temperatures (Kelvin)      0.03483     0.00993     0.00894
 Rotational constants (GHZ):           0.72582     0.20693     0.18626
 Zero-point vibrational energy     838682.7 (Joules/Mol)
                                  200.44998 (Kcal/Mol)
 Warning -- explicit consideration of  24 degrees of freedom as
           vibrations may cause significant error
 Vibrational temperatures:     43.93    61.55    83.03   102.27   135.16
          (Kelvin)            151.25   184.10   197.45   223.45   261.40
                              270.78   326.34   373.73   420.71   450.34
                              461.44   525.37   544.51   604.98   628.58
                              653.43   733.59   783.61   832.10   913.63
                              927.84   945.88   960.79   997.34  1024.72
                             1039.56  1059.23  1129.89  1131.36  1188.70
                             1227.95  1232.57  1241.40  1262.38  1294.63
                             1344.24  1345.29  1374.74  1383.44  1399.94
                             1433.25  1438.85  1469.76  1494.92  1514.62
                             1562.82  1568.27  1603.46  1604.08  1650.54
                             1666.75  1685.86  1714.93  1720.15  1751.19
                             1767.93  1790.04  1821.58  1835.54  1875.07
                             1896.58  1905.26  1920.71  1929.50  1950.81
                             1968.61  1971.28  1972.01  2001.15  2008.55
                             2078.92  2138.92  2158.27  2177.89  2182.37
                             2192.64  2195.47  2199.22  2214.89  2228.05
                             2245.73  2286.18  2359.25  2399.43  3415.82
                             4384.27  4396.68  4402.19  4415.65  4429.11
                             4444.05  4472.04  4487.28  4503.56  4513.18
                             4520.46  4570.47  4584.93  4597.99  4612.50
                             4624.40  4644.89  4691.35

 Zero-point correction=                           0.319437 (Hartree/Particle)
 Thermal correction to Energy=                    0.336850
 Thermal correction to Enthalpy=                  0.337794
 Thermal correction to Gibbs Free Energy=         0.273210
 Sum of electronic and zero-point Energies=           -839.274032
 Sum of electronic and thermal Energies=              -839.256619
 Sum of electronic and thermal Enthalpies=            -839.255675
 Sum of electronic and thermal Free Energies=         -839.320259

                     E (Thermal)             CV                S
                      KCal/Mol        Cal/Mol-Kelvin    Cal/Mol-Kelvin
 Total                  211.377             67.354            135.930
 Electronic               0.000              0.000              0.000
 Translational            0.889              2.981             42.636
 Rotational               0.889              2.981             33.707
 Vibrational            209.599             61.392             59.587
 Vibration     1          0.594              1.984              5.795
 Vibration     2          0.595              1.980              5.126
 Vibration     3          0.596              1.974              4.534
 Vibration     4          0.598              1.968              4.123
 Vibration     5          0.603              1.954              3.576
 Vibration     6          0.605              1.945              3.357
 Vibration     7          0.611              1.925              2.977
 Vibration     8          0.614              1.916              2.842
 Vibration     9          0.620              1.897              2.606
 Vibration    10          0.630              1.865              2.311
 Vibration    11          0.633              1.856              2.245
 Vibration    12          0.650              1.800              1.904
 Vibration    13          0.668              1.746              1.663
 Vibration    14          0.688              1.688              1.460
 Vibration    15          0.701              1.649              1.346
 Vibration    16          0.706              1.634              1.306
 Vibration    17          0.738              1.544              1.100
 Vibration    18          0.749              1.516              1.045
 Vibration    19          0.783              1.426              0.890
 Vibration    20          0.797              1.390              0.836
 Vibration    21          0.813              1.352              0.783
 Vibration    22          0.865              1.228              0.634
 Vibration    23          0.900              1.151              0.555
 Vibration    24          0.935              1.078              0.488

                           ! Non-Optimized Parameters !
 Normal termination of Gaussian 16 at Sun Dec 13 21:10:24 2020.

 ----------------------------------------------------------------------
 # B3LYP/6-311++G(d,p) empiricaldispersion=gd3bj scf=xqc pop=npa geom=c
 heck
 ----------------------------------------------------------------------

 ---------------------------------------
 CID_84742960_JID_10867_Energie_neutraal
 ---------------------------------------
 Structure from the checkpoint file:  "JID_10867.chk"
 Charge =  0 Multiplicity = 1

 SCF Done:  E(RB3LYP) =  -839.809074714     A.U. after   16 cycles
 Normal termination of Gaussian 16 at Sun Dec 13 21:19:00 2020.

 ----------------------------------------------------------------------
 # B3LYP/6-311++G(d,p) empiricaldispersion=gd3bj scf=xqc pop=npa geom=c
 heck
 ----------------------------------------------------------------------

 -------------------------------------
 CID_84742960_JID_10867_Energie_kation
 -------------------------------------
 Structure from the checkpoint file:  "JID_10867.chk"
 Charge =  1 Multiplicity = 2

 SCF Done:  E(UB3LYP) =  -839.527832928     A.U. after   24 cycles
 Normal termination of Gaussian 16 at Sun Dec 13 21:36:24 2020.
 Gaussian 16:  ES64L-G16RevA.03 25-Dec-2016

 ----------------------------------------------------------------------
 # B3LYP/6-311++G(d,p) empiricaldispersion=gd3bj scf=xqc pop=npa geom=c
 heck
 ----------------------------------------------------------------------

 ------------------------------------
 CID_84742960_JID_10867_Energie_anion
 ------------------------------------
 Structure from the checkpoint file:  "JID_10867.chk"
 Charge = -1 Multiplicity = 2

                         Standard orientation:
 ---------------------------------------------------------------------
 Center     Atomic      Atomic             Coordinates (Angstroms)
 Number     Number       Type             X           Y           Z
 ---------------------------------------------------------------------
      1          6           0        0.292409   -0.428921    1.961274
      2          7           0        0.105997    0.252035    0.688156
      3          6           0       -1.079671    0.829961    0.242446
      4          6           0       -0.728639    1.574605   -0.861275
      5          7           0        0.610894    1.467488   -1.117451
      6          6           0        1.100086    0.665626   -0.180497
      7          6           0        2.512835    0.282108   -0.088452
      8          6           0        3.484522    1.212017   -0.494030
      9          6           0        4.835688    0.883958   -0.450744
     10          6           0        5.241224   -0.376199   -0.003466
     11          6           0        4.283080   -1.312577    0.384617
     12          6           0        2.927625   -0.989910    0.337346
     13          6           0       -2.439775    0.511747    0.813889
     14          6           0       -3.301025    1.704475    0.674021
     15          7           0       -3.974521    2.639156    0.540083
     16          7           0       -3.171329   -0.643276    0.258710
     17          6           0       -2.618595   -1.958123    0.609706
     18          6           0       -1.636231   -2.366027   -0.517556
     19          6           0       -2.097413   -1.532828   -1.742535
     20          6           0       -3.273022   -0.670505   -1.210759
     21          1           0       -0.378976   -0.000789    2.709184
     22          1           0        0.095930   -1.502713    1.881009
     23          1           0        1.319118   -0.282003    2.296308
     24          1           0       -1.379748    2.179164   -1.478087
     25          1           0        3.155507    2.184321   -0.844001
     26          1           0        5.576329    1.614331   -0.763644
     27          1           0        6.296907   -0.628986    0.033439
     28          1           0        4.588359   -2.302402    0.711816
     29          1           0        2.191003   -1.743181    0.598229
     30          1           0       -2.353236    0.319518    1.890290
     31          1           0       -3.454436   -2.668083    0.644591
     32          1           0       -2.173470   -1.937242    1.608703
     33          1           0       -0.604637   -2.115823   -0.255053
     34          1           0       -1.672501   -3.443589   -0.704149
     35          1           0       -1.283979   -0.899975   -2.104809
     36          1           0       -2.419960   -2.166483   -2.574152
     37          1           0       -3.285561    0.344791   -1.613761
     38          1           0       -4.232527   -1.135122   -1.466305
 ---------------------------------------------------------------------

 SCF Done:  E(UB3LYP) =  -839.809171972     A.U. after   33 cycles
 SCF Done:  E(UB3LYP) =  -839.809171972     a.u. after    1 cycles

 The electronic state is 2-A.
 Alpha  occ. eigenvalues --  -14.26118 -14.22108 -14.22001 -14.17959 -10.16057
 Alpha  occ. eigenvalues --  -10.11946 -10.11479 -10.11365 -10.10276 -10.10206
 Alpha  occ. eigenvalues --  -10.09850 -10.08037 -10.07390 -10.07370 -10.06523
 Alpha  occ. eigenvalues --  -10.06506 -10.06354 -10.06235 -10.05832 -10.05593
 Alpha  occ. eigenvalues --   -0.91196  -0.85470  -0.81397  -0.78131  -0.74729
 Alpha  occ. eigenvalues --   -0.71386  -0.67078  -0.64366  -0.63693  -0.63572
 Alpha  occ. eigenvalues --   -0.62068  -0.59410  -0.51579  -0.51029  -0.49929
 Alpha  occ. eigenvalues --   -0.49445  -0.48251  -0.45638  -0.43286  -0.42565
 Alpha  occ. eigenvalues --   -0.40537  -0.39943  -0.38287  -0.36867  -0.36632
 Alpha  occ. eigenvalues --   -0.34956  -0.34039  -0.33409  -0.32857  -0.32169
 Alpha  occ. eigenvalues --   -0.31379  -0.30879  -0.30317  -0.29699  -0.29030
 Alpha  occ. eigenvalues --   -0.27977  -0.27271  -0.25944  -0.25605  -0.25441
 Alpha  occ. eigenvalues --   -0.24503  -0.24176  -0.23876  -0.23573  -0.23160
 Alpha  occ. eigenvalues --   -0.17466  -0.16913  -0.16240  -0.14865  -0.14073
 Alpha  occ. eigenvalues --   -0.10930   0.03947
 Alpha virt. eigenvalues --    0.05828   0.06854   0.07351   0.08057   0.08748
 Alpha virt. eigenvalues --    0.09090   0.09390   0.09684   0.09869   0.10336
 Alpha virt. eigenvalues --    0.10514   0.11169   0.11207   0.11638   0.12675

  Beta  occ. eigenvalues --  -14.25982 -14.22080 -14.21980 -14.17883 -10.16059
  Beta  occ. eigenvalues --  -10.11943 -10.11400 -10.11339 -10.10269 -10.10177
  Beta  occ. eigenvalues --  -10.09777 -10.08069 -10.07385 -10.07364 -10.06534
  Beta  occ. eigenvalues --  -10.06367 -10.06362 -10.06152 -10.05765 -10.05368
  Beta  occ. eigenvalues --   -0.91012  -0.85416  -0.81365  -0.77947  -0.74487
  Beta  occ. eigenvalues --   -0.71311  -0.66872  -0.64163  -0.63554  -0.63492
  Beta  occ. eigenvalues --   -0.61979  -0.59277  -0.51361  -0.50923  -0.49765
  Beta  occ. eigenvalues --   -0.49401  -0.48164  -0.45480  -0.43209  -0.42490
  Beta  occ. eigenvalues --   -0.40448  -0.39847  -0.38171  -0.36683  -0.36479
  Beta  occ. eigenvalues --   -0.34833  -0.33970  -0.33340  -0.32759  -0.32112
  Beta  occ. eigenvalues --   -0.31323  -0.30787  -0.30177  -0.29543  -0.28988
  Beta  occ. eigenvalues --   -0.27901  -0.27184  -0.25658  -0.25441  -0.25286
  Beta  occ. eigenvalues --   -0.24400  -0.24089  -0.23806  -0.23492  -0.23140
  Beta  occ. eigenvalues --   -0.16831  -0.16705  -0.15534  -0.14393  -0.13928
  Beta  occ. eigenvalues --   -0.10328
  Beta virt. eigenvalues --    0.06305   0.07164   0.07593   0.07806   0.08315
  Beta virt. eigenvalues --    0.08896   0.09062   0.09502   0.09902   0.10024
  Beta virt. eigenvalues --    0.10603   0.10828   0.11204   0.11296   0.11776

 Mulliken charges and spin densities:
               1          2
     1  C    0.417629  -0.810222
     2  N    0.135044   0.092630
     3  C    0.641899  -0.145100
     4  C   -0.386595   0.035682
     5  N    0.025277   0.042467
     6  C   -0.367570  -0.101788
     7  C    0.870256   0.007350
     8  C   -0.161659   0.199415
     9  C   -0.480966   0.005976
    10  C   -0.277572   0.134612
    11  C   -0.394848   0.109952
    12  C   -0.315592  -0.134567
    13  C   -0.585749   0.319470
    14  C   -0.554160  -0.132138
    15  N   -0.248714   0.011148
    16  N    0.412088  -0.047361
    17  C    0.376881  -0.545785
    18  C    0.088657  -0.367278
    19  C   -0.565426   0.235039
    20  C    0.035354  -0.335008
    21  H   -0.078366   0.208712
    22  H   -0.312884   0.530157
    23  H    0.214965  -0.047827
    24  H    0.141550   0.006420
    25  H    0.163099   0.004906
    26  H    0.124850   0.007787
    27  H    0.108592  -0.012050
    28  H    0.028802   0.128999
    29  H   -0.107123   0.160146
    30  H   -0.037461   0.245531
    31  H   -0.097944   0.264285
    32  H   -0.495388   0.673517
    33  H    0.346204  -0.272282
    34  H   -0.180475   0.366813
    35  H    0.165317   0.019066
    36  H    0.109903   0.067596
    37  H    0.158470  -0.012571
    38  H    0.083656   0.086303
 Sum of Mulliken charges =  -1.00000   1.00000

 Dipole moment (field-independent basis, Debye):
    X=              0.8533    Y=             -0.4428    Z=             -1.8028  Tot=              2.0431
 Quadrupole moment (field-independent basis, Debye-Ang):
   XX=           -190.9750   YY=           -161.6645   ZZ=           -146.4302
   XY=              7.7652   XZ=              9.0492   YZ=              7.9059

 Summary of Natural Population Analysis:

                                       Natural Population
                Natural  -----------------------------------------------
    Atom  No    Charge         Core      Valence    Rydberg      Total
 -----------------------------------------------------------------------
      C    1   -0.17892      0.99963     2.17118    0.00811     3.17892
      N    2   -0.19228      0.99959     2.68332    0.00937     3.69228
      C    3    0.05034      0.99949     1.93683    0.01334     2.94966
      C    4   -0.03101      0.99950     2.01891    0.01260     3.03101
      N    5   -0.24531      0.99970     2.73754    0.00808     3.74531
      C    6    0.20611      0.99956     1.77543    0.01890     2.79389
      C    7   -0.02834      0.99948     2.01845    0.01041     3.02834
      C    8   -0.06971      0.99954     2.06238    0.00779     3.06971
      C    9   -0.11118      0.99957     2.10314    0.00847     3.11118
      C   10   -0.06735      0.99957     2.05847    0.00930     3.06735
      C   11   -0.11553      0.99957     2.10487    0.01109     3.11553
      C   12   -0.08338      0.99954     2.07494    0.00890     3.08338
      C   13   -0.07326      0.99945     2.05965    0.01416     3.07326
      C   14    0.16987      0.99964     1.81079    0.01969     2.83013
      N   15   -0.18223      0.99979     2.67200    0.01045     3.68223
      N   16   -0.26783      0.99973     2.75479    0.01331     3.76783
      C   17   -0.08821      0.99962     2.07686    0.01173     3.08821
      C   18   -0.20428      0.99964     2.19707    0.00757     3.20428
      C   19   -0.20533      0.99964     2.19855    0.00714     3.20533
      C   20   -0.09030      0.99963     2.08038    0.01030     3.09030
      H   21    0.09669      0.00000     0.40239    0.00092     0.40331
      H   22    0.10059      0.00000     0.39701    0.00240     0.39941
      H   23    0.11145      0.00000     0.38762    0.00093     0.38855
      H   24    0.09777      0.00000     0.40127    0.00096     0.40223
      H   25    0.10545      0.00000     0.39367    0.00089     0.39455
      H   26    0.09374      0.00000     0.40532    0.00094     0.40626
      H   27    0.09150      0.00000     0.40769    0.00081     0.40850
      H   28    0.09650      0.00000     0.40275    0.00075     0.40350
      H   29    0.09768      0.00000     0.40069    0.00163     0.40232
      H   30    0.12362      0.00000     0.37422    0.00216     0.37638
      H   31    0.09375      0.00000     0.40513    0.00112     0.40625
      H   32    0.10108      0.00000     0.39700    0.00192     0.39892
      H   33    0.10158      0.00000     0.39676    0.00165     0.39842
      H   34    0.09866      0.00000     0.40010    0.00124     0.40134
      H   35    0.10756      0.00000     0.39135    0.00109     0.39244
      H   36    0.09608      0.00000     0.40307    0.00085     0.40392
      H   37    0.10145      0.00000     0.39755    0.00100     0.39855
      H   38    0.09300      0.00000     0.40608    0.00092     0.40700
 =======================================================================
   * Total *   -0.00000     19.99188    50.76524    0.24288    71.00000

 Normal termination of Gaussian 16 at Sun Dec 13 21:59:47 2020.
