 Gaussian 16, Revision A.03,

 -----------------------------------------------------------
 # opt freq B3LYP/6-31G(d) empiricaldispersion=gd3bj scf=xqc
 -----------------------------------------------------------

 ------------------------------
 CID_20307511_JID_6017_neutraal
 ------------------------------
 Symbolic Z-matrix:
 Charge =  0 Multiplicity = 1

 SCF Done:  E(RB3LYP) =  -693.398706777     A.U. after   13 cycles
 SCF Done:  E(RB3LYP) =  -693.404315357     A.U. after   12 cycles
 SCF Done:  E(RB3LYP) =  -693.404701356     A.U. after   12 cycles
 SCF Done:  E(RB3LYP) =  -693.403889582     A.U. after   12 cycles
 SCF Done:  E(RB3LYP) =  -693.404975641     A.U. after   11 cycles
 SCF Done:  E(RB3LYP) =  -693.405166761     A.U. after   10 cycles
 SCF Done:  E(RB3LYP) =  -693.405200602     A.U. after   10 cycles
 SCF Done:  E(RB3LYP) =  -693.405222310     A.U. after   10 cycles
 SCF Done:  E(RB3LYP) =  -693.405228137     A.U. after   10 cycles
 SCF Done:  E(RB3LYP) =  -693.405230090     A.U. after    8 cycles
 SCF Done:  E(RB3LYP) =  -693.405230782     A.U. after    7 cycles
 SCF Done:  E(RB3LYP) =  -693.405231115     A.U. after    7 cycles
 SCF Done:  E(RB3LYP) =  -693.405231278     A.U. after    7 cycles
 SCF Done:  E(RB3LYP) =  -693.405231336     A.U. after    7 cycles
 Optimization completed.
    -- Stationary point found.
 Normal termination of Gaussian 16 at Thu Dec 10 21:10:57 2020.

 --------------------------------------------------------------------
 #N Geom=AllCheck Guess=TCheck SCRF=Check GenChk RB3LYP/6-31G(d) Freq
 --------------------------------------------------------------------

 Structure from the checkpoint file:  "JID_6017.chk"
 ------------------------------
 CID_20307511_JID_6017_neutraal
 ------------------------------
 Charge =  0 Multiplicity = 1

 SCF Done:  E(RB3LYP) =  -693.405231336     A.U. after    1 cycles

  Exact polarizability: 208.425  -7.726 157.157   1.477   4.474 107.371
 Approx polarizability: 283.783 -11.071 246.588   3.469  12.155 153.648

                      1                      2                      3
                      A                      A                      A
 Frequencies --     36.4599                60.3143                89.5958
 Red. masses --      3.7485                 3.5151                 3.5534
 Frc consts  --      0.0029                 0.0075                 0.0168
 IR Inten    --      0.4565                 0.7369                 0.3884

                      4                      5                      6
                      A                      A                      A
 Frequencies --     93.7303               118.6911               144.5032
 Red. masses --      3.3188                 1.9925                 2.1517
 Frc consts  --      0.0172                 0.0165                 0.0265
 IR Inten    --      3.1547                 4.4131                 0.3298

                      7                      8                      9
                      A                      A                      A
 Frequencies --    164.2879               171.1690               177.9472
 Red. masses --      2.3965                 1.3616                 1.5475
 Frc consts  --      0.0381                 0.0235                 0.0289
 IR Inten    --      1.5987                 0.8758                 2.6094

                     10                     11                     12
                      A                      A                      A
 Frequencies --    195.3923               209.1489               219.5600
 Red. masses --      2.6678                 2.2879                 2.3497
 Frc consts  --      0.0600                 0.0590                 0.0667
 IR Inten    --      0.2841                 9.1141                 4.3048

                     13                     14                     15
                      A                      A                      A
 Frequencies --    247.3042               257.0818               280.1165
 Red. masses --      1.0917                 1.6203                 1.3716
 Frc consts  --      0.0393                 0.0631                 0.0634
 IR Inten    --      0.0183                 0.2302                19.9530

                     16                     17                     18
                      A                      A                      A
 Frequencies --    303.9049               314.9356               323.8658
 Red. masses --      1.9669                 1.7877                 2.8154
 Frc consts  --      0.1070                 0.1045                 0.1740
 IR Inten    --      1.9008                 5.1331                 4.5605

                     19                     20                     21
                      A                      A                      A
 Frequencies --    345.5821               372.8878               389.7442
 Red. masses --      3.0077                 4.0587                 3.2835
 Frc consts  --      0.2116                 0.3325                 0.2939
 IR Inten    --      4.0114                 2.1803                 5.8113

                     22                     23                     24
                      A                      A                      A
 Frequencies --    414.5144               438.5809               450.6700
 Red. masses --      2.9521                 2.5669                 3.1188
 Frc consts  --      0.2989                 0.2909                 0.3732
 IR Inten    --      2.9779                 7.9418                 1.4389

                     25                     26                     27
                      A                      A                      A
 Frequencies --    499.5753               533.9002               551.7616
 Red. masses --      3.7379                 3.3131                 3.7406
 Frc consts  --      0.5496                 0.5564                 0.6710
 IR Inten    --      3.3160                18.9889                 5.3596

                     28                     29                     30
                      A                      A                      A
 Frequencies --    594.1085               627.4476               683.1484
 Red. masses --      3.3669                 3.4184                 2.5085
 Frc consts  --      0.7002                 0.7929                 0.6897
 IR Inten    --     28.9791                 8.0518                98.5650

                     31                     32                     33
                      A                      A                      A
 Frequencies --    704.5613               739.1338               781.8482
 Red. masses --      1.9991                 3.0106                 3.4983
 Frc consts  --      0.5847                 0.9691                 1.2599
 IR Inten    --    145.5633               112.6653                 5.5202

                     34                     35                     36
                      A                      A                      A
 Frequencies --    818.3041               841.9312               851.3162
 Red. masses --      1.4001                 1.4627                 2.4388
 Frc consts  --      0.5524                 0.6109                 1.0414
 IR Inten    --      1.8320                40.9028                 7.9220

                     37                     38                     39
                      A                      A                      A
 Frequencies --    878.4688               903.4079               935.0912
 Red. masses --      1.3643                 2.1192                 1.6770
 Frc consts  --      0.6203                 1.0190                 0.8640
 IR Inten    --      9.8279                 2.9532                 0.6744

                     40                     41                     42
                      A                      A                      A
 Frequencies --    963.6052               967.1677               971.6044
 Red. masses --      1.8844                 2.3986                 1.3819
 Frc consts  --      1.0309                 1.3220                 0.7686
 IR Inten    --      1.7924                13.4777                 1.4000

                     43                     44                     45
                      A                      A                      A
 Frequencies --    996.9786              1035.7745              1071.5023
 Red. masses --      2.2454                 1.7342                 1.4754
 Frc consts  --      1.3149                 1.0961                 0.9980
 IR Inten    --      7.3465                31.3898                 1.9865

                     46                     47                     48
                      A                      A                      A
 Frequencies --   1083.9849              1091.5990              1103.6999
 Red. masses --      2.3793                 2.7068                 1.6222
 Frc consts  --      1.6472                 1.9003                 1.1642
 IR Inten    --     34.6881                14.2817                 4.5669

                     49                     50                     51
                      A                      A                      A
 Frequencies --   1129.0568              1145.8381              1167.4685
 Red. masses --      1.8222                 2.5561                 1.7508
 Frc consts  --      1.3686                 1.9773                 1.4060
 IR Inten    --     15.1526                47.0629                46.2276

                     52                     53                     54
                      A                      A                      A
 Frequencies --   1185.6331              1191.5148              1198.1977
 Red. masses --      2.3989                 1.3880                 1.2843
 Frc consts  --      1.9869                 1.1610                 1.0864
 IR Inten    --     32.2185                 4.6436                13.7352

                     55                     56                     57
                      A                      A                      A
 Frequencies --   1220.2968              1229.9052              1239.8135
 Red. masses --      1.9716                 2.2990                 2.5082
 Frc consts  --      1.7298                 2.0490                 2.2716
 IR Inten    --     23.6591                25.9431                60.5228

                     58                     59                     60
                      A                      A                      A
 Frequencies --   1303.0586              1326.2095              1332.0850
 Red. masses --      2.1540                 1.5757                 1.7145
 Frc consts  --      2.1549                 1.6328                 1.7925
 IR Inten    --    113.3763                 5.7977                26.9190

                     61                     62                     63
                      A                      A                      A
 Frequencies --   1342.2679              1352.1627              1367.6719
 Red. masses --      1.7351                 1.2416                 2.1495
 Frc consts  --      1.8418                 1.3375                 2.3689
 IR Inten    --     11.4196                15.7357                 3.0175

                     64                     65                     66
                      A                      A                      A
 Frequencies --   1380.3233              1413.7344              1424.3175
 Red. masses --      1.8544                 1.2297                 1.3066
 Frc consts  --      2.0817                 1.4480                 1.5617
 IR Inten    --      3.7243                 3.6248                 0.7091

                     67                     68                     69
                      A                      A                      A
 Frequencies --   1439.0410              1440.6359              1441.8858
 Red. masses --      1.2496                 1.2447                 1.2598
 Frc consts  --      1.5246                 1.5220                 1.5432
 IR Inten    --     15.7522                 2.8421                 1.2272

                     70                     71                     72
                      A                      A                      A
 Frequencies --   1462.5209              1476.6745              1494.1527
 Red. masses --      1.4116                 2.8539                 1.1406
 Frc consts  --      1.7789                 3.6666                 1.5003
 IR Inten    --     18.9278                43.1723                 1.9489

                     73                     74                     75
                      A                      A                      A
 Frequencies --   1509.9532              1513.5498              1516.5780
 Red. masses --      1.0535                 1.0448                 1.0696
 Frc consts  --      1.4152                 1.4101                 1.4494
 IR Inten    --      0.7553                 5.7222                 2.1869

                     76                     77                     78
                      A                      A                      A
 Frequencies --   1521.2621              1527.2097              1532.6065
 Red. masses --      1.0559                 1.0832                 1.1535
 Frc consts  --      1.4398                 1.4885                 1.5964
 IR Inten    --      5.8409                 6.6677                 3.9231

                     79                     80                     81
                      A                      A                      A
 Frequencies --   1532.8075              1537.5884              1546.5112
 Red. masses --      1.0939                 1.0568                 1.0579
 Frc consts  --      1.5142                 1.4721                 1.4908
 IR Inten    --      1.0051                12.1551                 4.6412

                     82                     83                     84
                      A                      A                      A
 Frequencies --   1549.0520              1562.7273              1637.3360
 Red. masses --      1.1198                 2.2366                 6.2965
 Frc consts  --      1.5832                 3.2181                 9.9455
 IR Inten    --     31.9171               199.4603                 1.1981

                     85                     86                     87
                      A                      A                      A
 Frequencies --   1676.4993              1698.2886              2964.4260
 Red. masses --      2.9381                 1.3937                 1.0735
 Frc consts  --      4.8655                 2.3683                 5.5584
 IR Inten    --     30.4255                42.2140                66.0701

                     88                     89                     90
                      A                      A                      A
 Frequencies --   3001.3368              3014.5608              3032.6069
 Red. masses --      1.0475                 1.0481                 1.0563
 Frc consts  --      5.5597                 5.6116                 5.7238
 IR Inten    --     62.4179                50.4217                51.1047

                     91                     92                     93
                      A                      A                      A
 Frequencies --   3057.6827              3061.1248              3069.5265
 Red. masses --      1.0374                 1.0377                 1.0904
 Frc consts  --      5.7148                 5.7293                 6.0532
 IR Inten    --     11.8036                49.2325                23.7718

                     94                     95                     96
                      A                      A                      A
 Frequencies --   3073.9543              3092.2673              3094.5719
 Red. masses --      1.1001                 1.0851                 1.0909
 Frc consts  --      6.1246                 6.1131                 6.1550
 IR Inten    --     30.8388                32.7792                18.7241

                     97                     98                     99
                      A                      A                      A
 Frequencies --   3102.6217              3124.1449              3125.8413
 Red. masses --      1.0886                 1.1003                 1.1007
 Frc consts  --      6.1740                 6.3275                 6.3365
 IR Inten    --      5.9344                72.1440                 6.2490

                    100                    101                    102
                      A                      A                      A
 Frequencies --   3126.7768              3132.7495              3135.1928
 Red. masses --      1.0985                 1.1020                 1.1047
 Frc consts  --      6.3276                 6.3723                 6.3976
 IR Inten    --     16.2747                36.3017                27.0057

                    103                    104                    105
                      A                      A                      A
 Frequencies --   3145.1865              3166.9155              3199.2064
 Red. masses --      1.1014                 1.0890                 1.0887
 Frc consts  --      6.4194                 6.4347                 6.5654
 IR Inten    --     33.0452                29.1624                14.6026

                    106                    107                    108
                      A                      A                      A
 Frequencies --   3212.3214              3529.8041              3625.7205
 Red. masses --      1.0924                 1.0482                 1.0966
 Frc consts  --      6.6413                 7.6949                 8.4932
 IR Inten    --      0.9609                 3.1155                 4.5578

 - Thermochemistry -
 -------------------
 Temperature   298.150 Kelvin.  Pressure   1.00000 Atm.
 Atom     1 has atomic number  6 and mass  12.00000

 Molecular mass:   222.17321 amu.
 Principal axes and moments of inertia in atomic units:
                           1         2         3
     Eigenvalues --  2106.340755769.012226706.72064
           X            0.99998  -0.00418  -0.00374
           Y            0.00417   0.99998  -0.00391
           Z            0.00375   0.00390   0.99999
 This molecule is an asymmetric top.
 Rotational symmetry number  1.
 Warning -- assumption of classical behavior for rotation
           may cause significant error
 Rotational temperatures (Kelvin)      0.04112     0.01501     0.01291
 Rotational constants (GHZ):           0.85681     0.31283     0.26909
 Zero-point vibrational energy     889452.7 (Joules/Mol)
                                  212.58430 (Kcal/Mol)
 Warning -- explicit consideration of  28 degrees of freedom as
           vibrations may cause significant error
 Vibrational temperatures:     52.46    86.78   128.91   134.86   170.77
          (Kelvin)            207.91   236.37   246.27   256.03   281.13
                              300.92   315.90   355.82   369.88   403.03
                              437.25   453.12   465.97   497.22   536.50
                              560.75   596.39   631.02   648.41   718.78
                              768.16   793.86   854.79   902.76   982.90
                             1013.71  1063.45  1124.91  1177.36  1211.35
                             1224.85  1263.92  1299.80  1345.39  1386.41
                             1391.54  1397.92  1434.43  1490.25  1541.65
                             1559.61  1570.57  1587.98  1624.46  1648.61
                             1679.73  1705.86  1714.32  1723.94  1755.73
                             1769.56  1783.82  1874.81  1908.12  1916.57
                             1931.22  1945.46  1967.77  1985.98  2034.05
                             2049.28  2070.46  2072.75  2074.55  2104.24
                             2124.61  2149.75  2172.49  2177.66  2182.02
                             2188.76  2197.31  2205.08  2205.37  2212.25
                             2225.08  2228.74  2248.42  2355.76  2412.11
                             2443.46  4265.15  4318.25  4337.28  4363.24
                             4399.32  4404.28  4416.36  4422.73  4449.08
                             4452.40  4463.98  4494.95  4497.39  4498.73
                             4507.33  4510.84  4525.22  4556.49  4602.94
                             4621.81  5078.60  5216.60

 Zero-point correction=                           0.338775 (Hartree/Particle)
 Thermal correction to Energy=                    0.356407
 Thermal correction to Enthalpy=                  0.357351
 Thermal correction to Gibbs Free Energy=         0.294458
 Sum of electronic and zero-point Energies=           -693.066457
 Sum of electronic and thermal Energies=              -693.048824
 Sum of electronic and thermal Enthalpies=            -693.047880
 Sum of electronic and thermal Free Energies=         -693.110774

                     E (Thermal)             CV                S
                      KCal/Mol        Cal/Mol-Kelvin    Cal/Mol-Kelvin
 Total                  223.649             67.220            132.371
 Electronic               0.000              0.000              0.000
 Translational            0.889              2.981             42.098
 Rotational               0.889              2.981             32.766
 Vibrational            221.871             61.259             57.507
 Vibration     1          0.594              1.982              5.443
 Vibration     2          0.597              1.973              4.447
 Vibration     3          0.602              1.957              3.669
 Vibration     4          0.603              1.954              3.581
 Vibration     5          0.609              1.934              3.122
 Vibration     6          0.616              1.909              2.743
 Vibration     7          0.623              1.886              2.500
 Vibration     8          0.626              1.878              2.423
 Vibration     9          0.628              1.869              2.350
 Vibration    10          0.636              1.846              2.176
 Vibration    11          0.642              1.827              2.051
 Vibration    12          0.647              1.811              1.963
 Vibration    13          0.661              1.767              1.750
 Vibration    14          0.667              1.751              1.682
 Vibration    15          0.680              1.710              1.533
 Vibration    16          0.695              1.666              1.395
 Vibration    17          0.702              1.645              1.336
 Vibration    18          0.708              1.628              1.291
 Vibration    19          0.724              1.584              1.186
 Vibration    20          0.744              1.528              1.068
 Vibration    21          0.758              1.492              1.001
 Vibration    22          0.778              1.439              0.911
 Vibration    23          0.799              1.386              0.831
 Vibration    24          0.809              1.359              0.794
 Vibration    25          0.855              1.251              0.659
 Vibration    26          0.889              1.175              0.579
 Vibration    27          0.907              1.136              0.541
 Vibration    28          0.952              1.044              0.460

 Optimization completed.
    -- Stationary point found.
 Normal termination of Gaussian 16 at Thu Dec 10 21:24:07 2020.

 ----------------------------------------------------------------------
 # B3LYP/6-311++G(d,p) empiricaldispersion=gd3bj scf=xqc pop=npa geom=c
 heck
 ----------------------------------------------------------------------

 --------------------------------------
 CID_20307511_JID_6017_Energie_neutraal
 --------------------------------------
 Structure from the checkpoint file:  "JID_6017.chk"
 Charge =  0 Multiplicity = 1

 SCF Done:  E(RB3LYP) =  -693.602190386     A.U. after   15 cycles
 Normal termination of Gaussian 16 at Thu Dec 10 21:30:16 2020.

 ----------------------------------------------------------------------
 # B3LYP/6-311++G(d,p) empiricaldispersion=gd3bj scf=xqc pop=npa geom=c
 heck
 ----------------------------------------------------------------------

 ------------------------------------
 CID_20307511_JID_6017_Energie_kation
 ------------------------------------
 Structure from the checkpoint file:  "JID_6017.chk"
 Charge =  1 Multiplicity = 2

 SCF Done:  E(UB3LYP) =  -693.364259194     A.U. after   20 cycles
 Normal termination of Gaussian 16 at Thu Dec 10 21:42:46 2020.
 Gaussian 16:  ES64L-G16RevA.03 25-Dec-2016

 ----------------------------------------------------------------------
 # B3LYP/6-311++G(d,p) empiricaldispersion=gd3bj scf=xqc pop=npa geom=c
 heck
 ----------------------------------------------------------------------

 -----------------------------------
 CID_20307511_JID_6017_Energie_anion
 -----------------------------------
 Structure from the checkpoint file:  "JID_6017.chk"
 Charge = -1 Multiplicity = 2

                         Standard orientation:
 ---------------------------------------------------------------------
 Center     Atomic      Atomic             Coordinates (Angstroms)
 Number     Number       Type             X           Y           Z
 ---------------------------------------------------------------------
      1          6           0        2.655724   -1.905643   -1.329461
      2          6           0        1.284250   -1.827207   -0.653671
      3          7           0        0.985734   -0.535823   -0.044543
      4          6           0       -0.376979   -0.142453    0.006472
      5          6           0       -1.438648   -1.052116   -0.110475
      6          6           0       -2.775954   -0.646332   -0.096957
      7          6           0       -3.079993    0.717016    0.073191
      8          6           0       -2.025769    1.629547    0.209332
      9          6           0       -0.700081    1.216492    0.161674
     10          7           0       -4.417596    1.158011    0.036062
     11          6           0       -3.888525   -1.651294   -0.252514
     12          6           0        1.833768   -0.059950    1.067983
     13          6           0        2.315035   -1.178876    2.005068
     14          6           0        2.996802    0.831168    0.603824
     15          8           0        2.560466    2.020718   -0.035543
     16          6           0        2.436746    1.928249   -1.445167
     17          1           0        2.773548   -1.100415   -2.060964
     18          1           0        2.747450   -2.863975   -1.853398
     19          1           0        3.483650   -1.843059   -0.618151
     20          1           0        0.527886   -1.987732   -1.426057
     21          1           0        1.182722   -2.664558    0.058921
     22          1           0       -1.234701   -2.114022   -0.203119
     23          1           0       -2.250612    2.687395    0.331098
     24          1           0        0.099650    1.945852    0.239031
     25          1           0       -4.540937    2.082140    0.434129
     26          1           0       -5.075434    0.511253    0.456452
     27          1           0       -4.517313   -1.715982    0.648604
     28          1           0       -4.552515   -1.383254   -1.084537
     29          1           0       -3.492841   -2.653200   -0.442360
     30          1           0        1.192815    0.592630    1.666522
     31          1           0        3.022732   -1.862052    1.525210
     32          1           0        2.815226   -0.745075    2.877639
     33          1           0        1.463534   -1.766655    2.362526
     34          1           0        3.555767    1.152775    1.491957
     35          1           0        3.692234    0.280996   -0.044218
     36          1           0        3.377021    1.579843   -1.901373
     37          1           0        1.626059    1.255588   -1.744159
     38          1           0        2.225103    2.938844   -1.805841
 ---------------------------------------------------------------------

 SCF Done:  E(UB3LYP) =  -693.588958124     A.U. after   33 cycles
 SCF Done:  E(UB3LYP) =  -693.588958124     a.u. after    1 cycles

 The electronic state is 2-A.
 Alpha  occ. eigenvalues --  -19.03689 -14.21742 -14.21243 -10.12446 -10.12066
 Alpha  occ. eigenvalues --  -10.11258 -10.10313 -10.10190 -10.09993 -10.07510
 Alpha  occ. eigenvalues --  -10.07219 -10.06991 -10.06807 -10.06696 -10.06468
 Alpha  occ. eigenvalues --  -10.06291  -0.94709  -0.84078  -0.81447  -0.73412
 Alpha  occ. eigenvalues --   -0.69095  -0.67411  -0.65529  -0.62484  -0.60826
 Alpha  occ. eigenvalues --   -0.58441  -0.56329  -0.53535  -0.50535  -0.49470
 Alpha  occ. eigenvalues --   -0.46229  -0.42734  -0.41168  -0.40580  -0.39765
 Alpha  occ. eigenvalues --   -0.38860  -0.38173  -0.36532  -0.34836  -0.33635
 Alpha  occ. eigenvalues --   -0.33002  -0.32652  -0.32391  -0.31311  -0.30859
 Alpha  occ. eigenvalues --   -0.30364  -0.29706  -0.28745  -0.28232  -0.27903
 Alpha  occ. eigenvalues --   -0.27463  -0.26415  -0.25573  -0.24985  -0.23963
 Alpha  occ. eigenvalues --   -0.22430  -0.21759  -0.17778  -0.14677  -0.14074
 Alpha  occ. eigenvalues --   -0.08376   0.04110
 Alpha virt. eigenvalues --    0.05510   0.06803   0.06844   0.07721   0.08033
 Alpha virt. eigenvalues --    0.08478   0.09298   0.09397   0.10020   0.10271
 Alpha virt. eigenvalues --    0.10356   0.11019   0.11463   0.11568   0.12316

  Beta  occ. eigenvalues --  -19.03684 -14.21740 -14.21195 -10.12436 -10.12057
  Beta  occ. eigenvalues --  -10.11255 -10.10298 -10.10188 -10.09993 -10.07509
  Beta  occ. eigenvalues --  -10.07187 -10.06961 -10.06771 -10.06687 -10.06461
  Beta  occ. eigenvalues --  -10.06288  -0.94697  -0.84067  -0.81388  -0.73386
  Beta  occ. eigenvalues --   -0.69074  -0.67385  -0.65499  -0.62460  -0.60787
  Beta  occ. eigenvalues --   -0.58394  -0.56290  -0.53488  -0.50504  -0.49431
  Beta  occ. eigenvalues --   -0.46197  -0.42712  -0.41132  -0.40536  -0.39746
  Beta  occ. eigenvalues --   -0.38840  -0.38153  -0.36510  -0.34804  -0.33602
  Beta  occ. eigenvalues --   -0.32977  -0.32624  -0.32356  -0.31281  -0.30828
  Beta  occ. eigenvalues --   -0.30340  -0.29681  -0.28716  -0.28208  -0.27866
  Beta  occ. eigenvalues --   -0.27431  -0.26388  -0.25547  -0.24961  -0.23942
  Beta  occ. eigenvalues --   -0.22410  -0.21734  -0.17765  -0.14656  -0.14053
  Beta  occ. eigenvalues --   -0.08352
  Beta virt. eigenvalues --    0.06086   0.06747   0.07169   0.07253   0.08261
  Beta virt. eigenvalues --    0.08373   0.08626   0.09441   0.09730   0.10426
  Beta virt. eigenvalues --    0.10525   0.10629   0.11140   0.11703   0.11738

 Mulliken charges and spin densities:
               1          2
     1  C    0.871094  -1.518536
     2  C   -0.779798   0.714999
     3  N    0.455342   0.038685
     4  C   -0.134030  -0.795354
     5  C   -0.163314   0.048389
     6  C   -0.482576   1.525698
     7  C   -1.879564   0.696664
     8  C   -0.265170  -0.007558
     9  C    1.139092  -0.790769
    10  N   -0.292932   0.004542
    11  C    2.544151  -2.911045
    12  C   -1.291106   1.047085
    13  C    0.700821  -1.301051
    14  C    0.016387  -0.322213
    15  O   -0.099088   0.012155
    16  C   -0.127323  -0.209955
    17  H    0.006831   0.150243
    18  H   -0.365807   0.516344
    19  H   -0.080128   0.217565
    20  H    0.142421  -0.012337
    21  H   -0.103628   0.261117
    22  H   -0.065069   0.205231
    23  H   -0.127099   0.266258
    24  H    0.221778  -0.042778
    25  H   -0.204476   0.443794
    26  H   -0.213253   0.463175
    27  H   -0.296985   0.464368
    28  H   -0.058962   0.230037
    29  H   -0.191863   0.326331
    30  H    0.177570   0.012976
    31  H   -0.246628   0.395746
    32  H   -0.075899   0.210959
    33  H   -0.081369   0.252111
    34  H    0.003821   0.146674
    35  H    0.133327   0.031945
    36  H   -0.007718   0.105545
    37  H    0.105112   0.081456
    38  H    0.116036   0.041506
 Sum of Mulliken charges =  -1.00000   1.00000

 Dipole moment (field-independent basis, Debye):
    X=              4.7937    Y=              2.7573    Z=             -1.1269  Tot=              5.6437
 Quadrupole moment (field-independent basis, Debye-Ang):
   XX=           -199.2547   YY=           -147.7598   ZZ=           -133.9640
   XY=             10.5069   XZ=              2.5701   YZ=             -0.8137

 Summary of Natural Population Analysis:

                                       Natural Population
                Natural  -----------------------------------------------
    Atom  No    Charge         Core      Valence    Rydberg      Total
 -----------------------------------------------------------------------
      C    1   -0.28878      0.99966     2.28385    0.00528     3.28878
      C    2   -0.08611      0.99961     2.07479    0.01170     3.08611
      N    3   -0.27948      0.99965     2.76514    0.01469     3.77948
      C    4    0.08059      0.99946     1.90877    0.01119     2.91941
      C    5   -0.11631      0.99948     2.10834    0.00849     3.11631
      C    6   -0.02976      0.99949     2.02025    0.01002     3.02976
      C    7    0.07204      0.99943     1.91695    0.01158     2.92796
      C    8   -0.11427      0.99952     2.10512    0.00963     3.11427
      C    9   -0.11851      0.99952     2.10996    0.00903     3.11851
      N   10   -0.40080      0.99972     2.89042    0.01066     3.90080
      C   11   -0.29609      0.99964     2.29026    0.00619     3.29609
      C   12   -0.01562      0.99957     2.00411    0.01194     3.01562
      C   13   -0.29604      0.99964     2.29090    0.00551     3.29604
      C   14   -0.00967      0.99953     1.99732    0.01282     3.00967
      O   15   -0.30229      0.99989     3.29327    0.00914     4.30229
      C   16   -0.09861      0.99960     2.09092    0.00809     3.09861
      H   17    0.09780      0.00000     0.40095    0.00125     0.40220
      H   18    0.10163      0.00000     0.39732    0.00105     0.39837
      H   19    0.09538      0.00000     0.40309    0.00152     0.40462
      H   20    0.10069      0.00000     0.39786    0.00146     0.39931
      H   21    0.08537      0.00000     0.41304    0.00158     0.41463
      H   22    0.10095      0.00000     0.39763    0.00143     0.39905
      H   23    0.09666      0.00000     0.40245    0.00090     0.40334
      H   24    0.10802      0.00000     0.38976    0.00221     0.39198
      H   25    0.18294      0.00000     0.31444    0.00262     0.31706
      H   26    0.18714      0.00000     0.30947    0.00339     0.31286
      H   27    0.10258      0.00000     0.39570    0.00172     0.39742
      H   28    0.10524      0.00000     0.39355    0.00121     0.39476
      H   29    0.10303      0.00000     0.39595    0.00102     0.39697
      H   30    0.10300      0.00000     0.39485    0.00215     0.39700
      H   31    0.10022      0.00000     0.39866    0.00111     0.39978
      H   32    0.10187      0.00000     0.39730    0.00083     0.39813
      H   33    0.10627      0.00000     0.39272    0.00101     0.39373
      H   34    0.08689      0.00000     0.41186    0.00125     0.41311
      H   35    0.08126      0.00000     0.41716    0.00158     0.41874
      H   36    0.07566      0.00000     0.42305    0.00129     0.42434
      H   37    0.09119      0.00000     0.40745    0.00136     0.40881
      H   38    0.08591      0.00000     0.41314    0.00095     0.41409
 =======================================================================
   * Total *    0.00000     15.99341    44.81775    0.18883    61.00000

 Normal termination of Gaussian 16 at Thu Dec 10 22:03:20 2020.
