 Gaussian 16, Revision A.03,

 -----------------------------------------------------------
 # opt freq B3LYP/6-31G(d) empiricaldispersion=gd3bj scf=xqc
 -----------------------------------------------------------

 ------------------------------
 CID_81818194_JID_7488_neutraal
 ------------------------------
 Symbolic Z-matrix:
 Charge =  0 Multiplicity = 1

 SCF Done:  E(RB3LYP) =  -1054.39686858     A.U. after   14 cycles
 SCF Done:  E(RB3LYP) =  -1054.40400134     A.U. after   13 cycles
 SCF Done:  E(RB3LYP) =  -1054.40439086     A.U. after   12 cycles
 SCF Done:  E(RB3LYP) =  -1054.40554729     A.U. after   11 cycles
 SCF Done:  E(RB3LYP) =  -1054.40611477     A.U. after   11 cycles
 SCF Done:  E(RB3LYP) =  -1054.40693759     A.U. after   13 cycles
 SCF Done:  E(RB3LYP) =  -1054.40727743     A.U. after   12 cycles
 SCF Done:  E(RB3LYP) =  -1054.40761871     A.U. after   11 cycles
 SCF Done:  E(RB3LYP) =  -1054.40775719     A.U. after   11 cycles
 SCF Done:  E(RB3LYP) =  -1054.40780739     A.U. after   11 cycles
 SCF Done:  E(RB3LYP) =  -1054.40805587     A.U. after   11 cycles
 SCF Done:  E(RB3LYP) =  -1054.40806941     A.U. after   10 cycles
 SCF Done:  E(RB3LYP) =  -1054.40807190     A.U. after    9 cycles
 SCF Done:  E(RB3LYP) =  -1054.40807250     A.U. after    8 cycles
 SCF Done:  E(RB3LYP) =  -1054.40807254     A.U. after    6 cycles
 Optimization completed.
    -- Stationary point found.
 Normal termination of Gaussian 16 at Mon Dec 14 13:27:19 2020.

 --------------------------------------------------------------------
 #N Geom=AllCheck Guess=TCheck SCRF=Check GenChk RB3LYP/6-31G(d) Freq
 --------------------------------------------------------------------

 Structure from the checkpoint file:  "JID_7488.chk"
 ------------------------------
 CID_81818194_JID_7488_neutraal
 ------------------------------
 Charge =  0 Multiplicity = 1

 SCF Done:  E(RB3LYP) =  -1054.40807254     A.U. after    1 cycles

  Exact polarizability: 231.441   1.589 169.033  -0.342   4.983 127.736
 Approx polarizability: 301.454  -7.465 267.502  -0.183  16.464 193.779

                      1                      2                      3
                      A                      A                      A
 Frequencies --     24.4401                32.8728                43.2839
 Red. masses --      4.0295                 3.5363                 3.4467
 Frc consts  --      0.0014                 0.0023                 0.0038
 IR Inten    --      0.2079                 0.6745                 0.1616

                      4                      5                      6
                      A                      A                      A
 Frequencies --     57.4709                69.3333                75.8738
 Red. masses --      3.3904                 2.0293                 1.3254
 Frc consts  --      0.0066                 0.0057                 0.0045
 IR Inten    --      0.8545                 0.1276                 0.2030

                      7                      8                      9
                      A                      A                      A
 Frequencies --     83.3423                94.7512               102.4744
 Red. masses --      2.5899                 3.3006                 2.3439
 Frc consts  --      0.0106                 0.0175                 0.0145
 IR Inten    --      0.8645                 1.2029                 0.7972

                     10                     11                     12
                      A                      A                      A
 Frequencies --    111.6012               168.5032               178.5824
 Red. masses --      2.4372                 3.8939                 3.0113
 Frc consts  --      0.0179                 0.0651                 0.0566
 IR Inten    --      1.5272                 0.7778                 0.5916

                     13                     14                     15
                      A                      A                      A
 Frequencies --    224.4984               231.6705               251.9293
 Red. masses --      3.7789                 2.8096                 1.2922
 Frc consts  --      0.1122                 0.0888                 0.0483
 IR Inten    --      0.6105                 0.0669                 1.8790

                     16                     17                     18
                      A                      A                      A
 Frequencies --    282.6929               290.1543               312.0351
 Red. masses --      2.2380                 2.4758                 2.5641
 Frc consts  --      0.1054                 0.1228                 0.1471
 IR Inten    --      1.8452                 0.2444                 2.3595

                     19                     20                     21
                      A                      A                      A
 Frequencies --    318.3778               346.3157               359.2067
 Red. masses --      3.2321                 3.1175                 4.1338
 Frc consts  --      0.1930                 0.2203                 0.3143
 IR Inten    --      0.9331                 1.2693                 2.0311

                     22                     23                     24
                      A                      A                      A
 Frequencies --    421.5229               443.0593               484.9235
 Red. masses --      3.1758                 2.4255                 2.6665
 Frc consts  --      0.3325                 0.2805                 0.3694
 IR Inten    --      1.3670                 1.0939                15.2210

                     25                     26                     27
                      A                      A                      A
 Frequencies --    504.3078               511.6639               578.6522
 Red. masses --      3.2242                 3.0510                 3.3296
 Frc consts  --      0.4831                 0.4706                 0.6569
 IR Inten    --      0.3596                 9.3573                 2.3589

                     28                     29                     30
                      A                      A                      A
 Frequencies --    618.0123               658.2479               686.8284
 Red. masses --      3.7709                 2.8640                 3.7240
 Frc consts  --      0.8486                 0.7311                 1.0350
 IR Inten    --      0.3181                10.6317                 4.3050

                     31                     32                     33
                      A                      A                      A
 Frequencies --    711.2421               733.2313               749.2472
 Red. masses --      4.8967                 2.2477                 2.2029
 Frc consts  --      1.4595                 0.7120                 0.7286
 IR Inten    --      0.9949                 0.5557                 5.0504

                     34                     35                     36
                      A                      A                      A
 Frequencies --    801.9011               808.2491               827.8556
 Red. masses --      1.3468                 1.2693                 1.4320
 Frc consts  --      0.5103                 0.4885                 0.5783
 IR Inten    --      8.8608                73.4749                 7.2861

                     37                     38                     39
                      A                      A                      A
 Frequencies --    872.0509               892.1161               912.2964
 Red. masses --      1.3495                 2.5344                 2.4571
 Frc consts  --      0.6047                 1.1884                 1.2049
 IR Inten    --     15.0325                 1.2018                 8.3280

                     40                     41                     42
                      A                      A                      A
 Frequencies --    925.6671               941.2681               948.0331
 Red. masses --      1.8381                 1.5946                 2.0758
 Frc consts  --      0.9279                 0.8324                 1.0992
 IR Inten    --     15.0968                24.1686                17.5880

                     43                     44                     45
                      A                      A                      A
 Frequencies --    979.0656               985.5037               990.9554
 Red. masses --      1.9764                 2.1662                 2.0061
 Frc consts  --      1.1162                 1.2395                 1.1607
 IR Inten    --     14.6407                15.5185                 5.6080

                     46                     47                     48
                      A                      A                      A
 Frequencies --   1000.8848              1034.2475              1052.9208
 Red. masses --      1.5167                 1.1414                 1.3942
 Frc consts  --      0.8952                 0.7193                 0.9107
 IR Inten    --     13.6727                20.7196                 2.0135

                     49                     50                     51
                      A                      A                      A
 Frequencies --   1061.5729              1073.4744              1089.7869
 Red. masses --      1.4203                 1.8286                 1.4747
 Frc consts  --      0.9430                 1.2415                 1.0319
 IR Inten    --      4.4573                 6.5786                13.2991

                     52                     53                     54
                      A                      A                      A
 Frequencies --   1102.1599              1136.4367              1137.6738
 Red. masses --      2.2969                 1.7928                 1.4839
 Frc consts  --      1.6439                 1.3642                 1.1316
 IR Inten    --      6.9737                25.7114                 9.7807

                     55                     56                     57
                      A                      A                      A
 Frequencies --   1151.1028              1162.1397              1168.7282
 Red. masses --      1.7907                 1.5268                 2.1074
 Frc consts  --      1.3980                 1.2149                 1.6960
 IR Inten    --     20.0051                 4.5815                27.2468

                     58                     59                     60
                      A                      A                      A
 Frequencies --   1179.9660              1185.3974              1197.4679
 Red. masses --      1.9917                 3.0998                 1.8306
 Frc consts  --      1.6339                 2.5664                 1.5466
 IR Inten    --     41.5813                 1.0296                12.3951

                     61                     62                     63
                      A                      A                      A
 Frequencies --   1206.1698              1227.1775              1235.2595
 Red. masses --      1.3937                 2.4864                 2.2305
 Frc consts  --      1.1946                 2.2062                 2.0053
 IR Inten    --      1.9481                 3.5027                10.3582

                     64                     65                     66
                      A                      A                      A
 Frequencies --   1263.1080              1294.3598              1309.6274
 Red. masses --      1.7418                 1.4061                 1.2666
 Frc consts  --      1.6373                 1.3879                 1.2799
 IR Inten    --     10.9091                 6.7475                 8.3075

                     67                     68                     69
                      A                      A                      A
 Frequencies --   1332.3339              1370.7326              1381.9020
 Red. masses --      1.2642                 1.8748                 1.5322
 Frc consts  --      1.3222                 2.0754                 1.7240
 IR Inten    --      2.9052                63.5154                19.4760

                     70                     71                     72
                      A                      A                      A
 Frequencies --   1385.8018              1406.0711              1423.9264
 Red. masses --      1.2555                 1.3422                 2.6690
 Frc consts  --      1.4206                 1.5634                 3.1884
 IR Inten    --     38.2955                 7.8057                16.5040

                     73                     74                     75
                      A                      A                      A
 Frequencies --   1443.4371              1448.2826              1477.3191
 Red. masses --      1.3346                 1.2952                 1.1825
 Frc consts  --      1.6383                 1.6007                 1.5205
 IR Inten    --      6.8189                15.1261                 3.7786

                     76                     77                     78
                      A                      A                      A
 Frequencies --   1481.9161              1494.4796              1499.4648
 Red. masses --      1.1841                 1.0944                 1.0968
 Frc consts  --      1.5321                 1.4401                 1.4530
 IR Inten    --      1.2034                 0.8674                 9.1793

                     79                     80                     81
                      A                      A                      A
 Frequencies --   1505.2966              1510.5503              1518.3476
 Red. masses --      1.2344                 1.0782                 1.0783
 Frc consts  --      1.6480                 1.4495                 1.4647
 IR Inten    --     39.0575                 7.5310                12.6879

                     82                     83                     84
                      A                      A                      A
 Frequencies --   1518.4067              1530.5118              1535.0887
 Red. masses --      1.0841                 1.1492                 1.0744
 Frc consts  --      1.4726                 1.5860                 1.4917
 IR Inten    --      1.4729                 8.9750                 6.3588

                     85                     86                     87
                      A                      A                      A
 Frequencies --   1538.8393              1545.8322              1561.0455
 Red. masses --      1.2952                 1.0601                 4.9276
 Frc consts  --      1.8071                 1.4925                 7.0748
 IR Inten    --     12.2066                 9.1697                11.8266

                     88                     89                     90
                      A                      A                      A
 Frequencies --   1636.6619              1731.6410              2935.6711
 Red. masses --      6.7474                 4.4498                 1.0728
 Frc consts  --     10.6489                 7.8614                 5.4471
 IR Inten    --      0.0988                 1.5909                51.1070

                     91                     92                     93
                      A                      A                      A
 Frequencies --   2954.5824              2964.8177              3023.9085
 Red. masses --      1.0612                 1.0716                 1.0859
 Frc consts  --      5.4580                 5.5500                 5.8504
 IR Inten    --    131.5106                41.1236                35.0913

                     94                     95                     96
                      A                      A                      A
 Frequencies --   3025.0861              3037.8642              3042.1585
 Red. masses --      1.0633                 1.0399                 1.0858
 Frc consts  --      5.7332                 5.6541                 5.9203
 IR Inten    --     33.6174                40.9738                37.0546

                     97                     98                     99
                      A                      A                      A
 Frequencies --   3074.4734              3074.9578              3092.5589
 Red. masses --      1.1010                 1.0737                 1.0966
 Frc consts  --      6.1316                 5.9813                 6.1794
 IR Inten    --     23.8558                43.3769                17.5541

                    100                    101                    102
                      A                      A                      A
 Frequencies --   3119.6546              3124.6258              3134.8563
 Red. masses --      1.1016                 1.1019                 1.0872
 Frc consts  --      6.3164                 6.3386                 6.2950
 IR Inten    --     18.0214                31.4037                22.1822

                    103                    104                    105
                      A                      A                      A
 Frequencies --   3144.3830              3150.1926              3155.1369
 Red. masses --      1.0736                 1.0538                 1.0759
 Frc consts  --      6.2538                 6.1615                 6.3106
 IR Inten    --     29.1859                14.8195                 6.0313

                    106                    107                    108
                      A                      A                      A
 Frequencies --   3159.8961              3227.2156              3230.4551
 Red. masses --      1.0611                 1.1176                 1.0923
 Frc consts  --      6.2426                 6.8577                 6.7163
 IR Inten    --     11.9872                 7.7591                 3.2270

                    109                    110                    111
                      A                      A                      A
 Frequencies --   3231.4428              3248.7057              3496.9821
 Red. masses --      1.1156                 1.1125                 1.0743
 Frc consts  --      6.8635                 6.9176                 7.7407
 IR Inten    --     20.8469                12.5877                 0.1050

 - Thermochemistry -
 -------------------
 Temperature   298.150 Kelvin.  Pressure   1.00000 Atm.
 Atom     1 has atomic number  6 and mass  12.00000

 Molecular mass:   250.15037 amu.
 Principal axes and moments of inertia in atomic units:
                           1         2         3
     Eigenvalues --  2306.040239100.917239853.11825
           X            0.99988   0.01540   0.00077
           Y           -0.01540   0.99984   0.00884
           Z           -0.00063  -0.00885   0.99996
 This molecule is an asymmetric top.
 Rotational symmetry number  1.
 Warning -- assumption of classical behavior for rotation
           may cause significant error
 Rotational temperatures (Kelvin)      0.03756     0.00952     0.00879
 Rotational constants (GHZ):           0.78261     0.19830     0.18316
 Zero-point vibrational energy     890275.8 (Joules/Mol)
                                  212.78102 (Kcal/Mol)
 Warning -- explicit consideration of  28 degrees of freedom as
           vibrations may cause significant error
 Vibrational temperatures:     35.16    47.30    62.28    82.69    99.76
          (Kelvin)            109.17   119.91   136.33   147.44   160.57
                              242.44   256.94   323.00   333.32   362.47
                              406.73   417.47   448.95   458.07   498.27
                              516.82   606.48   637.46   697.70   725.59
                              736.17   832.55   889.18   947.07   988.19
                             1023.32  1054.96  1078.00  1153.76  1162.89
                             1191.10  1254.69  1283.56  1312.59  1331.83
                             1354.27  1364.01  1408.66  1417.92  1425.76
                             1440.05  1488.05  1514.92  1527.37  1544.49
                             1567.96  1585.76  1635.08  1636.86  1656.18
                             1672.06  1681.54  1697.71  1705.52  1722.89
                             1735.41  1765.63  1777.26  1817.33  1862.29
                             1884.26  1916.93  1972.18  1988.25  1993.86
                             2023.02  2048.71  2076.78  2083.76  2125.53
                             2132.15  2150.22  2157.40  2165.79  2173.35
                             2184.56  2184.65  2202.07  2208.65  2214.05
                             2224.11  2246.00  2354.79  2491.45  4223.78
                             4250.99  4265.71  4350.73  4352.42  4370.81
                             4376.99  4423.48  4424.18  4449.50  4488.49
                             4495.64  4510.36  4524.07  4532.42  4539.54
                             4546.39  4643.24  4647.90  4649.33  4674.16
                             5031.38

 Zero-point correction=                           0.339088 (Hartree/Particle)
 Thermal correction to Energy=                    0.358323
 Thermal correction to Enthalpy=                  0.359267
 Thermal correction to Gibbs Free Energy=         0.289283
 Sum of electronic and zero-point Energies=          -1054.068984
 Sum of electronic and thermal Energies=             -1054.049750
 Sum of electronic and thermal Enthalpies=           -1054.048806
 Sum of electronic and thermal Free Energies=        -1054.118789

                     E (Thermal)             CV                S
                      KCal/Mol        Cal/Mol-Kelvin    Cal/Mol-Kelvin
 Total                  224.851             70.155            147.293
 Electronic               0.000              0.000              0.000
 Translational            0.889              2.981             42.451
 Rotational               0.889              2.981             33.691
 Vibrational            223.074             64.194             71.151
 Vibration     1          0.593              1.985              6.236
 Vibration     2          0.594              1.983              5.648
 Vibration     3          0.595              1.980              5.103
 Vibration     4          0.596              1.975              4.542
 Vibration     5          0.598              1.969              4.172
 Vibration     6          0.599              1.965              3.995
 Vibration     7          0.600              1.961              3.811
 Vibration     8          0.603              1.953              3.560
 Vibration     9          0.605              1.947              3.407
 Vibration    10          0.607              1.940              3.241
 Vibration    11          0.625              1.881              2.452
 Vibration    12          0.629              1.869              2.343
 Vibration    13          0.649              1.804              1.923
 Vibration    14          0.653              1.793              1.866
 Vibration    15          0.664              1.760              1.717
 Vibration    16          0.682              1.706              1.517
 Vibration    17          0.686              1.692              1.473
 Vibration    18          0.700              1.651              1.352
 Vibration    19          0.705              1.638              1.318
 Vibration    20          0.724              1.583              1.183
 Vibration    21          0.734              1.556              1.126
 Vibration    22          0.784              1.423              0.887
 Vibration    23          0.803              1.376              0.817
 Vibration    24          0.841              1.283              0.697
 Vibration    25          0.860              1.240              0.647
 Vibration    26          0.867              1.224              0.630
 Vibration    27          0.935              1.077              0.488
 Vibration    28          0.978              0.994              0.420

 Optimization completed.
    -- Stationary point found.
 Normal termination of Gaussian 16 at Mon Dec 14 13:44:05 2020.

 ----------------------------------------------------------------------
 # B3LYP/6-311++G(d,p) empiricaldispersion=gd3bj scf=xqc pop=npa geom=c
 heck
 ----------------------------------------------------------------------

 --------------------------------------
 CID_81818194_JID_7488_Energie_neutraal
 --------------------------------------
 Structure from the checkpoint file:  "JID_7488.chk"
 Charge =  0 Multiplicity = 1

 SCF Done:  E(RB3LYP) =  -1054.61509150     A.U. after   15 cycles
 Normal termination of Gaussian 16 at Mon Dec 14 13:52:43 2020.

 ----------------------------------------------------------------------
 # B3LYP/6-311++G(d,p) empiricaldispersion=gd3bj scf=xqc pop=npa geom=c
 heck
 ----------------------------------------------------------------------

 ------------------------------------
 CID_81818194_JID_7488_Energie_kation
 ------------------------------------
 Structure from the checkpoint file:  "JID_7488.chk"
 Charge =  1 Multiplicity = 2

 SCF Done:  E(UB3LYP) =  -1054.34956399     A.U. after   26 cycles
 Normal termination of Gaussian 16 at Mon Dec 14 14:13:02 2020.
 Gaussian 16:  ES64L-G16RevA.03 25-Dec-2016

 ----------------------------------------------------------------------
 # B3LYP/6-311++G(d,p) empiricaldispersion=gd3bj scf=xqc pop=npa geom=c
 heck
 ----------------------------------------------------------------------

 -----------------------------------
 CID_81818194_JID_7488_Energie_anion
 -----------------------------------
 Structure from the checkpoint file:  "JID_7488.chk"
 Charge = -1 Multiplicity = 2

                         Standard orientation:
 ---------------------------------------------------------------------
 Center     Atomic      Atomic             Coordinates (Angstroms)
 Number     Number       Type             X           Y           Z
 ---------------------------------------------------------------------
      1          6           0       -0.223705    3.155988    0.240419
      2          6           0       -0.745817    1.792669   -0.105586
      3          6           0       -0.049745    0.676376   -0.500838
      4          6           0       -0.903869   -0.448349   -0.742320
      5          6           0       -2.229112   -0.187909   -0.541738
      6         16           0       -2.464260    1.467723   -0.027627
      7          6           0       -3.402461   -1.099779   -0.721895
      8          7           0       -4.370134   -0.934106    0.358423
      9          6           0       -5.522975   -1.814721    0.231744
     10          6           0        1.446640    0.616254   -0.692073
     11          7           0        1.998810   -0.706261   -0.411611
     12          6           0        3.195732   -1.031280   -1.196406
     13          6           0        4.426761   -0.204699   -0.908538
     14          6           0        5.585828   -0.703037   -0.480913
     15          6           0        2.141281   -1.085738    0.976257
     16          6           0        2.885372   -0.271377    2.017400
     17          6           0        1.384754   -0.439400    2.101221
     18          1           0       -0.866064    3.657153    0.971923
     19          1           0        0.781744    3.091126    0.670932
     20          1           0       -0.160560    3.807542   -0.641120
     21          1           0       -0.515519   -1.416643   -1.035986
     22          1           0       -3.927304   -0.869875   -1.660997
     23          1           0       -3.023593   -2.135153   -0.825562
     24          1           0       -3.900382   -1.097943    1.246860
     25          1           0       -5.268909   -2.888915    0.159112
     26          1           0       -6.185046   -1.674807    1.091863
     27          1           0       -6.084406   -1.546175   -0.670921
     28          1           0        1.678978    0.833384   -1.743180
     29          1           0        1.932602    1.422130   -0.114770
     30          1           0        3.426514   -2.090676   -1.029062
     31          1           0        2.923503   -0.926951   -2.256071
     32          1           0        4.333652    0.869750   -1.071309
     33          1           0        6.451862   -0.074187   -0.291882
     34          1           0        5.712692   -1.769706   -0.304700
     35          1           0        2.266399   -2.164180    1.063556
     36          1           0        3.524677   -0.793897    2.723548
     37          1           0        3.258641    0.704993    1.723451
     38          1           0        0.766855    0.424303    1.884426
     39          1           0        0.968991   -1.092259    2.863842
 ---------------------------------------------------------------------

 SCF Done:  E(UB3LYP) =  -1054.60171990     A.U. after   33 cycles
 SCF Done:  E(UB3LYP) =  -1054.60171990     a.u. after    1 cycles

 The electronic state is 2-A.
 Alpha  occ. eigenvalues --  -88.76956 -14.21965 -14.21229 -10.11272 -10.11207
 Alpha  occ. eigenvalues --  -10.11081 -10.11077 -10.10279 -10.10165 -10.09890
 Alpha  occ. eigenvalues --  -10.08875 -10.08358 -10.08125 -10.07914 -10.07679
 Alpha  occ. eigenvalues --  -10.07366 -10.07077  -7.85574  -5.81861  -5.81496
 Alpha  occ. eigenvalues --   -5.81166  -0.84630  -0.82233  -0.78024  -0.74871
 Alpha  occ. eigenvalues --   -0.69808  -0.68060  -0.65573  -0.62534  -0.60022
 Alpha  occ. eigenvalues --   -0.57982  -0.56366  -0.53570  -0.50967  -0.48468
 Alpha  occ. eigenvalues --   -0.47169  -0.45327  -0.43163  -0.41817  -0.40705
 Alpha  occ. eigenvalues --   -0.39718  -0.37798  -0.37470  -0.36039  -0.35718
 Alpha  occ. eigenvalues --   -0.35063  -0.34213  -0.33591  -0.32355  -0.32194
 Alpha  occ. eigenvalues --   -0.31362  -0.29377  -0.28901  -0.28527  -0.27995
 Alpha  occ. eigenvalues --   -0.27546  -0.27394  -0.26654  -0.25980  -0.24983
 Alpha  occ. eigenvalues --   -0.23888  -0.22485  -0.21128  -0.17926  -0.15045
 Alpha  occ. eigenvalues --   -0.14313  -0.12528  -0.11848   0.03991
 Alpha virt. eigenvalues --    0.05376   0.06135   0.06838   0.06958   0.07276
 Alpha virt. eigenvalues --    0.07950   0.08119   0.08306   0.08579   0.09115
 Alpha virt. eigenvalues --    0.09516   0.09787   0.10235   0.10441   0.11186

  Beta  occ. eigenvalues --  -88.76952 -14.21965 -14.21217 -10.11257 -10.11199
  Beta  occ. eigenvalues --  -10.11076 -10.11056 -10.10266 -10.10151 -10.09855
  Beta  occ. eigenvalues --  -10.08864 -10.08324 -10.08109 -10.07917 -10.07669
  Beta  occ. eigenvalues --  -10.07351 -10.07070  -7.85568  -5.81856  -5.81492
  Beta  occ. eigenvalues --   -5.81159  -0.84621  -0.82210  -0.78004  -0.74859
  Beta  occ. eigenvalues --   -0.69786  -0.68024  -0.65551  -0.62488  -0.59990
  Beta  occ. eigenvalues --   -0.57950  -0.56309  -0.53517  -0.50928  -0.48429
  Beta  occ. eigenvalues --   -0.47133  -0.45299  -0.43130  -0.41793  -0.40669
  Beta  occ. eigenvalues --   -0.39680  -0.37768  -0.37433  -0.35986  -0.35692
  Beta  occ. eigenvalues --   -0.35036  -0.34180  -0.33551  -0.32317  -0.32168
  Beta  occ. eigenvalues --   -0.31332  -0.29350  -0.28872  -0.28493  -0.27971
  Beta  occ. eigenvalues --   -0.27524  -0.27370  -0.26629  -0.25955  -0.24953
  Beta  occ. eigenvalues --   -0.23865  -0.22467  -0.21113  -0.17908  -0.15015
  Beta  occ. eigenvalues --   -0.14285  -0.12466  -0.11833
  Beta virt. eigenvalues --    0.05826   0.06207   0.06656   0.07095   0.07296
  Beta virt. eigenvalues --    0.07394   0.08109   0.08429   0.08661   0.08906
  Beta virt. eigenvalues --    0.09400   0.09789   0.10146   0.10440   0.10581

 Mulliken charges and spin densities:
               1          2
     1  C    1.013702  -1.337885
     2  C   -1.810616   2.328377
     3  C    0.822487  -0.772845
     4  C   -0.094486  -0.265821
     5  C    0.193887   0.108207
     6  S   -0.373965  -0.241137
     7  C    0.312656  -1.110026
     8  N   -0.305787   0.193286
     9  C    0.605769  -0.967224
    10  C   -0.374947  -0.095610
    11  N    0.276360   0.014573
    12  C    0.530060  -0.711401
    13  C   -0.642278   0.845030
    14  C    0.498747  -1.014797
    15  C   -1.076419   0.759346
    16  C    0.230426  -0.472294
    17  C    0.295090  -0.773462
    18  H   -0.077158   0.214966
    19  H   -0.490623   0.643697
    20  H   -0.115344   0.308415
    21  H    0.039136   0.138276
    22  H   -0.049544   0.213404
    23  H    0.045103   0.116351
    24  H    0.054382   0.164440
    25  H   -0.307714   0.427500
    26  H   -0.175108   0.308282
    27  H   -0.123697   0.263662
    28  H    0.006386   0.157811
    29  H    0.874733  -0.767224
    30  H   -0.093111   0.243309
    31  H   -0.011480   0.171837
    32  H   -0.623152   0.812176
    33  H   -0.084029   0.209780
    34  H   -0.050035   0.154703
    35  H   -0.048708   0.262098
    36  H    0.024818   0.129999
    37  H   -0.164277   0.301985
    38  H    0.440232  -0.284809
    39  H   -0.171493   0.323025
 Sum of Mulliken charges =  -1.00000   1.00000

 Dipole moment (field-independent basis, Debye):
    X=              0.9383    Y=             -0.3786    Z=             -0.2162  Tot=              1.0347
 Quadrupole moment (field-independent basis, Debye-Ang):
   XX=           -220.5121   YY=           -163.6975   ZZ=           -147.8434
   XY=            -15.7751   XZ=              1.9138   YZ=              2.0741

 Summary of Natural Population Analysis:

                                       Natural Population
                Natural  -----------------------------------------------
    Atom  No    Charge         Core      Valence    Rydberg      Total
 -----------------------------------------------------------------------
      C    1   -0.30028      0.99961     2.29357    0.00709     3.30028
      C    2   -0.09811      0.99943     2.08521    0.01347     3.09811
      C    3   -0.05256      0.99941     2.04086    0.01229     3.05256
      C    4   -0.11691      0.99941     2.10726    0.01024     3.11691
      C    5   -0.09772      0.99950     2.08618    0.01204     3.09772
      S    6    0.20847      4.99938     2.77295    0.01920     7.79153
      C    7   -0.09886      0.99956     2.08711    0.01219     3.09886
      N    8   -0.33421      0.99975     2.82320    0.01126     3.83421
      C    9   -0.17597      0.99967     2.16927    0.00703     3.17597
      C   10   -0.09273      0.99956     2.08100    0.01218     3.09273
      N   11   -0.27514      0.99971     2.76190    0.01353     3.77514
      C   12   -0.09632      0.99959     2.08462    0.01212     3.09632
      C   13   -0.09179      0.99956     2.08187    0.01037     3.09179
      C   14   -0.18775      0.99956     2.18151    0.00669     3.18775
      C   15   -0.00836      0.99956     1.99546    0.01334     3.00836
      C   16   -0.21151      0.99962     2.20475    0.00714     3.21151
      C   17   -0.20194      0.99961     2.19408    0.00825     3.20194
      H   18    0.10463      0.00000     0.39453    0.00083     0.39537
      H   19    0.10764      0.00000     0.39098    0.00138     0.39236
      H   20    0.10717      0.00000     0.39138    0.00145     0.39283
      H   21    0.11218      0.00000     0.38611    0.00171     0.38782
      H   22    0.09652      0.00000     0.40202    0.00145     0.40348
      H   23    0.08884      0.00000     0.40931    0.00185     0.41116
      H   24    0.17247      0.00000     0.32403    0.00349     0.32753
      H   25    0.07894      0.00000     0.41825    0.00282     0.42106
      H   26    0.09467      0.00000     0.40412    0.00121     0.40533
      H   27    0.09016      0.00000     0.40820    0.00164     0.40984
      H   28    0.10362      0.00000     0.39493    0.00145     0.39638
      H   29    0.09023      0.00000     0.40709    0.00267     0.40977
      H   30    0.09502      0.00000     0.40371    0.00127     0.40498
      H   31    0.09837      0.00000     0.40043    0.00120     0.40163
      H   32    0.09418      0.00000     0.40426    0.00156     0.40582
      H   33    0.09417      0.00000     0.40462    0.00122     0.40583
      H   34    0.08822      0.00000     0.41045    0.00133     0.41178
      H   35    0.09717      0.00000     0.40157    0.00126     0.40283
      H   36    0.10055      0.00000     0.39844    0.00101     0.39945
      H   37    0.10397      0.00000     0.39478    0.00125     0.39603
      H   38    0.11043      0.00000     0.38800    0.00157     0.38957
      H   39    0.10252      0.00000     0.39653    0.00094     0.39748
 =======================================================================
   * Total *    0.00000     20.99249    46.78452    0.22299    68.00000

 Normal termination of Gaussian 16 at Mon Dec 14 14:38:31 2020.
