 Gaussian 16, Revision A.03,

 -----------------------------------------------------------
 # opt freq B3LYP/6-31G(d) empiricaldispersion=gd3bj scf=xqc
 -----------------------------------------------------------

 ------------------------------
 CID_47235785_JID_9102_neutraal
 ------------------------------
 Symbolic Z-matrix:
 Charge =  0 Multiplicity = 1

 SCF Done:  E(RB3LYP) =  -961.068887624     A.U. after   17 cycles
 SCF Done:  E(RB3LYP) =  -961.077822637     A.U. after   15 cycles
 SCF Done:  E(RB3LYP) =  -961.070663962     A.U. after   15 cycles
 SCF Done:  E(RB3LYP) =  -961.081612952     A.U. after   15 cycles
 SCF Done:  E(RB3LYP) =  -961.083551956     A.U. after   15 cycles
 SCF Done:  E(RB3LYP) =  -961.084558547     A.U. after   13 cycles
 SCF Done:  E(RB3LYP) =  -961.085203140     A.U. after   14 cycles
 SCF Done:  E(RB3LYP) =  -961.085501812     A.U. after   14 cycles
 SCF Done:  E(RB3LYP) =  -961.085653786     A.U. after   13 cycles
 SCF Done:  E(RB3LYP) =  -961.085742873     A.U. after   12 cycles
 SCF Done:  E(RB3LYP) =  -961.085828201     A.U. after   12 cycles
 SCF Done:  E(RB3LYP) =  -961.085834831     A.U. after   10 cycles
 SCF Done:  E(RB3LYP) =  -961.085837534     A.U. after    9 cycles
 SCF Done:  E(RB3LYP) =  -961.085839819     A.U. after    9 cycles
 SCF Done:  E(RB3LYP) =  -961.085840926     A.U. after    9 cycles
 SCF Done:  E(RB3LYP) =  -961.085841121     A.U. after    8 cycles
 Optimization completed.
    -- Stationary point found.
 Normal termination of Gaussian 16 at Sun Dec 13 20:18:36 2020.

 --------------------------------------------------------------------
 #N Geom=AllCheck Guess=TCheck SCRF=Check GenChk RB3LYP/6-31G(d) Freq
 --------------------------------------------------------------------

 Structure from the checkpoint file:  "JID_9102.chk"
 ------------------------------
 CID_47235785_JID_9102_neutraal
 ------------------------------
 Charge =  0 Multiplicity = 1

 SCF Done:  E(RB3LYP) =  -961.085841121     A.U. after    1 cycles

  Exact polarizability: 194.651  -7.213 178.374  27.005   6.462  87.949
 Approx polarizability: 318.310 -29.861 309.717  66.973  15.699 150.758

                      1                      2                      3
                      A                      A                      A
 Frequencies --     27.5303                38.0647                39.6465
 Red. masses --      6.2278                 7.7684                 5.7551
 Frc consts  --      0.0028                 0.0066                 0.0053
 IR Inten    --      2.0005                 0.2564                 0.2582

                      4                      5                      6
                      A                      A                      A
 Frequencies --     64.5873                90.7422               112.2650
 Red. masses --     11.8145                 8.5848                 7.0720
 Frc consts  --      0.0290                 0.0416                 0.0525
 IR Inten    --      0.5816                 2.5001                 7.4520

                      7                      8                      9
                      A                      A                      A
 Frequencies --    128.6852               146.9073               167.1804
 Red. masses --      6.5034                 1.1061                 3.4222
 Frc consts  --      0.0635                 0.0141                 0.0564
 IR Inten    --      3.1118                 1.0906                21.4944

                     10                     11                     12
                      A                      A                      A
 Frequencies --    211.5783               230.8661               248.1789
 Red. masses --      4.3181                 1.5746                 3.2020
 Frc consts  --      0.1139                 0.0494                 0.1162
 IR Inten    --      3.3569               120.0479                81.6965

                     13                     14                     15
                      A                      A                      A
 Frequencies --    297.3549               317.5161               351.4861
 Red. masses --      6.8905                 7.0254                 5.7644
 Frc consts  --      0.3590                 0.4173                 0.4196
 IR Inten    --      4.4778                 0.4601                 0.8573

                     16                     17                     18
                      A                      A                      A
 Frequencies --    359.2154               376.5729               405.2964
 Red. masses --      5.1947                 6.7581                 5.0053
 Frc consts  --      0.3949                 0.5646                 0.4844
 IR Inten    --      5.5570                 6.5789                 4.8005

                     19                     20                     21
                      A                      A                      A
 Frequencies --    411.0513               443.7373               484.2628
 Red. masses --      5.9942                 3.7706                 7.0094
 Frc consts  --      0.5967                 0.4374                 0.9685
 IR Inten    --      1.4100                 1.7106                 8.4042

                     22                     23                     24
                      A                      A                      A
 Frequencies --    536.9642               555.2538               615.0707
 Red. masses --      3.1845                 4.7909                 1.7914
 Frc consts  --      0.5410                 0.8703                 0.3993
 IR Inten    --     18.9181                 4.7982                15.5468

                     25                     26                     27
                      A                      A                      A
 Frequencies --    622.5743               645.4368               659.4496
 Red. masses --      1.2877                 3.2454                 4.6576
 Frc consts  --      0.2941                 0.7966                 1.1934
 IR Inten    --     34.8551                30.1415                 7.2703

                     28                     29                     30
                      A                      A                      A
 Frequencies --    691.5379               697.1115               714.4788
 Red. masses --      4.9146                 5.5444                 2.7895
 Frc consts  --      1.3847                 1.5875                 0.8390
 IR Inten    --     15.8588                16.3724                30.4258

                     31                     32                     33
                      A                      A                      A
 Frequencies --    747.9135               750.0977               764.9161
 Red. masses --      8.8100                 5.8098                 6.5905
 Frc consts  --      2.9036                 1.9259                 2.2719
 IR Inten    --      4.7021                62.4330                20.9545

                     34                     35                     36
                      A                      A                      A
 Frequencies --    777.9574               837.7429               841.3880
 Red. masses --      6.5032                 1.6619                 6.1295
 Frc consts  --      2.3189                 0.6872                 2.5566
 IR Inten    --     20.2114                13.1752                 4.9359

                     37                     38                     39
                      A                      A                      A
 Frequencies --    879.1225               895.7995               938.7748
 Red. masses --      5.9331                11.8654                 1.5308
 Frc consts  --      2.7017                 5.6099                 0.7949
 IR Inten    --     17.7175                 6.6329                 7.2548

                     40                     41                     42
                      A                      A                      A
 Frequencies --    943.2438               987.6695              1006.9005
 Red. masses --      5.1911                 1.3274                 2.9722
 Frc consts  --      2.7212                 0.7629                 1.7754
 IR Inten    --     15.3960                 2.5196                 1.6570

                     43                     44                     45
                      A                      A                      A
 Frequencies --   1053.8039              1058.2206              1084.8315
 Red. masses --      1.6985                 2.4330                 1.5503
 Frc consts  --      1.1113                 1.6052                 1.0750
 IR Inten    --      6.5859                 3.9677                 3.9966

                     46                     47                     48
                      A                      A                      A
 Frequencies --   1099.1912              1113.2831              1143.2588
 Red. masses --      4.3382                 2.8559                 5.8590
 Frc consts  --      3.0882                 2.0855                 4.5119
 IR Inten    --     29.0294                33.8776                41.1733

                     49                     50                     51
                      A                      A                      A
 Frequencies --   1199.4623              1264.0494              1314.1205
 Red. masses --      1.1678                 3.1878                 1.9114
 Frc consts  --      0.9899                 3.0011                 1.9447
 IR Inten    --     78.2602                 8.2568               243.1143

                     52                     53                     54
                      A                      A                      A
 Frequencies --   1329.2535              1347.0876              1384.6988
 Red. masses --      3.5211                 3.3204                 2.9292
 Frc consts  --      3.6656                 3.5500                 3.3091
 IR Inten    --    184.5342               528.8844                76.4456

                     55                     56                     57
                      A                      A                      A
 Frequencies --   1396.0577              1415.4362              1448.0701
 Red. masses --      3.2696                 5.9991                 1.5665
 Frc consts  --      3.7545                 7.0814                 1.9354
 IR Inten    --     88.7899                94.2880                47.8131

                     58                     59                     60
                      A                      A                      A
 Frequencies --   1469.9769              1499.8244              1503.4769
 Red. masses --      4.3058                 1.2703                 1.0473
 Frc consts  --      5.4818                 1.6836                 1.3949
 IR Inten    --     32.4097                16.1410                 9.2191

                     61                     62                     63
                      A                      A                      A
 Frequencies --   1528.0277              1546.1672              1595.1598
 Red. masses --      1.9453                 2.4214                 5.3190
 Frc consts  --      2.6761                 3.4106                 7.9742
 IR Inten    --    166.9471                80.2991                35.5995

                     64                     65                     66
                      A                      A                      A
 Frequencies --   1610.3177              1615.0903              1651.0362
 Red. masses --      5.1357                 7.4333                 1.6992
 Frc consts  --      7.8465                11.4242                 2.7291
 IR Inten    --     54.0610               256.2827                30.3430

                     67                     68                     69
                      A                      A                      A
 Frequencies --   1661.3984              1693.1508              1779.6572
 Red. masses --     10.0746                 6.2670                 8.6768
 Frc consts  --     16.3842                10.5853                16.1913
 IR Inten    --    275.1782               508.5010               353.3066

                     70                     71                     72
                      A                      A                      A
 Frequencies --   3069.0206              3129.9076              3167.4863
 Red. masses --      1.0365                 1.1016                 1.1026
 Frc consts  --      5.7520                 6.3581                 6.5178
 IR Inten    --      5.9119                 5.8521                 6.2312

                     73                     74                     75
                      A                      A                      A
 Frequencies --   3193.1048              3231.7546              3294.8478
 Red. masses --      1.0897                 1.0929                 1.0903
 Frc consts  --      6.5460                 6.7255                 6.9735
 IR Inten    --     10.5553                 2.1833                 4.3945

                     76                     77                     78
                      A                      A                      A
 Frequencies --   3570.5058              3576.6547              3713.0845
 Red. masses --      1.0464                 1.0755                 1.1037
 Frc consts  --      7.8597                 8.1059                 8.9657
 IR Inten    --    141.4742                69.1768                76.5450

 - Thermochemistry -
 -------------------
 Temperature   298.150 Kelvin.  Pressure   1.00000 Atm.
 Atom     1 has atomic number  6 and mass  12.00000

 Molecular mass:   263.06545 amu.
 Principal axes and moments of inertia in atomic units:
                           1         2         3
     Eigenvalues --  3396.987786473.785768888.69181
           X            0.99957   0.02917   0.00292
           Y           -0.02913   0.99948  -0.01357
           Z           -0.00331   0.01348   0.99990
 This molecule is an asymmetric top.
 Rotational symmetry number  1.
 Warning -- assumption of classical behavior for rotation
           may cause significant error
 Rotational temperatures (Kelvin)      0.02550     0.01338     0.00974
 Rotational constants (GHZ):           0.53128     0.27878     0.20304
 Zero-point vibrational energy     531217.3 (Joules/Mol)
                                  126.96399 (Kcal/Mol)
 Warning -- explicit consideration of  24 degrees of freedom as
           vibrations may cause significant error
 Vibrational temperatures:     39.61    54.77    57.04    92.93   130.56
          (Kelvin)            161.52   185.15   211.37   240.54   304.41
                              332.16   357.07   427.83   456.83   505.71
                              516.83   541.80   583.13   591.41   638.44
                              696.75   772.57   798.89   884.95   895.75
                              928.64   948.80   994.97  1002.99  1027.98
                             1076.08  1079.22  1100.54  1119.31  1205.33
                             1210.57  1264.86  1288.86  1350.69  1357.12
                             1421.04  1448.71  1516.19  1522.54  1560.83
                             1581.49  1601.77  1644.89  1725.76  1818.69
                             1890.73  1912.50  1938.16  1992.27  2008.62
                             2036.50  2083.45  2114.97  2157.91  2163.17
                             2198.49  2224.59  2295.08  2316.89  2323.75
                             2375.47  2390.38  2436.07  2560.53  4415.64
                             4503.24  4557.31  4594.17  4649.77  4740.55
                             5137.16  5146.01  5342.30

 Zero-point correction=                           0.202330 (Hartree/Particle)
 Thermal correction to Energy=                    0.218847
 Thermal correction to Enthalpy=                  0.219791
 Thermal correction to Gibbs Free Energy=         0.156285
 Sum of electronic and zero-point Energies=           -960.883511
 Sum of electronic and thermal Energies=              -960.866994
 Sum of electronic and thermal Enthalpies=            -960.866050
 Sum of electronic and thermal Free Energies=         -960.929556

                     E (Thermal)             CV                S
                      KCal/Mol        Cal/Mol-Kelvin    Cal/Mol-Kelvin
 Total                  137.328             61.330            133.660
 Electronic               0.000              0.000              0.000
 Translational            0.889              2.981             42.601
 Rotational               0.889              2.981             33.635
 Vibrational            135.551             55.368             57.423
 Vibration     1          0.593              1.984              6.000
 Vibration     2          0.594              1.982              5.357
 Vibration     3          0.594              1.981              5.277
 Vibration     4          0.597              1.971              4.312
 Vibration     5          0.602              1.956              3.644
 Vibration     6          0.607              1.939              3.229
 Vibration     7          0.611              1.925              2.966
 Vibration     8          0.617              1.906              2.712
 Vibration     9          0.624              1.883              2.467
 Vibration    10          0.643              1.823              2.030
 Vibration    11          0.653              1.794              1.872
 Vibration    12          0.662              1.766              1.743
 Vibration    13          0.691              1.679              1.432
 Vibration    14          0.704              1.640              1.323
 Vibration    15          0.728              1.572              1.160
 Vibration    16          0.734              1.556              1.125
 Vibration    17          0.747              1.520              1.053
 Vibration    18          0.770              1.459              0.943
 Vibration    19          0.775              1.446              0.923
 Vibration    20          0.803              1.375              0.815
 Vibration    21          0.840              1.285              0.699
 Vibration    22          0.892              1.168              0.572
 Vibration    23          0.911              1.128              0.533
 Vibration    24          0.975              1.000              0.424

                           ! Non-Optimized Parameters !
 Normal termination of Gaussian 16 at Sun Dec 13 20:31:51 2020.

 ----------------------------------------------------------------------
 # B3LYP/6-311++G(d,p) empiricaldispersion=gd3bj scf=xqc pop=npa geom=c
 heck
 ----------------------------------------------------------------------

 --------------------------------------
 CID_47235785_JID_9102_Energie_neutraal
 --------------------------------------
 Structure from the checkpoint file:  "JID_9102.chk"
 Charge =  0 Multiplicity = 1

 SCF Done:  E(RB3LYP) =  -961.361224632     A.U. after   16 cycles
 Normal termination of Gaussian 16 at Sun Dec 13 20:37:21 2020.

 ----------------------------------------------------------------------
 # B3LYP/6-311++G(d,p) empiricaldispersion=gd3bj scf=xqc pop=npa geom=c
 heck
 ----------------------------------------------------------------------

 ------------------------------------
 CID_47235785_JID_9102_Energie_kation
 ------------------------------------
 Structure from the checkpoint file:  "JID_9102.chk"
 Charge =  1 Multiplicity = 2

 SCF Done:  E(UB3LYP) =  -961.048081507     A.U. after   30 cycles
 Normal termination of Gaussian 16 at Sun Dec 13 20:52:06 2020.
 Gaussian 16:  ES64L-G16RevA.03 25-Dec-2016

 ----------------------------------------------------------------------
 # B3LYP/6-311++G(d,p) empiricaldispersion=gd3bj scf=xqc pop=npa geom=c
 heck
 ----------------------------------------------------------------------

 -----------------------------------
 CID_47235785_JID_9102_Energie_anion
 -----------------------------------
 Structure from the checkpoint file:  "JID_9102.chk"
 Charge = -1 Multiplicity = 2

                         Standard orientation:
 ---------------------------------------------------------------------
 Center     Atomic      Atomic             Coordinates (Angstroms)
 Number     Number       Type             X           Y           Z
 ---------------------------------------------------------------------
      1          6           0       -2.747176   -2.707189    1.355430
      2          6           0       -2.905868   -1.411659    0.637689
      3          7           0       -4.031416   -1.061387    0.068339
      4          8           0       -3.719856    0.212669   -0.496786
      5          6           0       -2.435987    0.448328   -0.179894
      6          7           0       -1.875298   -0.498499    0.519058
      7          7           0       -1.932829    1.635873   -0.644401
      8          6           0       -0.728782    2.306738   -0.322326
      9          8           0       -0.745050    3.526957   -0.344148
     10          6           0        0.494438    1.530988   -0.039168
     11          6           0        0.725844    0.247485   -0.511258
     12          6           0        1.936858   -0.400226   -0.262096
     13          6           0        2.976117    0.229464    0.483917
     14          6           0        2.718187    1.551975    0.934310
     15          6           0        1.526633    2.183477    0.671690
     16          7           0        4.157972   -0.354881    0.770393
     17          7           0        2.079133   -1.741482   -0.793193
     18          8           0        1.146585   -2.222561   -1.435334
     19          8           0        3.137771   -2.361575   -0.579028
     20          1           0       -1.949525   -3.294818    0.889181
     21          1           0       -2.463416   -2.528837    2.397737
     22          1           0       -3.679420   -3.274616    1.326321
     23          1           0       -2.640500    2.288781   -0.965625
     24          1           0       -0.010611   -0.290882   -1.086829
     25          1           0        3.495725    2.062062    1.495891
     26          1           0        1.357460    3.199797    1.010298
     27          1           0        4.856231    0.152635    1.290683
     28          1           0        4.333953   -1.291690    0.433585
 ---------------------------------------------------------------------

 SCF Done:  E(UB3LYP) =  -961.404608448     A.U. after   28 cycles

 The electronic state is 2-A.
 Alpha  occ. eigenvalues --  -19.12572 -18.99948 -18.94544 -18.94359 -14.31968
 Alpha  occ. eigenvalues --  -14.27522 -14.27294 -14.21943 -14.20795 -10.22386
 Alpha  occ. eigenvalues --  -10.18510 -10.15702 -10.11076 -10.09586 -10.07165
 Alpha  occ. eigenvalues --  -10.05573 -10.05275 -10.04994 -10.04064  -1.07512
 Alpha  occ. eigenvalues --   -1.02448  -0.95503  -0.86750  -0.85276  -0.85109
 Alpha  occ. eigenvalues --   -0.81609  -0.76534  -0.72937  -0.65811  -0.65274
 Alpha  occ. eigenvalues --   -0.63279  -0.57600  -0.54342  -0.53398  -0.51843
 Alpha  occ. eigenvalues --   -0.49008  -0.46723  -0.44432  -0.41884  -0.41168
 Alpha  occ. eigenvalues --   -0.39476  -0.39179  -0.38414  -0.35271  -0.35028
 Alpha  occ. eigenvalues --   -0.34832  -0.34221  -0.33070  -0.32379  -0.32191
 Alpha  occ. eigenvalues --   -0.31542  -0.31007  -0.29526  -0.27360  -0.27061
 Alpha  occ. eigenvalues --   -0.25832  -0.24982  -0.23470  -0.22875  -0.21240
 Alpha  occ. eigenvalues --   -0.19580  -0.17646  -0.16239  -0.14181  -0.13512
 Alpha  occ. eigenvalues --   -0.12793  -0.10502  -0.09635   0.02277
 Alpha virt. eigenvalues --    0.05527   0.07579   0.07852   0.08475   0.08615
 Alpha virt. eigenvalues --    0.10154   0.10971   0.11983   0.12389   0.12494
 Alpha virt. eigenvalues --    0.12916   0.13968   0.14268   0.14648   0.14801

  Beta  occ. eigenvalues --  -19.12570 -18.99945 -18.93999 -18.93872 -14.31213
  Beta  occ. eigenvalues --  -14.27527 -14.27296 -14.21937 -14.20758 -10.22376
  Beta  occ. eigenvalues --  -10.18492 -10.15701 -10.11019 -10.09586 -10.07196
  Beta  occ. eigenvalues --  -10.05660 -10.05083 -10.04971 -10.03743  -1.07506
  Beta  occ. eigenvalues --   -1.01262  -0.95496  -0.86749  -0.85106  -0.84345
  Beta  occ. eigenvalues --   -0.81445  -0.76532  -0.72672  -0.65795  -0.64798
  Beta  occ. eigenvalues --   -0.63115  -0.57546  -0.53587  -0.53114  -0.51740
  Beta  occ. eigenvalues --   -0.48821  -0.46607  -0.44283  -0.41804  -0.41108
  Beta  occ. eigenvalues --   -0.39295  -0.38828  -0.38390  -0.34812  -0.34566
  Beta  occ. eigenvalues --   -0.34100  -0.32786  -0.32390  -0.32168  -0.31934
  Beta  occ. eigenvalues --   -0.31513  -0.30845  -0.29140  -0.27228  -0.26321
  Beta  occ. eigenvalues --   -0.25811  -0.24903  -0.23364  -0.22834  -0.20967
  Beta  occ. eigenvalues --   -0.19210  -0.17608  -0.16204  -0.12589  -0.12320
  Beta  occ. eigenvalues --   -0.10403  -0.09993  -0.09171
  Beta virt. eigenvalues --    0.05931   0.07566   0.07841   0.08487   0.08742
  Beta virt. eigenvalues --    0.09457   0.10167   0.10971   0.12321   0.12419
  Beta virt. eigenvalues --    0.12604   0.13641   0.14175   0.14645   0.14798

 Mulliken charges and spin densities:
               1          2
     1  C   -0.543634   0.013224
     2  C    0.634636  -0.016215
     3  N   -0.346839  -0.001910
     4  O    0.118759   0.000993
     5  C   -0.286343  -0.003707
     6  N   -0.075052   0.003680
     7  N   -0.330487   0.000252
     8  C   -0.361853   0.011230
     9  O   -0.306808  -0.001444
    10  C    0.649528  -0.106718
    11  C   -0.129268   0.312179
    12  C   -0.105726  -0.035910
    13  C   -0.067584   0.051008
    14  C    0.014909   0.022028
    15  C   -0.662791   0.103035
    16  N   -0.342115   0.016967
    17  N   -0.285963   0.239572
    18  O   -0.203011   0.196912
    19  O   -0.211671   0.202802
    20  H    0.184513   0.013881
    21  H    0.163456  -0.001119
    22  H    0.143086   0.000162
    23  H    0.313757   0.001014
    24  H    0.237361  -0.003525
    25  H    0.100827  -0.001662
    26  H    0.165095  -0.011969
    27  H    0.228187  -0.001035
    28  H    0.305031  -0.003728
 Sum of Mulliken charges =  -1.00000   1.00000

 Dipole moment (field-independent basis, Debye):
    X=             -3.0646    Y=              3.0176    Z=              4.3249  Tot=              6.0994
 Quadrupole moment (field-independent basis, Debye-Ang):
   XX=           -138.2720   YY=           -148.3138   ZZ=           -117.4893
   XY=             14.3020   XZ=              8.0654   YZ=            -10.3328

 Summary of Natural Population Analysis:

                                       Natural Population
                Natural  -----------------------------------------------
    Atom  No    Charge         Core      Valence    Rydberg      Total
 -----------------------------------------------------------------------
      C    1   -0.30618      0.99962     2.30200    0.00456     3.30618
      C    2    0.18417      0.99968     1.79812    0.01802     2.81583
      N    3   -0.10667      0.99967     2.59471    0.01230     3.60667
      O    4   -0.18478      0.99985     3.17656    0.00836     4.18478
      C    5    0.36726      0.99963     1.61395    0.01916     2.63274
      N    6   -0.27415      0.99965     2.76289    0.01161     3.77415
      N    7   -0.31943      0.99963     2.81125    0.00856     3.81943
      C    8    0.34644      0.99962     1.63199    0.02195     2.65356
      O    9   -0.31701      0.99988     3.31019    0.00694     4.31701
      C   10   -0.12760      0.99945     2.11932    0.00883     3.12760
      C   11    0.00527      0.99951     1.98616    0.00907     2.99473
      C   12    0.00401      0.99940     1.98350    0.01310     2.99599
      C   13    0.11779      0.99951     1.87114    0.01156     2.88221
      C   14   -0.14133      0.99955     2.13299    0.00880     3.14133
      C   15   -0.02743      0.99955     2.01911    0.00878     3.02743
      N   16   -0.38063      0.99968     2.87320    0.00775     3.88063
      N   17    0.32074      0.99971     2.15186    0.02769     3.17926
      O   18   -0.19111      0.99990     3.18355    0.00766     4.19111
      O   19   -0.21361      0.99989     3.20575    0.00797     4.21361
      H   20    0.12005      0.00000     0.37890    0.00105     0.37995
      H   21    0.10971      0.00000     0.38936    0.00094     0.39029
      H   22    0.10652      0.00000     0.39259    0.00090     0.39348
      H   23    0.20230      0.00000     0.29507    0.00263     0.29770
      H   24    0.11792      0.00000     0.38031    0.00178     0.38208
      H   25    0.08965      0.00000     0.40871    0.00164     0.41035
      H   26    0.10113      0.00000     0.39778    0.00109     0.39887
      H   27    0.18042      0.00000     0.31823    0.00135     0.31958
      H   28    0.21656      0.00000     0.28168    0.00177     0.28344
 =======================================================================
   * Total *   -0.00000     18.99337    48.77084    0.23579    68.00000

 Normal termination of Gaussian 16 at Sun Dec 13 21:05:42 2020.
