 Gaussian 16, Revision A.03,

 -----------------------------------------------------------
 # opt freq B3LYP/6-31G(d) empiricaldispersion=gd3bj scf=xqc
 -----------------------------------------------------------

 -----------------------------
 CID_54222621_JID_250_neutraal
 -----------------------------
 Symbolic Z-matrix:
 Charge =  0 Multiplicity = 1

 SCF Done:  E(RB3LYP) =  -785.501936972     A.U. after   14 cycles
 SCF Done:  E(RB3LYP) =  -785.503718371     A.U. after   12 cycles
 SCF Done:  E(RB3LYP) =  -785.504095549     A.U. after   12 cycles
 SCF Done:  E(RB3LYP) =  -785.504242615     A.U. after   12 cycles
 SCF Done:  E(RB3LYP) =  -785.504333916     A.U. after   11 cycles
 SCF Done:  E(RB3LYP) =  -785.504397907     A.U. after   11 cycles
 SCF Done:  E(RB3LYP) =  -785.504431198     A.U. after   11 cycles
 SCF Done:  E(RB3LYP) =  -785.504433590     A.U. after    9 cycles
 SCF Done:  E(RB3LYP) =  -785.504433810     A.U. after    8 cycles
 SCF Done:  E(RB3LYP) =  -785.504433959     A.U. after    8 cycles
 Optimization completed.
    -- Stationary point found.
 Normal termination of Gaussian 16 at Tue Dec  8 10:21:14 2020.

 --------------------------------------------------------------------
 #N Geom=AllCheck Guess=TCheck SCRF=Check GenChk RB3LYP/6-31G(d) Freq
 --------------------------------------------------------------------

 Structure from the checkpoint file:  "JID_250.chk"
 -----------------------------
 CID_54222621_JID_250_neutraal
 -----------------------------
 Charge =  0 Multiplicity = 1

 SCF Done:  E(RB3LYP) =  -785.504433959     A.U. after    1 cycles

  Exact polarizability: 116.182   9.461  99.657 -12.207   3.754  74.739
 Approx polarizability: 163.966  18.971 169.014 -26.521  11.006 116.537

                      1                      2                      3
                      A                      A                      A
 Frequencies --     32.9516                49.3275                66.3560
 Red. masses --      3.9369                 5.3093                 3.8646
 Frc consts  --      0.0025                 0.0076                 0.0100
 IR Inten    --      0.0845                 0.5425                 1.1841

                      4                      5                      6
                      A                      A                      A
 Frequencies --    118.6116               199.7836               237.7354
 Red. masses --      4.1538                 2.2721                 3.1842
 Frc consts  --      0.0344                 0.0534                 0.1060
 IR Inten    --      1.9110                10.1107                11.9905

                      7                      8                      9
                      A                      A                      A
 Frequencies --    301.4953               330.9671               353.5081
 Red. masses --      1.2626                 2.2600                 2.2008
 Frc consts  --      0.0676                 0.1459                 0.1620
 IR Inten    --     75.4459                19.2647                 1.3288

                     10                     11                     12
                      A                      A                      A
 Frequencies --    423.5701               462.4653               524.4361
 Red. masses --      2.3406                 4.4410                 2.8067
 Frc consts  --      0.2474                 0.5596                 0.4548
 IR Inten    --      3.3056                 0.1282                 1.5185

                     13                     14                     15
                      A                      A                      A
 Frequencies --    569.9316               648.3463               670.2695
 Red. masses --      4.2023                 3.3084                 2.5628
 Frc consts  --      0.8042                 0.8194                 0.6784
 IR Inten    --      0.7162                11.0448                10.2731

                     16                     17                     18
                      A                      A                      A
 Frequencies --    686.7645               754.9789               788.8736
 Red. masses --      1.3039                 1.4214                 1.5535
 Frc consts  --      0.3623                 0.4773                 0.5696
 IR Inten    --      0.3576                 8.2920                54.5729

                     19                     20                     21
                      A                      A                      A
 Frequencies --    817.3317               831.4681               862.9368
 Red. masses --      2.4836                 4.1416                 4.1447
 Frc consts  --      0.9775                 1.6870                 1.8184
 IR Inten    --      8.2745                 8.9750                18.7880

                     22                     23                     24
                      A                      A                      A
 Frequencies --    890.4927               918.5092               936.9964
 Red. masses --      1.2866                 2.2077                 2.4938
 Frc consts  --      0.6011                 1.0974                 1.2900
 IR Inten    --      0.0143                 7.9817                 2.6422

                     25                     26                     27
                      A                      A                      A
 Frequencies --    978.1422               998.3518              1077.8324
 Red. masses --      2.0231                 1.8179                 1.7124
 Frc consts  --      1.1404                 1.0676                 1.1721
 IR Inten    --     18.9346                19.7461                25.9675

                     28                     29                     30
                      A                      A                      A
 Frequencies --   1091.9978              1114.2671              1120.3603
 Red. masses --      2.6232                 2.8189                 1.1334
 Frc consts  --      1.8430                 2.0621                 0.8382
 IR Inten    --     49.2040                 7.9456                 2.9126

                     31                     32                     33
                      A                      A                      A
 Frequencies --   1156.0494              1192.4161              1212.4929
 Red. masses --      1.1167                 1.5139                 1.1907
 Frc consts  --      0.8793                 1.2683                 1.0314
 IR Inten    --     25.7801                 1.4413                 4.1573

                     34                     35                     36
                      A                      A                      A
 Frequencies --   1251.6671              1281.8908              1328.9206
 Red. masses --      1.4067                 1.3806                 1.1747
 Frc consts  --      1.2985                 1.3367                 1.2223
 IR Inten    --     10.7640                 2.6634                 3.7964

                     37                     38                     39
                      A                      A                      A
 Frequencies --   1373.7619              1388.9429              1406.6038
 Red. masses --      1.4761                 1.3934                 1.2046
 Frc consts  --      1.6413                 1.5837                 1.4042
 IR Inten    --      1.0658                 6.0942                37.7438

                     40                     41                     42
                      A                      A                      A
 Frequencies --   1415.0008              1434.9458              1441.6056
 Red. masses --      1.4490                 2.2895                 1.4201
 Frc consts  --      1.7094                 2.7775                 1.7389
 IR Inten    --      1.4548                 3.8330                28.3163

                     43                     44                     45
                      A                      A                      A
 Frequencies --   1478.1403              1505.1050              1516.1487
 Red. masses --      5.6065                 1.0886                 1.0944
 Frc consts  --      7.2172                 1.4530                 1.4822
 IR Inten    --     14.1171                 4.2821                 7.0092

                     46                     47                     48
                      A                      A                      A
 Frequencies --   1529.6051              1541.7770              1607.8264
 Red. masses --      1.1022                 1.0867                 5.7908
 Frc consts  --      1.5194                 1.5220                 8.8200
 IR Inten    --      3.5076                 3.7458                 0.4838

                     49                     50                     51
                      A                      A                      A
 Frequencies --   3007.7898              3033.3275              3042.7476
 Red. masses --      1.0712                 1.0634                 1.0606
 Frc consts  --      5.7100                 5.7648                 5.7856
 IR Inten    --     55.5450                14.5567                53.3259

                     52                     53                     54
                      A                      A                      A
 Frequencies --   3049.5454              3067.3465              3083.6196
 Red. masses --      1.0633                 1.1003                 1.0985
 Frc consts  --      5.8259                 6.0994                 6.1544
 IR Inten    --      9.1094                12.4559                57.2992

                     55                     56                     57
                      A                      A                      A
 Frequencies --   3092.7433              3105.2201              3214.3615
 Red. masses --      1.1028                 1.0947                 1.0908
 Frc consts  --      6.2149                 6.2192                 6.6403
 IR Inten    --     52.3122                48.0055                 5.3589

                     58                     59                     60
                      A                      A                      A
 Frequencies --   3262.2800              3271.8101              3753.3541
 Red. masses --      1.0935                 1.0968                 1.0660
 Frc consts  --      6.8565                 6.9176                 8.8479
 IR Inten    --      1.5904                 1.0451                 6.0762

 - Thermochemistry -
 -------------------
 Temperature   298.150 Kelvin.  Pressure   1.00000 Atm.
 Atom     1 has atomic number  6 and mass  12.00000

 Molecular mass:   156.06089 amu.
 Principal axes and moments of inertia in atomic units:
                           1         2         3
     Eigenvalues --   759.940053150.067433462.01598
           X            0.99998  -0.00660  -0.00152
           Y            0.00661   0.99993   0.00981
           Z            0.00145  -0.00982   0.99995
 This molecule is an asymmetric top.
 Rotational symmetry number  1.
 Warning -- assumption of classical behavior for rotation
           may cause significant error
 Rotational temperatures (Kelvin)      0.11397     0.02750     0.02502
 Rotational constants (GHZ):           2.37485     0.57292     0.52130
 Zero-point vibrational energy     489907.3 (Joules/Mol)
                                  117.09065 (Kcal/Mol)
 Warning -- explicit consideration of  13 degrees of freedom as
           vibrations may cause significant error
 Vibrational temperatures:     47.41    70.97    95.47   170.66   287.44
          (Kelvin)            342.05   433.78   476.19   508.62   609.42
                              665.38   754.55   820.00   932.83   964.37
                              988.10  1086.25  1135.01  1175.96  1196.30
                             1241.57  1281.22  1321.53  1348.13  1407.33
                             1436.41  1550.76  1571.14  1603.18  1611.95
                             1663.30  1715.62  1744.51  1800.87  1844.35
                             1912.02  1976.54  1998.38  2023.79  2035.87
                             2064.57  2074.15  2126.71  2165.51  2181.40
                             2200.76  2218.27  2313.30  4327.54  4364.28
                             4377.84  4387.62  4413.23  4436.64  4449.77
                             4467.72  4624.75  4693.69  4707.40  5400.24

 Zero-point correction=                           0.186596 (Hartree/Particle)
 Thermal correction to Energy=                    0.197031
 Thermal correction to Enthalpy=                  0.197975
 Thermal correction to Gibbs Free Energy=         0.148947
 Sum of electronic and zero-point Energies=           -785.317838
 Sum of electronic and thermal Energies=              -785.307403
 Sum of electronic and thermal Enthalpies=            -785.306459
 Sum of electronic and thermal Free Energies=         -785.355487

                     E (Thermal)             CV                S
                      KCal/Mol        Cal/Mol-Kelvin    Cal/Mol-Kelvin
 Total                  123.639             38.663            103.188
 Electronic               0.000              0.000              0.000
 Translational            0.889              2.981             41.045
 Rotational               0.889              2.981             30.495
 Vibrational            121.861             32.701             31.649
 Vibration     1          0.594              1.983              5.643
 Vibration     2          0.595              1.978              4.844
 Vibration     3          0.598              1.970              4.259
 Vibration     4          0.609              1.934              3.123
 Vibration     5          0.638              1.840              2.135
 Vibration     6          0.656              1.783              1.820
 Vibration     7          0.693              1.671              1.409
 Vibration     8          0.713              1.614              1.255
 Vibration     9          0.730              1.568              1.151
 Vibration    10          0.786              1.419              0.880
 Vibration    11          0.820              1.333              0.759
 Vibration    12          0.879              1.196              0.600
 Vibration    13          0.926              1.096              0.504

 Optimization completed.
    -- Stationary point found.
 Normal termination of Gaussian 16 at Tue Dec  8 10:25:22 2020.

 ----------------------------------------------------------------------
 # B3LYP/6-311++G(d,p) empiricaldispersion=gd3bj scf=xqc pop=npa geom=c
 heck
 ----------------------------------------------------------------------

 -------------------------------------
 CID_54222621_JID_250_Energie_neutraal
 -------------------------------------
 Structure from the checkpoint file:  "JID_250.chk"
 Charge =  0 Multiplicity = 1

 SCF Done:  E(RB3LYP) =  -785.649929912     A.U. after   15 cycles
 Normal termination of Gaussian 16 at Tue Dec  8 10:27:19 2020.

 ----------------------------------------------------------------------
 # B3LYP/6-311++G(d,p) empiricaldispersion=gd3bj scf=xqc pop=npa geom=c
 heck
 ----------------------------------------------------------------------

 -----------------------------------
 CID_54222621_JID_250_Energie_kation
 -----------------------------------
 Structure from the checkpoint file:  "JID_250.chk"
 Charge =  1 Multiplicity = 2

 SCF Done:  E(UB3LYP) =  -785.336339217     A.U. after   26 cycles
 Normal termination of Gaussian 16 at Tue Dec  8 10:32:24 2020.
 Gaussian 16:  ES64L-G16RevA.03 25-Dec-2016

 ----------------------------------------------------------------------
 # B3LYP/6-311++G(d,p) empiricaldispersion=gd3bj scf=xqc pop=npa geom=c
 heck
 ----------------------------------------------------------------------

 ----------------------------------
 CID_54222621_JID_250_Energie_anion
 ----------------------------------
 Structure from the checkpoint file:  "JID_250.chk"
 Charge = -1 Multiplicity = 2

                         Standard orientation:
 ---------------------------------------------------------------------
 Center     Atomic      Atomic             Coordinates (Angstroms)
 Number     Number       Type             X           Y           Z
 ---------------------------------------------------------------------
      1          6           0       -1.610185    1.289641    0.203589
      2          6           0       -2.740310    0.631520    0.596972
      3         16           0       -2.735992   -1.020239    0.062053
      4          6           0       -1.188424   -0.806350   -0.696756
      5          6           0       -0.704201    0.466237   -0.547581
      6          6           0        0.627295    0.942527   -1.066656
      7          6           0        1.609930    1.331590    0.057510
      8          6           0        1.905348    0.211290    1.064110
      9          6           0        2.520067   -1.043955    0.441904
     10          8           0        3.749470   -0.793223   -0.234245
     11          1           0       -1.419096    2.332764    0.433176
     12          1           0       -3.577588    1.016711    1.162715
     13          1           0       -0.720876   -1.633973   -1.213249
     14          1           0        1.065362    0.160416   -1.698694
     15          1           0        0.480568    1.813514   -1.719177
     16          1           0        2.549481    1.676366   -0.395437
     17          1           0        1.206585    2.195364    0.600141
     18          1           0        2.593108    0.595238    1.827310
     19          1           0        0.977701   -0.075111    1.575864
     20          1           0        2.762154   -1.764808    1.228869
     21          1           0        1.795510   -1.532586   -0.228051
     22          1           0        3.550088   -0.249290   -1.010900
 ---------------------------------------------------------------------

 SCF Done:  E(UB3LYP) =  -785.635539262     A.U. after   33 cycles
 SCF Done:  E(UB3LYP) =  -785.635539262     a.u. after    1 cycles

 The electronic state is 2-A.
 Alpha  occ. eigenvalues --  -88.77327 -19.01434 -10.10915 -10.09571 -10.08943
 Alpha  occ. eigenvalues --  -10.07766 -10.07102 -10.06693 -10.06177 -10.06013
 Alpha  occ. eigenvalues --   -7.85949  -5.82230  -5.81871  -5.81562  -0.91487
 Alpha  occ. eigenvalues --   -0.77891  -0.69901  -0.64730  -0.62499  -0.59680
 Alpha  occ. eigenvalues --   -0.53977  -0.47411  -0.46698  -0.43476  -0.40709
 Alpha  occ. eigenvalues --   -0.39129  -0.35816  -0.34881  -0.31667  -0.31345
 Alpha  occ. eigenvalues --   -0.30501  -0.28394  -0.27848  -0.27573  -0.25242
 Alpha  occ. eigenvalues --   -0.24471  -0.23438  -0.22502  -0.21789  -0.17056
 Alpha  occ. eigenvalues --   -0.14779  -0.13405   0.04723
 Alpha virt. eigenvalues --    0.06665   0.07822   0.08046   0.08527   0.08842
 Alpha virt. eigenvalues --    0.10424   0.10638   0.11279   0.12080   0.12169
 Alpha virt. eigenvalues --    0.12609   0.13614   0.14224   0.14319   0.14820

  Beta  occ. eigenvalues --  -88.77321 -19.01393 -10.10902 -10.09543 -10.08899
  Beta  occ. eigenvalues --  -10.07760 -10.07079 -10.06658 -10.06142 -10.06006
  Beta  occ. eigenvalues --   -7.85944  -5.82227  -5.81867  -5.81545  -0.91396
  Beta  occ. eigenvalues --   -0.77847  -0.69849  -0.64684  -0.62435  -0.59614
  Beta  occ. eigenvalues --   -0.53904  -0.47340  -0.46618  -0.43409  -0.40645
  Beta  occ. eigenvalues --   -0.39050  -0.35771  -0.34816  -0.31623  -0.31291
  Beta  occ. eigenvalues --   -0.30453  -0.28346  -0.27807  -0.27497  -0.25200
  Beta  occ. eigenvalues --   -0.24421  -0.23381  -0.22457  -0.21754  -0.17011
  Beta  occ. eigenvalues --   -0.14705  -0.13257
  Beta virt. eigenvalues --    0.07288   0.07838   0.08102   0.08672   0.08888
  Beta virt. eigenvalues --    0.09651   0.10658   0.11249   0.11597   0.12226
  Beta virt. eigenvalues --    0.12577   0.12915   0.14009   0.14213   0.14601

 Mulliken charges and spin densities:
               1          2
     1  C   -1.519904   1.402871
     2  C    1.269219  -1.528785
     3  S    0.698725  -1.098402
     4  C   -2.018167   2.457615
     5  C   -0.650143   0.530333
     6  C    3.792109  -4.238823
     7  C    1.167097  -1.550570
     8  C   -0.809401   0.698600
     9  C    0.622277  -1.152137
    10  O   -0.274967   0.028355
    11  H   -0.902736   1.083317
    12  H   -0.731071   0.995420
    13  H   -0.469512   0.741782
    14  H   -0.430095   0.571755
    15  H   -0.443051   0.638234
    16  H   -0.364104   0.530659
    17  H   -0.107654   0.225409
    18  H   -0.004343   0.177208
    19  H    0.053913   0.054165
    20  H    0.095521   0.053994
    21  H    0.099969   0.049220
    22  H   -0.073683   0.329778
 Sum of Mulliken charges =  -1.00000   1.00000

 Dipole moment (field-independent basis, Debye):
    X=             -2.0767    Y=             -4.2399    Z=              2.5577  Tot=              5.3695
 Quadrupole moment (field-independent basis, Debye-Ang):
   XX=           -135.2926   YY=           -108.7530   ZZ=           -101.8134
   XY=              6.2995   XZ=             10.6070   YZ=             -1.8497

 Summary of Natural Population Analysis:

                                       Natural Population
                Natural  -----------------------------------------------
    Atom  No    Charge         Core      Valence    Rydberg      Total
 -----------------------------------------------------------------------
      C    1   -0.12276      0.99948     2.11194    0.01134     3.12276
      C    2   -0.18962      0.99954     2.17792    0.01216     3.18962
      S    3    0.18980      4.99946     2.78957    0.02117     7.81020
      C    4   -0.18963      0.99944     2.17831    0.01188     3.18963
      C    5   -0.04129      0.99948     2.02858    0.01322     3.04129
      C    6   -0.19933      0.99959     2.18807    0.01167     3.19933
      C    7   -0.19046      0.99962     2.18061    0.01023     3.19046
      C    8   -0.20496      0.99962     2.19700    0.00834     3.20496
      C    9   -0.01102      0.99960     1.99847    0.01295     3.01102
      O   10   -0.37191      0.99990     3.36543    0.00658     4.37191
      H   11    0.11104      0.00000     0.38680    0.00216     0.38896
      H   12    0.11037      0.00000     0.38795    0.00168     0.38963
      H   13    0.11025      0.00000     0.38844    0.00132     0.38975
      H   14    0.10104      0.00000     0.39653    0.00244     0.39896
      H   15    0.10953      0.00000     0.38806    0.00240     0.39047
      H   16    0.09979      0.00000     0.39782    0.00239     0.40021
      H   17    0.10012      0.00000     0.39830    0.00158     0.39988
      H   18    0.09735      0.00000     0.40161    0.00104     0.40265
      H   19    0.10116      0.00000     0.39751    0.00133     0.39884
      H   20    0.08277      0.00000     0.41616    0.00107     0.41723
      H   21    0.07639      0.00000     0.42196    0.00165     0.42361
      H   22    0.23136      0.00000     0.26379    0.00485     0.26864
 =======================================================================
   * Total *   -0.00000     13.99573    27.86082    0.14345    42.00000

 Normal termination of Gaussian 16 at Tue Dec  8 10:42:17 2020.
