 Gaussian 16, Revision A.03,

 -----------------------------------------------------------
 # opt freq B3LYP/6-31G(d) empiricaldispersion=gd3bj scf=xqc
 -----------------------------------------------------------

 ------------------------------
 CID_21156683_JID_8744_neutraal
 ------------------------------
 Symbolic Z-matrix:
 Charge =  0 Multiplicity = 1

 SCF Done:  E(RB3LYP) =  -732.554509435     A.U. after   14 cycles
 SCF Done:  E(RB3LYP) =  -732.556915127     A.U. after   11 cycles
 SCF Done:  E(RB3LYP) =  -732.557279033     A.U. after   12 cycles
 SCF Done:  E(RB3LYP) =  -732.557464998     A.U. after   11 cycles
 SCF Done:  E(RB3LYP) =  -732.557472514     A.U. after   11 cycles
 SCF Done:  E(RB3LYP) =  -732.557486573     A.U. after    9 cycles
 SCF Done:  E(RB3LYP) =  -732.557486989     A.U. after    7 cycles
 Optimization completed.
    -- Stationary point found.
 Normal termination of Gaussian 16 at Sun Dec 13 12:27:46 2020.

 --------------------------------------------------------------------
 #N Geom=AllCheck Guess=TCheck SCRF=Check GenChk RB3LYP/6-31G(d) Freq
 --------------------------------------------------------------------

 Structure from the checkpoint file:  "JID_8744.chk"
 ------------------------------
 CID_21156683_JID_8744_neutraal
 ------------------------------
 Charge =  0 Multiplicity = 1

 SCF Done:  E(RB3LYP) =  -732.557486989     A.U. after    1 cycles

  Exact polarizability: 190.199  15.315 145.516  -5.883   8.814 156.127
 Approx polarizability: 255.542  34.869 228.951 -13.404  19.353 262.848

                      1                      2                      3
                      A                      A                      A
 Frequencies --     31.7668                64.9056                70.6663
 Red. masses --      3.6865                 4.6476                 4.3399
 Frc consts  --      0.0022                 0.0115                 0.0128
 IR Inten    --      0.1486                 0.3842                 0.5123

                      4                      5                      6
                      A                      A                      A
 Frequencies --    173.5410               187.2835               232.8870
 Red. masses --      3.2836                 3.5297                 3.3910
 Frc consts  --      0.0583                 0.0729                 0.1084
 IR Inten    --      0.4145                 0.8790                 5.3106

                      7                      8                      9
                      A                      A                      A
 Frequencies --    244.2127               263.5176               308.6930
 Red. masses --      5.0885                 1.1004                 3.3090
 Frc consts  --      0.1788                 0.0450                 0.1858
 IR Inten    --      0.6306                56.3233                 3.1254

                     10                     11                     12
                      A                      A                      A
 Frequencies --    312.7066               347.9315               357.1169
 Red. masses --      2.0214                 2.4504                 2.5931
 Frc consts  --      0.1165                 0.1748                 0.1948
 IR Inten    --      0.3169                 0.0853                 0.6650

                     13                     14                     15
                      A                      A                      A
 Frequencies --    391.1984               405.8713               414.9742
 Red. masses --      2.6486                 3.6569                 4.6317
 Frc consts  --      0.2388                 0.3549                 0.4699
 IR Inten    --      0.2469                 0.2006                 0.2330

                     16                     17                     18
                      A                      A                      A
 Frequencies --    419.4977               446.1422               449.0078
 Red. masses --      3.5971                 1.8040                 1.7874
 Frc consts  --      0.3730                 0.2116                 0.2123
 IR Inten    --      1.6085                 0.1509                 0.2833

                     19                     20                     21
                      A                      A                      A
 Frequencies --    480.9847               559.6256               612.7918
 Red. masses --      2.0117                 3.6910                 3.7047
 Frc consts  --      0.2742                 0.6811                 0.8197
 IR Inten    --      4.8096                 6.3975                23.4597

                     22                     23                     24
                      A                      A                      A
 Frequencies --    655.0277               660.1010               661.1445
 Red. masses --      3.3862                 3.7473                 3.8461
 Frc consts  --      0.8560                 0.9620                 0.9905
 IR Inten    --      4.4165                 0.0756                 0.7474

                     25                     26                     27
                      A                      A                      A
 Frequencies --    688.0227               717.1543               769.2090
 Red. masses --      6.7262                 3.7082                 3.2558
 Frc consts  --      1.8760                 1.1237                 1.1350
 IR Inten    --      0.7587                 1.9424                 6.2116

                     28                     29                     30
                      A                      A                      A
 Frequencies --    784.2539               807.9454               826.1330
 Red. masses --      3.6135                 3.1221                 2.7197
 Frc consts  --      1.3094                 1.2008                 1.0936
 IR Inten    --      1.8802                42.6379                 3.5041

                     31                     32                     33
                      A                      A                      A
 Frequencies --    831.8754               842.4109               888.8754
 Red. masses --      2.1770                 1.8177                 1.2738
 Frc consts  --      0.8876                 0.7600                 0.5930
 IR Inten    --     22.6192                17.4759                 5.0575

                     34                     35                     36
                      A                      A                      A
 Frequencies --    904.8748               905.8242               907.9785
 Red. masses --      1.7393                 1.6287                 1.5756
 Frc consts  --      0.8391                 0.7874                 0.7653
 IR Inten    --      9.7543                 9.6873                 0.2211

                     37                     38                     39
                      A                      A                      A
 Frequencies --    911.0524               937.5821               955.2776
 Red. masses --      1.9312                 2.5435                 2.0970
 Frc consts  --      0.9444                 1.3174                 1.1275
 IR Inten    --     39.3101                40.9477                 1.5516

                     40                     41                     42
                      A                      A                      A
 Frequencies --    966.9368               976.9866               990.9154
 Red. masses --      2.0584                 1.3138                 1.4806
 Frc consts  --      1.1339                 0.7388                 0.8566
 IR Inten    --     23.0133                 2.8524                 0.1117

                     43                     44                     45
                      A                      A                      A
 Frequencies --    992.8981               999.5705              1003.5629
 Red. masses --      2.0962                 2.0811                 2.2567
 Frc consts  --      1.2176                 1.2251                 1.3391
 IR Inten    --      0.8372                10.2317                14.7762

                     46                     47                     48
                      A                      A                      A
 Frequencies --   1017.0689              1060.5129              1063.0373
 Red. masses --      7.4521                 1.8817                 1.8093
 Frc consts  --      4.5418                 1.2469                 1.2046
 IR Inten    --      2.2459                 1.1267                 0.0018

                     49                     50                     51
                      A                      A                      A
 Frequencies --   1068.9511              1084.5220              1105.0257
 Red. masses --      1.8869                 3.1890                 1.9472
 Frc consts  --      1.2703                 2.2099                 1.4009
 IR Inten    --      2.4045                 6.5529                 1.8966

                     52                     53                     54
                      A                      A                      A
 Frequencies --   1118.7344              1128.8710              1132.2351
 Red. masses --      1.7902                 1.5117                 1.5809
 Frc consts  --      1.3201                 1.1350                 1.1941
 IR Inten    --      0.9644                 0.7139                 1.9482

                     55                     56                     57
                      A                      A                      A
 Frequencies --   1137.5176              1143.4096              1152.1024
 Red. masses --      1.3635                 1.0223                 1.0434
 Frc consts  --      1.0395                 0.7875                 0.8160
 IR Inten    --      0.8913                 0.0611                 0.5829

                     58                     59                     60
                      A                      A                      A
 Frequencies --   1162.2574              1182.1595              1218.5026
 Red. masses --      2.7322                 1.2177                 1.5663
 Frc consts  --      2.1746                 1.0027                 1.3702
 IR Inten    --      0.6841                 0.7281                 1.7579

                     61                     62                     63
                      A                      A                      A
 Frequencies --   1225.2139              1245.0724              1260.0891
 Red. masses --      1.6480                 1.3268                 1.2731
 Frc consts  --      1.4576                 1.2118                 1.1910
 IR Inten    --      1.7166                 2.3453                 5.6095

                     64                     65                     66
                      A                      A                      A
 Frequencies --   1280.4705              1306.8116              1314.1288
 Red. masses --      1.9191                 2.2468                 1.9829
 Frc consts  --      1.8539                 2.2607                 2.0176
 IR Inten    --      9.8400                 1.4324                 1.8598

                     67                     68                     69
                      A                      A                      A
 Frequencies --   1330.8741              1335.5612              1336.9403
 Red. masses --      1.7551                 1.7356                 1.6989
 Frc consts  --      1.8315                 1.8240                 1.7891
 IR Inten    --      0.8968                 0.0351                 0.0583

                     70                     71                     72
                      A                      A                      A
 Frequencies --   1351.8989              1360.0290              1364.7430
 Red. masses --      1.6666                 2.0032                 1.5263
 Frc consts  --      1.7947                 2.1831                 1.6750
 IR Inten    --      1.9373                14.6506                 0.4503

                     73                     74                     75
                      A                      A                      A
 Frequencies --   1368.2382              1369.4782              1383.7781
 Red. masses --      1.5307                 1.3154                 1.3755
 Frc consts  --      1.6884                 1.4535                 1.5519
 IR Inten    --      1.0088                 0.0195                 0.5069

                     76                     77                     78
                      A                      A                      A
 Frequencies --   1398.0214              1401.1147              1417.3374
 Red. masses --      1.5082                 1.4618                 1.4600
 Frc consts  --      1.7367                 1.6907                 1.7280
 IR Inten    --      0.0541                 0.2527                 1.6513

                     79                     80                     81
                      A                      A                      A
 Frequencies --   1419.6308              1422.0922              1426.8782
 Red. masses --      1.5240                 1.4772                 1.2928
 Frc consts  --      1.8096                 1.7601                 1.5508
 IR Inten    --      1.5460                 1.3205                 2.2449

                     82                     83                     84
                      A                      A                      A
 Frequencies --   1463.3090              1508.8243              1509.8616
 Red. masses --      1.9814                 1.0876                 1.0875
 Frc consts  --      2.4997                 1.4588                 1.4606
 IR Inten    --     22.8770                 0.8323                 0.5448

                     85                     86                     87
                      A                      A                      A
 Frequencies --   1521.9044              1523.4440              1524.4013
 Red. masses --      1.0969                 1.0965                 1.1004
 Frc consts  --      1.4970                 1.4994                 1.5065
 IR Inten    --      5.5470                 5.7196                 7.9064

                     88                     89                     90
                      A                      A                      A
 Frequencies --   1543.4070              1546.7150              1618.5255
 Red. masses --      2.0865                 1.0968                 6.4626
 Frc consts  --      2.9283                 1.5460                 9.9747
 IR Inten    --      1.9598                 0.1088                15.6027

                     91                     92                     93
                      A                      A                      A
 Frequencies --   1654.4608              1695.7821              3022.9308
 Red. masses --      5.3157                 1.0895                 1.0668
 Frc consts  --      8.5729                 1.8460                 5.7438
 IR Inten    --     57.2225                35.4620                 9.5881

                     94                     95                     96
                      A                      A                      A
 Frequencies --   3025.7282              3026.3516              3027.2589
 Red. masses --      1.0655                 1.0647                 1.0647
 Frc consts  --      5.7475                 5.7451                 5.7489
 IR Inten    --      9.1138                 5.1169                 9.0272

                     97                     98                     99
                      A                      A                      A
 Frequencies --   3028.1107              3030.0438              3036.4833
 Red. masses --      1.0662                 1.0677                 1.0782
 Frc consts  --      5.7600                 5.7758                 5.8573
 IR Inten    --      9.7691                35.9859                55.9022

                    100                    101                    102
                      A                      A                      A
 Frequencies --   3046.6146              3047.0190              3056.0009
 Red. masses --      1.0827                 1.0813                 1.0796
 Frc consts  --      5.9212                 5.9151                 5.9407
 IR Inten    --    115.4679               152.5343                38.4119

                    103                    104                    105
                      A                      A                      A
 Frequencies --   3064.3519              3065.1807              3070.8412
 Red. masses --      1.1045                 1.1049                 1.1041
 Frc consts  --      6.1106                 6.1164                 6.1344
 IR Inten    --     23.9939                 8.1962               103.6323

                    106                    107                    108
                      A                      A                      A
 Frequencies --   3077.5386              3083.7932              3108.6650
 Red. masses --      1.1010                 1.0968                 1.0931
 Frc consts  --      6.1438                 6.1456                 6.2241
 IR Inten    --     17.2778                62.1433                22.5754

                    109                    110                    111
                      A                      A                      A
 Frequencies --   3167.6970              3169.5231              3195.8644
 Red. masses --      1.0869                 1.0899                 1.0935
 Frc consts  --      6.4257                 6.4508                 6.5804
 IR Inten    --     29.3530                26.3638                21.0126

                    112                    113                    114
                      A                      A                      A
 Frequencies --   3202.4825              3477.8891              3562.2394
 Red. masses --      1.0927                 1.0495                 1.0920
 Frc consts  --      6.6028                 7.4793                 8.1643
 IR Inten    --     13.0691                 0.9813                 0.0351

 - Thermochemistry -
 -------------------
 Temperature   298.150 Kelvin.  Pressure   1.00000 Atm.
 Atom     1 has atomic number  6 and mass  12.00000

 Molecular mass:   242.17830 amu.
 Principal axes and moments of inertia in atomic units:
                           1         2         3
     Eigenvalues --  2015.893046313.661296648.87097
           X            0.99998  -0.00657   0.00114
           Y            0.00652   0.99905   0.04301
           Z           -0.00142  -0.04300   0.99907
 This molecule is an asymmetric top.
 Rotational symmetry number  1.
 Warning -- assumption of classical behavior for rotation
           may cause significant error
 Rotational temperatures (Kelvin)      0.04297     0.01372     0.01303
 Rotational constants (GHZ):           0.89526     0.28585     0.27144
 Zero-point vibrational energy     945991.9 (Joules/Mol)
                                  226.09748 (Kcal/Mol)
 Warning -- explicit consideration of  21 degrees of freedom as
           vibrations may cause significant error
 Vibrational temperatures:     45.71    93.38   101.67   249.69   269.46
          (Kelvin)            335.07   351.37   379.14   444.14   449.92
                              500.60   513.81   562.85   583.96   597.06
                              603.56   641.90   646.02   692.03   805.18
                              881.67   942.44   949.74   951.24   989.91
                             1031.83  1106.72  1128.37  1162.45  1188.62
                             1196.88  1212.04  1278.89  1301.91  1303.28
                             1306.38  1310.80  1348.97  1374.43  1391.21
                             1405.67  1425.71  1428.56  1438.16  1443.90
                             1463.34  1525.84  1529.47  1537.98  1560.39
                             1589.89  1609.61  1624.19  1629.03  1636.63
                             1645.11  1657.62  1672.23  1700.86  1753.15
                             1762.81  1791.38  1812.99  1842.31  1880.21
                             1890.74  1914.83  1921.57  1923.56  1945.08
                             1956.78  1963.56  1968.59  1970.37  1990.95
                             2011.44  2015.89  2039.23  2042.53  2046.07
                             2052.96  2105.38  2170.86  2172.35  2189.68
                             2191.90  2193.27  2220.62  2225.38  2328.70
                             2380.40  2439.85  4349.32  4353.35  4354.24
                             4355.55  4356.78  4359.56  4368.82  4383.40
                             4383.98  4396.90  4408.92  4410.11  4418.26
                             4427.89  4436.89  4472.68  4557.61  4560.24
                             4598.14  4607.66  5003.91  5125.27

 Zero-point correction=                           0.360309 (Hartree/Particle)
 Thermal correction to Energy=                    0.374371
 Thermal correction to Enthalpy=                  0.375315
 Thermal correction to Gibbs Free Energy=         0.319662
 Sum of electronic and zero-point Energies=           -732.197178
 Sum of electronic and thermal Energies=              -732.183116
 Sum of electronic and thermal Enthalpies=            -732.182172
 Sum of electronic and thermal Free Energies=         -732.237825

                     E (Thermal)             CV                S
                      KCal/Mol        Cal/Mol-Kelvin    Cal/Mol-Kelvin
 Total                  234.921             60.613            117.131
 Electronic               0.000              0.000              0.000
 Translational            0.889              2.981             42.355
 Rotational               0.889              2.981             32.803
 Vibrational            233.144             54.651             41.973
 Vibration     1          0.594              1.983              5.716
 Vibration     2          0.597              1.971              4.302
 Vibration     3          0.598              1.968              4.135
 Vibration     4          0.627              1.875              2.397
 Vibration     5          0.632              1.857              2.255
 Vibration     6          0.654              1.791              1.857
 Vibration     7          0.660              1.772              1.772
 Vibration     8          0.670              1.740              1.638
 Vibration     9          0.698              1.657              1.369
 Vibration    10          0.701              1.649              1.348
 Vibration    11          0.726              1.579              1.176
 Vibration    12          0.732              1.561              1.135
 Vibration    13          0.759              1.489              0.996
 Vibration    14          0.771              1.457              0.941
 Vibration    15          0.778              1.438              0.909
 Vibration    16          0.782              1.428              0.894
 Vibration    17          0.805              1.369              0.808
 Vibration    18          0.808              1.363              0.799
 Vibration    19          0.837              1.292              0.707
 Vibration    20          0.915              1.119              0.525
 Vibration    21          0.972              1.005              0.428

                           ! Non-Optimized Parameters !
 Normal termination of Gaussian 16 at Sun Dec 13 12:51:11 2020.

 ----------------------------------------------------------------------
 # B3LYP/6-311++G(d,p) empiricaldispersion=gd3bj scf=xqc pop=npa geom=c
 heck
 ----------------------------------------------------------------------

 --------------------------------------
 CID_21156683_JID_8744_Energie_neutraal
 --------------------------------------
 Structure from the checkpoint file:  "JID_8744.chk"
 Charge =  0 Multiplicity = 1

 SCF Done:  E(RB3LYP) =  -732.749825927     A.U. after   15 cycles
 Normal termination of Gaussian 16 at Sun Dec 13 13:01:59 2020.

 ----------------------------------------------------------------------
 # B3LYP/6-311++G(d,p) empiricaldispersion=gd3bj scf=xqc pop=npa geom=c
 heck
 ----------------------------------------------------------------------

 ------------------------------------
 CID_21156683_JID_8744_Energie_kation
 ------------------------------------
 Structure from the checkpoint file:  "JID_8744.chk"
 Charge =  1 Multiplicity = 2

 SCF Done:  E(UB3LYP) =  -732.434677339     A.U. after   27 cycles
 Normal termination of Gaussian 16 at Sun Dec 13 13:29:34 2020.
 Gaussian 16:  ES64L-G16RevA.03 25-Dec-2016

 ----------------------------------------------------------------------
 # B3LYP/6-311++G(d,p) empiricaldispersion=gd3bj scf=xqc pop=npa geom=c
 heck
 ----------------------------------------------------------------------

 -----------------------------------
 CID_21156683_JID_8744_Energie_anion
 -----------------------------------
 Structure from the checkpoint file:  "JID_8744.chk"
 Charge = -1 Multiplicity = 2

                         Standard orientation:
 ---------------------------------------------------------------------
 Center     Atomic      Atomic             Coordinates (Angstroms)
 Number     Number       Type             X           Y           Z
 ---------------------------------------------------------------------
      1          6           0        3.083704   -0.878777   -1.111325
      2          6           0        3.082650    0.551512   -0.543438
      3          6           0        3.238302    0.495987    0.987201
      4          6           0        2.066286   -0.296594    1.593146
      5          6           0        2.063836   -1.726560    1.023829
      6          6           0        1.908902   -1.667322   -0.506627
      7          6           0        0.580951   -0.969535   -0.852638
      8          6           0        0.556212    0.472199   -0.295115
      9          6           0        1.754785    1.244096   -0.895816
     10          6           0        0.737015    0.397873    1.238643
     11          6           0       -0.764836    1.192027   -0.707110
     12          6           0       -2.020793    0.425451   -0.307941
     13          6           0       -2.604803    0.542521    0.958176
     14          6           0       -3.748720   -0.195122    1.258427
     15          7           0       -4.352945   -1.023486    0.397337
     16          6           0       -3.800445   -1.125399   -0.817854
     17          6           0       -2.656053   -0.433271   -1.210876
     18          7           0       -0.748140    2.591284   -0.260119
     19          1           0        4.033313   -1.379458   -0.879228
     20          1           0        2.993920   -0.849109   -2.205633
     21          1           0        3.913188    1.122675   -0.977662
     22          1           0        3.258415    1.513461    1.400227
     23          1           0        4.191521    0.020320    1.254093
     24          1           0        2.170232   -0.334362    2.685079
     25          1           0        1.240873   -2.305814    1.463630
     26          1           0        2.997817   -2.239314    1.289601
     27          1           0        1.896007   -2.685614   -0.915646
     28          1           0        0.445434   -0.942788   -1.943324
     29          1           0       -0.254200   -1.548549   -0.442100
     30          1           0        1.745603    2.274506   -0.528590
     31          1           0        1.638144    1.297075   -1.987516
     32          1           0       -0.097045   -0.153608    1.689406
     33          1           0        0.735616    1.407199    1.671949
     34          1           0       -0.752385    1.225190   -1.804767
     35          1           0       -2.184960    1.206312    1.707647
     36          1           0       -4.205868   -0.114251    2.243373
     37          1           0       -4.301973   -1.793356   -1.516339
     38          1           0       -2.261576   -0.561745   -2.215218
     39          1           0       -1.600980    3.053761   -0.570044
     40          1           0       -0.755460    2.638368    0.756461
 ---------------------------------------------------------------------

 SCF Done:  E(UB3LYP) =  -732.740567614     A.U. after   33 cycles
 SCF Done:  E(UB3LYP) =  -732.740567614     a.u. after    1 cycles

 The electronic state is 2-A.
 Alpha  occ. eigenvalues --  -14.20139 -14.19872 -10.10626 -10.10323 -10.10281
 Alpha  occ. eigenvalues --  -10.08485 -10.08098 -10.07671 -10.07633 -10.07066
 Alpha  occ. eigenvalues --  -10.07020 -10.06763 -10.06226 -10.06198 -10.06042
 Alpha  occ. eigenvalues --  -10.06030 -10.05991 -10.05469  -0.83965  -0.80274
 Alpha  occ. eigenvalues --   -0.76788  -0.70605  -0.67491  -0.66994  -0.66832
 Alpha  occ. eigenvalues --   -0.65875  -0.57944  -0.56803  -0.56686  -0.52914
 Alpha  occ. eigenvalues --   -0.50808  -0.48581  -0.48413  -0.46202  -0.42470
 Alpha  occ. eigenvalues --   -0.41357  -0.39722  -0.38012  -0.36969  -0.35412
 Alpha  occ. eigenvalues --   -0.35340  -0.35200  -0.34657  -0.32846  -0.32677
 Alpha  occ. eigenvalues --   -0.32139  -0.30770  -0.30406  -0.29756  -0.29335
 Alpha  occ. eigenvalues --   -0.29027  -0.28403  -0.27381  -0.25274  -0.23139
 Alpha  occ. eigenvalues --   -0.23044  -0.22728  -0.22632  -0.22409  -0.19787
 Alpha  occ. eigenvalues --   -0.18366  -0.18305  -0.17648  -0.16453  -0.15967
 Alpha  occ. eigenvalues --   -0.14660   0.04081
 Alpha virt. eigenvalues --    0.05891   0.06465   0.06836   0.07606   0.07921
 Alpha virt. eigenvalues --    0.08328   0.08648   0.08839   0.09234   0.09803
 Alpha virt. eigenvalues --    0.10517   0.11129   0.11335   0.11738   0.12055

  Beta  occ. eigenvalues --  -14.20010 -14.19851 -10.10628 -10.10305 -10.10257
  Beta  occ. eigenvalues --  -10.08347 -10.08088 -10.07662 -10.07627 -10.07060
  Beta  occ. eigenvalues --  -10.07016 -10.06759 -10.06214 -10.06183 -10.06032
  Beta  occ. eigenvalues --  -10.06013 -10.05973 -10.05460  -0.83785  -0.80223
  Beta  occ. eigenvalues --   -0.76759  -0.70426  -0.67446  -0.66969  -0.66806
  Beta  occ. eigenvalues --   -0.65788  -0.57862  -0.56759  -0.56650  -0.52857
  Beta  occ. eigenvalues --   -0.50666  -0.48548  -0.48387  -0.46157  -0.42409
  Beta  occ. eigenvalues --   -0.41290  -0.39671  -0.37946  -0.36880  -0.35373
  Beta  occ. eigenvalues --   -0.35310  -0.35171  -0.34620  -0.32795  -0.32645
  Beta  occ. eigenvalues --   -0.32097  -0.30749  -0.30155  -0.29726  -0.29293
  Beta  occ. eigenvalues --   -0.28992  -0.28276  -0.27288  -0.25217  -0.23118
  Beta  occ. eigenvalues --   -0.23024  -0.22705  -0.22607  -0.22377  -0.19532
  Beta  occ. eigenvalues --   -0.18336  -0.18266  -0.17368  -0.16236  -0.15814
  Beta  occ. eigenvalues --   -0.14538
  Beta virt. eigenvalues --    0.06101   0.07038   0.07123   0.07383   0.07908
  Beta virt. eigenvalues --    0.08035   0.08650   0.08816   0.09241   0.09536
  Beta virt. eigenvalues --    0.10036   0.10742   0.11482   0.11493   0.12107

 Mulliken charges and spin densities:
               1          2
     1  C    0.433172  -1.233966
     2  C   -0.159236   0.642420
     3  C    0.553207  -1.311990
     4  C    0.167768   0.226234
     5  C   -0.004587  -0.806616
     6  C    0.051075   0.433990
     7  C   -1.141384   0.043630
     8  C    1.048370  -0.130483
     9  C    0.235085  -0.856457
    10  C   -0.999294   0.010771
    11  C    0.318973  -0.826245
    12  C    0.978516  -0.955833
    13  C    0.030919   0.646534
    14  C   -0.102619  -0.573000
    15  N   -0.097882   0.064401
    16  C    0.356125  -1.026552
    17  C   -1.631585   1.950557
    18  N   -0.189176  -0.128510
    19  H   -0.140455   0.295810
    20  H   -0.125586   0.257460
    21  H   -0.140406   0.371790
    22  H   -0.025228   0.158581
    23  H   -0.138246   0.293347
    24  H   -0.215266   0.440565
    25  H    0.019543   0.104033
    26  H   -0.079521   0.239966
    27  H   -0.081373   0.303791
    28  H    0.058030   0.104254
    29  H    0.303751  -0.090553
    30  H    0.201807  -0.007356
    31  H   -0.059417   0.201228
    32  H    0.369201  -0.187530
    33  H   -0.211304   0.353562
    34  H    0.068278   0.199803
    35  H   -0.490863   0.662563
    36  H   -0.030134   0.185241
    37  H    0.051964   0.099171
    38  H   -0.419873   0.592426
    39  H    0.072252   0.176408
    40  H    0.165400   0.076560
 Sum of Mulliken charges =  -1.00000   1.00000

 Dipole moment (field-independent basis, Debye):
    X=             -0.1903    Y=             -0.2549    Z=             -0.2579  Tot=              0.4095
 Quadrupole moment (field-independent basis, Debye-Ang):
   XX=           -194.4144   YY=           -148.1701   ZZ=           -149.9078
   XY=             -0.4614   XZ=              1.5966   YZ=             -1.1412

 Summary of Natural Population Analysis:

                                       Natural Population
                Natural  -----------------------------------------------
    Atom  No    Charge         Core      Valence    Rydberg      Total
 -----------------------------------------------------------------------
      C    1   -0.18690      0.99960     2.17760    0.00970     3.18690
      C    2   -0.11078      0.99959     2.09941    0.01178     3.11078
      C    3   -0.18650      0.99960     2.17728    0.00962     3.18650
      C    4   -0.10911      0.99959     2.09770    0.01182     3.10911
      C    5   -0.18638      0.99960     2.17746    0.00932     3.18638
      C    6   -0.10958      0.99959     2.09849    0.01149     3.10958
      C    7   -0.19106      0.99958     2.18158    0.00990     3.19106
      C    8   -0.02575      0.99953     2.01284    0.01338     3.02575
      C    9   -0.18933      0.99958     2.17905    0.01070     3.18933
      C   10   -0.19435      0.99957     2.18423    0.01055     3.19435
      C   11   -0.02012      0.99950     2.00475    0.01588     3.02012
      C   12    0.02075      0.99949     1.96777    0.01199     2.97925
      C   13   -0.12683      0.99949     2.11827    0.00907     3.12683
      C   14    0.02764      0.99959     1.95694    0.01584     2.97236
      N   15   -0.22550      0.99972     2.71427    0.01152     3.72550
      C   16    0.02788      0.99959     1.95854    0.01399     2.97212
      C   17   -0.12328      0.99950     2.11504    0.00874     3.12328
      N   18   -0.41574      0.99978     2.90644    0.00953     3.91574
      H   19    0.09792      0.00000     0.40093    0.00115     0.40208
      H   20    0.09859      0.00000     0.40030    0.00111     0.40141
      H   21    0.09857      0.00000     0.40004    0.00139     0.40143
      H   22    0.09855      0.00000     0.40035    0.00109     0.40145
      H   23    0.09827      0.00000     0.40058    0.00115     0.40173
      H   24    0.09862      0.00000     0.39995    0.00143     0.40138
      H   25    0.09759      0.00000     0.40143    0.00098     0.40241
      H   26    0.09850      0.00000     0.40047    0.00103     0.40150
      H   27    0.09804      0.00000     0.40064    0.00132     0.40196
      H   28    0.09997      0.00000     0.39871    0.00132     0.40003
      H   29    0.10357      0.00000     0.39469    0.00173     0.39643
      H   30    0.10959      0.00000     0.38883    0.00158     0.39041
      H   31    0.09876      0.00000     0.40005    0.00118     0.40124
      H   32    0.10313      0.00000     0.39527    0.00160     0.39687
      H   33    0.09850      0.00000     0.39998    0.00152     0.40150
      H   34    0.09702      0.00000     0.40108    0.00190     0.40298
      H   35    0.10281      0.00000     0.39528    0.00191     0.39719
      H   36    0.08730      0.00000     0.41149    0.00122     0.41270
      H   37    0.08686      0.00000     0.41193    0.00121     0.41314
      H   38    0.10338      0.00000     0.39507    0.00154     0.39662
      H   39    0.17594      0.00000     0.32260    0.00146     0.32406
      H   40    0.17346      0.00000     0.32462    0.00192     0.32654
 =======================================================================
   * Total *   -0.00000     17.99248    47.77198    0.23554    66.00000

 Normal termination of Gaussian 16 at Sun Dec 13 14:01:33 2020.
