 Gaussian 16, Revision A.03,

 -----------------------------------------------------------
 # opt freq B3LYP/6-31G(d) empiricaldispersion=gd3bj scf=xqc
 -----------------------------------------------------------

 ------------------------------
 CID_63199419_JID_5835_neutraal
 ------------------------------
 Symbolic Z-matrix:
 Charge =  0 Multiplicity = 1

 SCF Done:  E(RB3LYP) =  -634.256506595     A.U. after   14 cycles
 SCF Done:  E(RB3LYP) =  -634.260629589     A.U. after   12 cycles
 SCF Done:  E(RB3LYP) =  -634.261207382     A.U. after   11 cycles
 SCF Done:  E(RB3LYP) =  -634.261309380     A.U. after   11 cycles
 SCF Done:  E(RB3LYP) =  -634.261328925     A.U. after   10 cycles
 SCF Done:  E(RB3LYP) =  -634.261338790     A.U. after    9 cycles
 SCF Done:  E(RB3LYP) =  -634.261343388     A.U. after    9 cycles
 SCF Done:  E(RB3LYP) =  -634.261344619     A.U. after    8 cycles
 SCF Done:  E(RB3LYP) =  -634.261346161     A.U. after    9 cycles
 SCF Done:  E(RB3LYP) =  -634.261348212     A.U. after    9 cycles
 SCF Done:  E(RB3LYP) =  -634.261629712     A.U. after    9 cycles
 SCF Done:  E(RB3LYP) =  -634.261630103     A.U. after    8 cycles
 SCF Done:  E(RB3LYP) =  -634.261630392     A.U. after    8 cycles
 SCF Done:  E(RB3LYP) =  -634.261630437     A.U. after    6 cycles
 SCF Done:  E(RB3LYP) =  -634.261630462     A.U. after    7 cycles
 Optimization completed on the basis of negligible forces.
    -- Stationary point found.
 Normal termination of Gaussian 16 at Thu Dec 10 17:52:27 2020.

 --------------------------------------------------------------------
 #N Geom=AllCheck Guess=TCheck SCRF=Check GenChk RB3LYP/6-31G(d) Freq
 --------------------------------------------------------------------

 Structure from the checkpoint file:  "JID_5835.chk"
 ------------------------------
 CID_63199419_JID_5835_neutraal
 ------------------------------
 Charge =  0 Multiplicity = 1

 SCF Done:  E(RB3LYP) =  -634.261630462     A.U. after    1 cycles

  Exact polarizability: 185.500   2.210 143.932   8.164  -0.914 108.875
 Approx polarizability: 236.789   0.338 227.876  16.140  -2.302 155.935

                      1                      2                      3
                      A                      A                      A
 Frequencies --     22.2591                28.2565                35.7402
 Red. masses --      1.0603                 3.0935                 3.0429
 Frc consts  --      0.0003                 0.0015                 0.0023
 IR Inten    --      0.3962                 0.3459                 0.0868

                      4                      5                      6
                      A                      A                      A
 Frequencies --     48.0458                56.7898                72.8247
 Red. masses --      1.0460                 2.1064                 2.5636
 Frc consts  --      0.0014                 0.0040                 0.0080
 IR Inten    --      0.4251                 0.2573                 1.0975

                      7                      8                      9
                      A                      A                      A
 Frequencies --     98.0293               161.1319               178.3521
 Red. masses --      3.0644                 3.0047                 2.7775
 Frc consts  --      0.0174                 0.0460                 0.0521
 IR Inten    --      0.3813                 0.5951                 0.3894

                     10                     11                     12
                      A                      A                      A
 Frequencies --    188.6291               196.5854               220.7940
 Red. masses --      3.4735                 3.4966                 2.0167
 Frc consts  --      0.0728                 0.0796                 0.0579
 IR Inten    --      5.1777                 0.8343                 0.3260

                     13                     14                     15
                      A                      A                      A
 Frequencies --    229.3917               241.9319               261.3683
 Red. masses --      1.1195                 1.4510                 1.2387
 Frc consts  --      0.0347                 0.0500                 0.0499
 IR Inten    --      0.3441                 0.1099                 0.6807

                     16                     17                     18
                      A                      A                      A
 Frequencies --    279.3669               291.4020               311.5644
 Red. masses --      2.3532                 2.9003                 3.0751
 Frc consts  --      0.1082                 0.1451                 0.1759
 IR Inten    --      1.6541                 0.4441                 2.0004

                     19                     20                     21
                      A                      A                      A
 Frequencies --    369.6869               403.6972               462.8216
 Red. masses --      2.6854                 2.7028                 3.1436
 Frc consts  --      0.2162                 0.2595                 0.3967
 IR Inten    --      1.0027                 1.2102                 2.0699

                     22                     23                     24
                      A                      A                      A
 Frequencies --    480.0870               536.3864               550.1518
 Red. masses --      2.5367                 3.1011                 5.3028
 Frc consts  --      0.3445                 0.5257                 0.9456
 IR Inten    --      3.3162                 2.8124                 6.8297

                     25                     26                     27
                      A                      A                      A
 Frequencies --    577.0269               601.7327               658.6160
 Red. masses --      3.0186                 4.5382                 4.0784
 Frc consts  --      0.5922                 0.9681                 1.0423
 IR Inten    --      0.6850                 5.0058                 4.4082

                     28                     29                     30
                      A                      A                      A
 Frequencies --    682.5062               772.1200               807.2690
 Red. masses --      3.1660                 1.6176                 3.2520
 Frc consts  --      0.8689                 0.5682                 1.2486
 IR Inten    --      2.8314                54.2933                 7.6369

                     31                     32                     33
                      A                      A                      A
 Frequencies --    826.1276               850.2057               883.4810
 Red. masses --      1.2012                 1.8829                 1.4107
 Frc consts  --      0.4830                 0.8019                 0.6487
 IR Inten    --      0.5105                 5.4004                 7.2695

                     34                     35                     36
                      A                      A                      A
 Frequencies --    910.8967               932.7176               964.5891
 Red. masses --      1.5230                 2.2341                 2.0073
 Frc consts  --      0.7445                 1.1451                 1.1004
 IR Inten    --     11.3359                18.4345                 4.1140

                     37                     38                     39
                      A                      A                      A
 Frequencies --    971.6245               996.7123              1013.3311
 Red. masses --      2.6379                 1.4559                 2.6465
 Frc consts  --      1.4672                 0.8521                 1.6011
 IR Inten    --      6.9728                 1.7889                 5.4428

                     40                     41                     42
                      A                      A                      A
 Frequencies --   1022.7375              1055.8470              1068.0626
 Red. masses --      2.2532                 2.8879                 1.9004
 Frc consts  --      1.3886                 1.8968                 1.2773
 IR Inten    --      8.2024                 3.3228                 0.6562

                     43                     44                     45
                      A                      A                      A
 Frequencies --   1071.2993              1076.7325              1078.7554
 Red. masses --      1.6744                 1.9255                 1.6631
 Frc consts  --      1.1322                 1.3153                 1.1403
 IR Inten    --     10.5409                 4.1771                 1.7554

                     46                     47                     48
                      A                      A                      A
 Frequencies --   1109.0241              1123.6980              1147.9758
 Red. masses --      1.9128                 2.1959                 2.5678
 Frc consts  --      1.3861                 1.6337                 1.9938
 IR Inten    --     10.4890                 8.2825                66.6003

                     49                     50                     51
                      A                      A                      A
 Frequencies --   1155.2758              1193.5363              1203.6746
 Red. masses --      2.0966                 1.4065                 1.9552
 Frc consts  --      1.6486                 1.1805                 1.6690
 IR Inten    --     20.3849                 0.3270                52.4621

                     52                     53                     54
                      A                      A                      A
 Frequencies --   1220.2220              1259.2372              1295.5228
 Red. masses --      2.1240                 4.3719                 1.4204
 Frc consts  --      1.8633                 4.0844                 1.4046
 IR Inten    --      5.3136                 2.0433                 0.7857

                     55                     56                     57
                      A                      A                      A
 Frequencies --   1324.6836              1340.0386              1366.3272
 Red. masses --      1.3464                 1.6111                 1.2706
 Frc consts  --      1.3920                 1.7046                 1.3975
 IR Inten    --      5.0686                 1.4664                15.5317

                     58                     59                     60
                      A                      A                      A
 Frequencies --   1381.7730              1390.0900              1409.1519
 Red. masses --      1.4918                 2.0516                 1.4973
 Frc consts  --      1.6781                 2.3358                 1.7517
 IR Inten    --      4.5068                14.1466                26.5458

                     61                     62                     63
                      A                      A                      A
 Frequencies --   1419.8509              1421.9314              1434.1091
 Red. masses --      1.5340                 1.3642                 1.2464
 Frc consts  --      1.8221                 1.6251                 1.5104
 IR Inten    --      7.3342                 4.6818                10.4548

                     64                     65                     66
                      A                      A                      A
 Frequencies --   1435.4762              1443.9177              1449.9287
 Red. masses --      1.5021                 1.3419                 2.0639
 Frc consts  --      1.8236                 1.6484                 2.5564
 IR Inten    --     13.3311                12.9623                45.5163

                     67                     68                     69
                      A                      A                      A
 Frequencies --   1463.3400              1504.7451              1505.3241
 Red. masses --      2.4316                 1.0498                 1.1553
 Frc consts  --      3.0678                 1.4005                 1.5425
 IR Inten    --      6.5330                 9.2904                21.8940

                     70                     71                     72
                      A                      A                      A
 Frequencies --   1509.1208              1514.0000              1516.8706
 Red. masses --      1.0494                 1.1333                 1.2346
 Frc consts  --      1.4081                 1.5306                 1.6737
 IR Inten    --      5.1287                42.2179                16.1085

                     73                     74                     75
                      A                      A                      A
 Frequencies --   1520.5211              1521.6875              1525.1200
 Red. masses --      1.0574                 1.0549                 1.0633
 Frc consts  --      1.4403                 1.4391                 1.4571
 IR Inten    --      0.4664                13.0859                15.5247

                     76                     77                     78
                      A                      A                      A
 Frequencies --   1530.5022              1536.7308              1537.5155
 Red. masses --      1.0528                 1.0797                 1.0618
 Frc consts  --      1.4530                 1.5023                 1.4788
 IR Inten    --      0.6147                 6.0771                 7.4409

                     79                     80                     81
                      A                      A                      A
 Frequencies --   1554.6656              1608.3961              1637.9380
 Red. masses --      1.0876                 7.0159                 6.0787
 Frc consts  --      1.5488                10.6935                 9.6085
 IR Inten    --      7.2602               134.3379               263.5244

                     82                     83                     84
                      A                      A                      A
 Frequencies --   2945.9036              3018.3662              3039.0970
 Red. masses --      1.0734                 1.0825                 1.0440
 Frc consts  --      5.4882                 5.8106                 5.6810
 IR Inten    --     79.4326                19.9685                21.1742

                     85                     86                     87
                      A                      A                      A
 Frequencies --   3045.3144              3058.9529              3059.2160
 Red. masses --      1.0406                 1.0372                 1.0365
 Frc consts  --      5.6861                 5.7183                 5.7151
 IR Inten    --     25.6634                25.2980                13.9856

                     88                     89                     90
                      A                      A                      A
 Frequencies --   3059.4070              3062.3882              3072.4277
 Red. masses --      1.0828                 1.0379                 1.0827
 Frc consts  --      5.9712                 5.7351                 6.0216
 IR Inten    --     15.5565                11.0700                20.9495

                     91                     92                     93
                      A                      A                      A
 Frequencies --   3110.2505              3110.8336              3118.6629
 Red. masses --      1.0986                 1.0949                 1.0999
 Frc consts  --      6.2617                 6.2428                 6.3027
 IR Inten    --     30.7928                42.8987                10.4527

                     94                     95                     96
                      A                      A                      A
 Frequencies --   3120.4020              3125.5010              3131.6657
 Red. masses --      1.1005                 1.1015                 1.1016
 Frc consts  --      6.3135                 6.3399                 6.3652
 IR Inten    --     10.5434                25.3152                32.6161

                     97                     98                     99
                      A                      A                      A
 Frequencies --   3132.5026              3142.5426              3158.9774
 Red. masses --      1.1032                 1.1036                 1.1013
 Frc consts  --      6.3779                 6.4211                 6.4754
 IR Inten    --     39.2133                16.0243                12.3679

                    100                    101                    102
                      A                      A                      A
 Frequencies --   3168.2310              3205.5695              3457.4609
 Red. masses --      1.1022                 1.0918                 1.0730
 Frc consts  --      6.5183                 6.6100                 7.5573
 IR Inten    --      9.7021                 9.9000                 1.9635

 - Thermochemistry -
 -------------------
 Temperature   298.150 Kelvin.  Pressure   1.00000 Atm.
 Atom     1 has atomic number  6 and mass  12.00000

 Molecular mass:   207.17355 amu.
 Principal axes and moments of inertia in atomic units:
                           1         2         3
     Eigenvalues --  1516.348666541.494006987.12608
           X            0.99999   0.00366  -0.00042
           Y           -0.00365   0.99998   0.00457
           Z            0.00044  -0.00457   0.99999
 This molecule is an asymmetric top.
 Rotational symmetry number  1.
 Warning -- assumption of classical behavior for rotation
           may cause significant error
 Rotational temperatures (Kelvin)      0.05712     0.01324     0.01240
 Rotational constants (GHZ):           1.19019     0.27589     0.25830
 Zero-point vibrational energy     839798.1 (Joules/Mol)
                                  200.71656 (Kcal/Mol)
 Warning -- explicit consideration of  26 degrees of freedom as
           vibrations may cause significant error
 Vibrational temperatures:     32.03    40.65    51.42    69.13    81.71
          (Kelvin)            104.78   141.04   231.83   256.61   271.40
                              282.84   317.67   330.04   348.09   376.05
                              401.95   419.26   448.27   531.90   580.83
                              665.90   690.74   771.74   791.55   830.21
                              865.76   947.60   981.97  1110.91  1161.48
                             1188.61  1223.26  1271.13  1310.58  1341.97
                             1387.83  1397.95  1434.05  1457.96  1471.49
                             1519.13  1536.70  1541.36  1549.18  1552.09
                             1595.64  1616.75  1651.68  1662.18  1717.23
                             1731.82  1755.63  1811.76  1863.97  1905.92
                             1928.02  1965.84  1988.06  2000.03  2027.46
                             2042.85  2045.84  2063.36  2065.33  2077.48
                             2086.12  2105.42  2164.99  2165.83  2171.29
                             2178.31  2182.44  2187.69  2189.37  2194.31
                             2202.05  2211.01  2212.14  2236.82  2314.12
                             2356.63  4238.50  4342.76  4372.58  4381.53
                             4401.15  4401.53  4401.80  4406.09  4420.54
                             4474.96  4475.80  4487.06  4489.56  4496.90
                             4505.77  4506.97  4521.42  4545.06  4558.38
                             4612.10  4974.52

 Zero-point correction=                           0.319862 (Hartree/Particle)
 Thermal correction to Energy=                    0.337394
 Thermal correction to Enthalpy=                  0.338338
 Thermal correction to Gibbs Free Energy=         0.272133
 Sum of electronic and zero-point Energies=           -633.941768
 Sum of electronic and thermal Energies=              -633.924236
 Sum of electronic and thermal Enthalpies=            -633.923292
 Sum of electronic and thermal Free Energies=         -633.989497

                     E (Thermal)             CV                S
                      KCal/Mol        Cal/Mol-Kelvin    Cal/Mol-Kelvin
 Total                  211.718             62.897            139.341
 Electronic               0.000              0.000              0.000
 Translational            0.889              2.981             41.889
 Rotational               0.889              2.981             32.605
 Vibrational            209.941             56.936             64.846
 Vibration     1          0.593              1.985              6.422
 Vibration     2          0.593              1.984              5.948
 Vibration     3          0.594              1.982              5.482
 Vibration     4          0.595              1.978              4.896
 Vibration     5          0.596              1.975              4.566
 Vibration     6          0.599              1.967              4.076
 Vibration     7          0.603              1.951              3.493
 Vibration     8          0.622              1.890              2.536
 Vibration     9          0.629              1.869              2.346
 Vibration    10          0.633              1.855              2.241
 Vibration    11          0.636              1.845              2.165
 Vibration    12          0.648              1.809              1.953
 Vibration    13          0.652              1.796              1.884
 Vibration    14          0.658              1.776              1.789
 Vibration    15          0.669              1.743              1.653
 Vibration    16          0.680              1.712              1.538
 Vibration    17          0.687              1.690              1.466
 Vibration    18          0.700              1.652              1.354
 Vibration    19          0.742              1.535              1.081
 Vibration    20          0.769              1.462              0.949
 Vibration    21          0.820              1.333              0.758
 Vibration    22          0.836              1.294              0.710
 Vibration    23          0.891              1.170              0.573
 Vibration    24          0.905              1.139              0.544
 Vibration    25          0.933              1.081              0.491
 Vibration    26          0.960              1.028              0.447

 Optimization completed.
    -- Stationary point found.
 Normal termination of Gaussian 16 at Thu Dec 10 18:03:21 2020.

 ----------------------------------------------------------------------
 # B3LYP/6-311++G(d,p) empiricaldispersion=gd3bj scf=xqc pop=npa geom=c
 heck
 ----------------------------------------------------------------------

 --------------------------------------
 CID_63199419_JID_5835_Energie_neutraal
 --------------------------------------
 Structure from the checkpoint file:  "JID_5835.chk"
 Charge =  0 Multiplicity = 1

 SCF Done:  E(RB3LYP) =  -634.434854638     A.U. after   14 cycles
 Normal termination of Gaussian 16 at Thu Dec 10 18:07:42 2020.

 ----------------------------------------------------------------------
 # B3LYP/6-311++G(d,p) empiricaldispersion=gd3bj scf=xqc pop=npa geom=c
 heck
 ----------------------------------------------------------------------

 ------------------------------------
 CID_63199419_JID_5835_Energie_kation
 ------------------------------------
 Structure from the checkpoint file:  "JID_5835.chk"
 Charge =  1 Multiplicity = 2

 SCF Done:  E(UB3LYP) =  -634.139165424     A.U. after   26 cycles
 Normal termination of Gaussian 16 at Thu Dec 10 18:19:00 2020.
 Gaussian 16:  ES64L-G16RevA.03 25-Dec-2016

 ----------------------------------------------------------------------
 # B3LYP/6-311++G(d,p) empiricaldispersion=gd3bj scf=xqc pop=npa geom=c
 heck
 ----------------------------------------------------------------------

 -----------------------------------
 CID_63199419_JID_5835_Energie_anion
 -----------------------------------
 Structure from the checkpoint file:  "JID_5835.chk"
 Charge = -1 Multiplicity = 2

                         Standard orientation:
 ---------------------------------------------------------------------
 Center     Atomic      Atomic             Coordinates (Angstroms)
 Number     Number       Type             X           Y           Z
 ---------------------------------------------------------------------
      1          6           0        5.434865    0.023648   -0.035187
      2          6           0        4.058096    0.471176   -0.517508
      3          7           0        3.014415   -0.364189    0.070448
      4          6           0        1.642185   -0.010750   -0.307449
      5          6           0        1.285777   -0.412292   -1.747335
      6          6           0        0.662320   -0.631729    0.721070
      7          6           0        0.969684   -0.158014    2.150538
      8          6           0       -0.771960   -0.306926    0.371112
      9          7           0       -1.086972    0.996359    0.271878
     10          6           0       -2.357203    1.297787   -0.025704
     11          7           0       -3.348243    0.416763   -0.232019
     12          6           0       -3.036314   -0.883764   -0.132049
     13          6           0       -1.735909   -1.293503    0.171398
     14          6           0       -4.152091   -1.865880   -0.364280
     15          6           0       -2.714730    2.755006   -0.137561
     16          1           0        5.481941    0.045340    1.058197
     17          1           0        6.220512    0.673147   -0.436111
     18          1           0        5.652316   -1.001128   -0.362582
     19          1           0        3.871305    1.503484   -0.195522
     20          1           0        4.044879    0.483254   -1.623434
     21          1           0        3.186705   -1.338946   -0.178325
     22          1           0        1.554526    1.078053   -0.214084
     23          1           0        1.285492   -1.505728   -1.853157
     24          1           0        0.295727   -0.047150   -2.036443
     25          1           0        2.011860   -0.005117   -2.458444
     26          1           0        0.781332   -1.724381    0.675640
     27          1           0        0.771241    0.915284    2.235404
     28          1           0        0.339878   -0.679428    2.879815
     29          1           0        2.021133   -0.342671    2.379753
     30          1           0       -1.482388   -2.346035    0.247877
     31          1           0       -3.806585   -2.900186   -0.282012
     32          1           0       -4.954724   -1.701859    0.363178
     33          1           0       -4.586449   -1.713813   -1.358288
     34          1           0       -3.456489    3.021754    0.623853
     35          1           0       -1.825438    3.373937   -0.007413
     36          1           0       -3.169491    2.961111   -1.112319
 ---------------------------------------------------------------------

 SCF Done:  E(UB3LYP) =  -634.424525782     A.U. after   33 cycles
 SCF Done:  E(UB3LYP) =  -634.424525782     a.u. after    1 cycles

 The electronic state is 2-A.
 Alpha  occ. eigenvalues --  -14.18754 -14.17719 -14.17305 -10.11985 -10.09328
 Alpha  occ. eigenvalues --  -10.08960 -10.08682 -10.08127 -10.06263 -10.06205
 Alpha  occ. eigenvalues --  -10.05911 -10.05870 -10.05418 -10.05002 -10.04207
 Alpha  occ. eigenvalues --   -0.85655  -0.80331  -0.76386  -0.70089  -0.67106
 Alpha  occ. eigenvalues --   -0.63369  -0.61642  -0.60696  -0.59829  -0.53360
 Alpha  occ. eigenvalues --   -0.51525  -0.49507  -0.49046  -0.45533  -0.39846
 Alpha  occ. eigenvalues --   -0.38109  -0.36635  -0.35553  -0.34415  -0.33388
 Alpha  occ. eigenvalues --   -0.32964  -0.32033  -0.31456  -0.31317  -0.30446
 Alpha  occ. eigenvalues --   -0.29650  -0.28861  -0.28314  -0.27327  -0.26655
 Alpha  occ. eigenvalues --   -0.26464  -0.25874  -0.24925  -0.24602  -0.23328
 Alpha  occ. eigenvalues --   -0.22699  -0.21440  -0.17674  -0.17534  -0.14968
 Alpha  occ. eigenvalues --   -0.12453  -0.11916   0.04648
 Alpha virt. eigenvalues --    0.06227   0.07043   0.07885   0.08235   0.08492
 Alpha virt. eigenvalues --    0.09083   0.09247   0.09901   0.10237   0.10806
 Alpha virt. eigenvalues --    0.11199   0.11604   0.11973   0.12210   0.12863

  Beta  occ. eigenvalues --  -14.18735 -14.17635 -14.17089 -10.12002 -10.09133
  Beta  occ. eigenvalues --  -10.08949 -10.08654 -10.07819 -10.06282 -10.06215
  Beta  occ. eigenvalues --  -10.05910 -10.05834 -10.05489 -10.04993 -10.04180
  Beta  occ. eigenvalues --   -0.85366  -0.80291  -0.75993  -0.69897  -0.66997
  Beta  occ. eigenvalues --   -0.63272  -0.61551  -0.60654  -0.59765  -0.53230
  Beta  occ. eigenvalues --   -0.51370  -0.49370  -0.48962  -0.45409  -0.39657
  Beta  occ. eigenvalues --   -0.38044  -0.36596  -0.35444  -0.34268  -0.33113
  Beta  occ. eigenvalues --   -0.32859  -0.31998  -0.31384  -0.31168  -0.30407
  Beta  occ. eigenvalues --   -0.29561  -0.28821  -0.28243  -0.27167  -0.26564
  Beta  occ. eigenvalues --   -0.26415  -0.25549  -0.24873  -0.24561  -0.23154
  Beta  occ. eigenvalues --   -0.22620  -0.21353  -0.17314  -0.16546  -0.14421
  Beta  occ. eigenvalues --   -0.12267  -0.11860
  Beta virt. eigenvalues --    0.06787   0.07226   0.08034   0.08453   0.08581
  Beta virt. eigenvalues --    0.09082   0.09251   0.09450   0.10121   0.10334
  Beta virt. eigenvalues --    0.10910   0.11466   0.11674   0.12036   0.12293

 Mulliken charges and spin densities:
               1          2
     1  C    1.167493  -1.739348
     2  C   -0.582172   0.522739
     3  N    0.153851   0.009545
     4  C   -1.090452   0.441151
     5  C    0.268543  -0.939043
     6  C   -0.078641   0.317093
     7  C   -0.164760  -0.341154
     8  C    0.081117   0.001965
     9  N    0.102480   0.052469
    10  C   -0.262102   0.125155
    11  N   -0.055645   0.130101
    12  C   -0.210288   0.424205
    13  C   -0.211609  -0.236254
    14  C    0.189500  -0.679012
    15  C   -0.423281  -0.026497
    16  H   -0.076939   0.223319
    17  H   -0.285301   0.411133
    18  H   -0.446640   0.573169
    19  H    0.052305   0.074133
    20  H   -0.059467   0.167651
    21  H    0.266787  -0.062012
    22  H    0.102773   0.055618
    23  H   -0.169252   0.305941
    24  H    0.140041   0.032904
    25  H    0.049135   0.078502
    26  H   -0.201188   0.341430
    27  H    0.127427   0.030820
    28  H    0.068005   0.053639
    29  H    0.099469   0.086458
    30  H    0.028533   0.118463
    31  H   -0.056494   0.186721
    32  H   -0.037598   0.193135
    33  H    0.146121   0.004799
    34  H    0.089998   0.055438
    35  H    0.133344   0.006304
    36  H    0.144904  -0.000683
 Sum of Mulliken charges =  -1.00000   1.00000

 Dipole moment (field-independent basis, Debye):
    X=             -3.8265    Y=              1.3379    Z=              0.2654  Tot=              4.0624
 Quadrupole moment (field-independent basis, Debye-Ang):
   XX=           -196.5563   YY=           -118.9747   ZZ=           -118.4335
   XY=              3.4415   XZ=              3.4767   YZ=             -1.9105

 Summary of Natural Population Analysis:

                                       Natural Population
                Natural  -----------------------------------------------
    Atom  No    Charge         Core      Valence    Rydberg      Total
 -----------------------------------------------------------------------
      C    1   -0.28736      0.99967     2.28240    0.00529     3.28736
      C    2   -0.08377      0.99964     2.07361    0.01052     3.08377
      N    3   -0.34239      0.99973     2.83112    0.01153     3.84239
      C    4   -0.00243      0.99959     1.99065    0.01220     3.00243
      C    5   -0.29587      0.99964     2.29069    0.00554     3.29587
      C    6   -0.12548      0.99955     2.11308    0.01285     3.12548
      C    7   -0.27952      0.99965     2.27510    0.00477     3.27952
      C    8    0.18343      0.99952     1.80232    0.01474     2.81657
      N    9   -0.26521      0.99965     2.75637    0.00919     3.76521
      C   10    0.21751      0.99963     1.76660    0.01626     2.78249
      N   11   -0.24800      0.99964     2.73747    0.01088     3.74800
      C   12    0.15753      0.99956     1.83073    0.01218     2.84247
      C   13   -0.16509      0.99944     2.15781    0.00785     3.16509
      C   14   -0.29936      0.99963     2.29424    0.00548     3.29936
      C   15   -0.29995      0.99963     2.29492    0.00540     3.29995
      H   16    0.09926      0.00000     0.39959    0.00115     0.40074
      H   17    0.09823      0.00000     0.40054    0.00123     0.40177
      H   18    0.09606      0.00000     0.40235    0.00159     0.40394
      H   19    0.08780      0.00000     0.41085    0.00135     0.41220
      H   20    0.07591      0.00000     0.42251    0.00158     0.42409
      H   21    0.16758      0.00000     0.32948    0.00293     0.33242
      H   22    0.09665      0.00000     0.40102    0.00233     0.40335
      H   23    0.09454      0.00000     0.40425    0.00121     0.40546
      H   24    0.10695      0.00000     0.39229    0.00076     0.39305
      H   25    0.09677      0.00000     0.40231    0.00092     0.40323
      H   26    0.09329      0.00000     0.40502    0.00169     0.40671
      H   27    0.10128      0.00000     0.39772    0.00100     0.39872
      H   28    0.09451      0.00000     0.40472    0.00077     0.40549
      H   29    0.10777      0.00000     0.39107    0.00116     0.39223
      H   30    0.10115      0.00000     0.39779    0.00106     0.39885
      H   31    0.09683      0.00000     0.40233    0.00085     0.40317
      H   32    0.10679      0.00000     0.39129    0.00192     0.39321
      H   33    0.10535      0.00000     0.39335    0.00130     0.39465
      H   34    0.10274      0.00000     0.39605    0.00121     0.39726
      H   35    0.10385      0.00000     0.39532    0.00083     0.39615
      H   36    0.10263      0.00000     0.39630    0.00107     0.39737
 =======================================================================
   * Total *   -0.00000     14.99417    41.83325    0.17258    57.00000

 Normal termination of Gaussian 16 at Thu Dec 10 18:32:24 2020.
