 Gaussian 16, Revision A.03,

 -----------------------------------------------------------
 # opt freq B3LYP/6-31G(d) empiricaldispersion=gd3bj scf=xqc
 -----------------------------------------------------------

 -------------------------------
 CID_123605795_JID_4290_neutraal
 -------------------------------
 Symbolic Z-matrix:
 Charge =  0 Multiplicity = 1

 SCF Done:  E(RB3LYP) =  -550.415931188     A.U. after   13 cycles
 SCF Done:  E(RB3LYP) =  -550.414348193     A.U. after   11 cycles
 SCF Done:  E(RB3LYP) =  -550.416965982     A.U. after   10 cycles
 SCF Done:  E(RB3LYP) =  -550.418275795     A.U. after   10 cycles
 SCF Done:  E(RB3LYP) =  -550.418408028     A.U. after   10 cycles
 SCF Done:  E(RB3LYP) =  -550.418481997     A.U. after   10 cycles
 SCF Done:  E(RB3LYP) =  -550.418552258     A.U. after   10 cycles
 SCF Done:  E(RB3LYP) =  -550.418645325     A.U. after   10 cycles
 SCF Done:  E(RB3LYP) =  -550.418731396     A.U. after   10 cycles
 SCF Done:  E(RB3LYP) =  -550.418814397     A.U. after   10 cycles
 SCF Done:  E(RB3LYP) =  -550.422770264     A.U. after    8 cycles
 SCF Done:  E(RB3LYP) =  -550.422770475     A.U. after    6 cycles
 SCF Done:  E(RB3LYP) =  -550.422770519     A.U. after    7 cycles
 SCF Done:  E(RB3LYP) =  -550.422770516     A.U. after    7 cycles
 SCF Done:  E(RB3LYP) =  -550.422770512     A.U. after    6 cycles
 Optimization completed.
    -- Stationary point found.
 Normal termination of Gaussian 16 at Thu Dec 10 09:50:29 2020.

 --------------------------------------------------------------------
 #N Geom=AllCheck Guess=TCheck SCRF=Check GenChk RB3LYP/6-31G(d) Freq
 --------------------------------------------------------------------

 Structure from the checkpoint file:  "JID_4290.chk"
 -------------------------------
 CID_123605795_JID_4290_neutraal
 -------------------------------
 Charge =  0 Multiplicity = 1

 SCF Done:  E(RB3LYP) =  -550.422770512     A.U. after    1 cycles

  Exact polarizability: 163.546   5.407 153.313  -0.712  -8.929 126.395
 Approx polarizability: 200.194   7.304 206.305  -1.781 -17.963 195.653

                      1                      2                      3
                      A                      A                      A
 Frequencies --     15.6045                20.8885                39.3076
 Red. masses --      3.5881                 3.0373                 3.2821
 Frc consts  --      0.0005                 0.0008                 0.0030
 IR Inten    --      0.0097                 0.0049                 0.0607

                      4                      5                      6
                      A                      A                      A
 Frequencies --     58.8075                73.6130                87.0986
 Red. masses --      2.7020                 2.5526                 3.0938
 Frc consts  --      0.0055                 0.0081                 0.0138
 IR Inten    --      0.0208                 0.0102                 0.0125

                      7                      8                      9
                      A                      A                      A
 Frequencies --    131.7061               143.7211               160.3390
 Red. masses --      2.6495                 2.2362                 1.6172
 Frc consts  --      0.0271                 0.0272                 0.0245
 IR Inten    --      0.0589                 0.0191                 0.0093

                     10                     11                     12
                      A                      A                      A
 Frequencies --    167.9610               201.3723               217.4809
 Red. masses --      2.4612                 2.0317                 1.3082
 Frc consts  --      0.0409                 0.0485                 0.0365
 IR Inten    --      0.0678                 0.0391                 0.0017

                     13                     14                     15
                      A                      A                      A
 Frequencies --    229.7796               243.7258               264.5040
 Red. masses --      2.5183                 1.3474                 1.3866
 Frc consts  --      0.0783                 0.0472                 0.0572
 IR Inten    --      0.0695                 0.1034                 0.0460

                     16                     17                     18
                      A                      A                      A
 Frequencies --    284.7306               332.2507               340.9560
 Red. masses --      1.5693                 1.9757                 1.9333
 Frc consts  --      0.0750                 0.1285                 0.1324
 IR Inten    --      0.0176                 0.2072                 0.5103

                     19                     20                     21
                      A                      A                      A
 Frequencies --    344.5175               401.1371               416.2944
 Red. masses --      2.2571                 2.1298                 2.0304
 Frc consts  --      0.1578                 0.2019                 0.2073
 IR Inten    --      0.0528                 0.3709                 0.1714

                     22                     23                     24
                      A                      A                      A
 Frequencies --    435.5750               452.7033               482.3444
 Red. masses --      1.9173                 2.2804                 2.2485
 Frc consts  --      0.2143                 0.2754                 0.3082
 IR Inten    --      1.7265                 2.1327                 0.3409

                     25                     26                     27
                      A                      A                      A
 Frequencies --    533.2073               660.8737               719.0624
 Red. masses --      2.6396                 2.8621                 1.2952
 Frc consts  --      0.4422                 0.7365                 0.3946
 IR Inten    --      0.5671                 5.3831                 0.3304

                     28                     29                     30
                      A                      A                      A
 Frequencies --    731.3329               752.6680               773.5265
 Red. masses --      1.5286                 1.2441                 1.2415
 Frc consts  --      0.4817                 0.4153                 0.4377
 IR Inten    --      0.6087                 5.0211                 9.3164

                     31                     32                     33
                      A                      A                      A
 Frequencies --    814.8157               824.1650               842.3431
 Red. masses --      2.0387                 1.7919                 1.6169
 Frc consts  --      0.7975                 0.7171                 0.6759
 IR Inten    --      0.7775                 1.7080                 1.1970

                     34                     35                     36
                      A                      A                      A
 Frequencies --    851.4863               868.5743               902.2200
 Red. masses --      1.6511                 1.8764                 1.5116
 Frc consts  --      0.7053                 0.8340                 0.7250
 IR Inten    --      0.9788                 0.4736                 2.6594

                     37                     38                     39
                      A                      A                      A
 Frequencies --    911.8058               919.9829               945.4658
 Red. masses --      1.4309                 1.4027                 1.8056
 Frc consts  --      0.7009                 0.6995                 0.9510
 IR Inten    --      7.4895                25.5951                 1.6558

                     40                     41                     42
                      A                      A                      A
 Frequencies --    959.9651               979.6601               984.6369
 Red. masses --      1.9258                 1.6406                 1.6827
 Frc consts  --      1.0456                 0.9277                 0.9612
 IR Inten    --      0.2955                 2.9317                 1.0601

                     43                     44                     45
                      A                      A                      A
 Frequencies --   1002.6311              1016.9159              1041.7140
 Red. masses --      1.7519                 1.7759                 1.4296
 Frc consts  --      1.0376                 1.0820                 0.9140
 IR Inten    --      0.0608                 0.4492                 0.8075

                     46                     47                     48
                      A                      A                      A
 Frequencies --   1062.5118              1082.5044              1084.9522
 Red. masses --      1.6057                 2.2148                 2.2250
 Frc consts  --      1.0681                 1.5292                 1.5432
 IR Inten    --      0.7656                 0.9733                 0.0998

                     49                     50                     51
                      A                      A                      A
 Frequencies --   1090.2413              1105.0957              1138.4870
 Red. masses --      1.9642                 1.5439                 1.8119
 Frc consts  --      1.3755                 1.1109                 1.3837
 IR Inten    --      0.3865                 0.4095                 1.1226

                     52                     53                     54
                      A                      A                      A
 Frequencies --   1147.8631              1160.4070              1190.4225
 Red. masses --      1.7496                 2.0147                 1.8873
 Frc consts  --      1.3582                 1.5984                 1.5758
 IR Inten    --      2.2432                 2.5321                 1.6358

                     55                     56                     57
                      A                      A                      A
 Frequencies --   1211.0952              1230.1869              1248.6874
 Red. masses --      1.5775                 1.2883                 1.4079
 Frc consts  --      1.3632                 1.1487                 1.2934
 IR Inten    --      0.3827                 1.0663                 1.7741

                     58                     59                     60
                      A                      A                      A
 Frequencies --   1274.6539              1302.5927              1303.5034
 Red. masses --      1.3382                 1.3353                 1.5294
 Frc consts  --      1.2810                 1.3349                 1.5311
 IR Inten    --      1.2477                 1.2089                 4.1680

                     61                     62                     63
                      A                      A                      A
 Frequencies --   1310.0729              1332.4369              1335.4466
 Red. masses --      1.2813                 1.1916                 1.1614
 Frc consts  --      1.2957                 1.2465                 1.2203
 IR Inten    --      0.8196                 5.2011                 0.3002

                     64                     65                     66
                      A                      A                      A
 Frequencies --   1341.7675              1360.7721              1377.1086
 Red. masses --      1.3943                 1.1869                 1.2413
 Frc consts  --      1.4790                 1.2949                 1.3870
 IR Inten    --      2.2529                 2.8686                 1.3725

                     67                     68                     69
                      A                      A                      A
 Frequencies --   1382.7472              1397.5088              1398.8241
 Red. masses --      1.5294                 1.3400                 1.3578
 Frc consts  --      1.7229                 1.5419                 1.5654
 IR Inten    --      0.4829                 7.8257                 2.8780

                     70                     71                     72
                      A                      A                      A
 Frequencies --   1403.9466              1409.1756              1419.9368
 Red. masses --      1.4569                 1.4679                 1.4559
 Frc consts  --      1.6920                 1.7175                 1.7295
 IR Inten    --      7.9489                 1.2659                 0.4301

                     73                     74                     75
                      A                      A                      A
 Frequencies --   1420.9923              1439.3778              1442.4642
 Red. masses --      1.4762                 1.2566                 1.2599
 Frc consts  --      1.7563                 1.5339                 1.5445
 IR Inten    --      0.3966                 3.3921                 6.7512

                     76                     77                     78
                      A                      A                      A
 Frequencies --   1444.7727              1473.9109              1507.8543
 Red. masses --      1.2620                 1.1721                 1.0785
 Frc consts  --      1.5521                 1.5002                 1.4447
 IR Inten    --      8.1166                 2.0019                 1.0301

                     79                     80                     81
                      A                      A                      A
 Frequencies --   1511.2769              1512.4259              1517.1615
 Red. masses --      1.0789                 1.0835                 1.0865
 Frc consts  --      1.4519                 1.4603                 1.4735
 IR Inten    --      0.2129                 0.9905                 1.5599

                     82                     83                     84
                      A                      A                      A
 Frequencies --   1523.3486              1525.5733              1526.7249
 Red. masses --      1.0676                 1.0531                 1.0797
 Frc consts  --      1.4597                 1.4441                 1.4828
 IR Inten    --      1.2734                 0.9869                 9.4367

                     85                     86                     87
                      A                      A                      A
 Frequencies --   1528.6919              1531.4298              1533.6840
 Red. masses --      1.0726                 1.0614                 1.0540
 Frc consts  --      1.4769                 1.4667                 1.4607
 IR Inten    --      3.6967                 5.2256                 6.2929

                     88                     89                     90
                      A                      A                      A
 Frequencies --   1537.1399              1541.0469              1541.1517
 Red. masses --      1.0713                 1.0696                 1.0740
 Frc consts  --      1.4913                 1.4967                 1.5029
 IR Inten    --      6.3680                 2.9325                 3.2582

                     91                     92                     93
                      A                      A                      A
 Frequencies --   1544.2910              1731.7106              3013.9541
 Red. masses --      1.0698                 4.9964                 1.0600
 Frc consts  --      1.5032                 8.8280                 5.6731
 IR Inten    --      0.3061                14.6243                25.6221

                     94                     95                     96
                      A                      A                      A
 Frequencies --   3017.9396              3026.0514              3030.6004
 Red. masses --      1.0646                 1.0636                 1.0768
 Frc consts  --      5.7132                 5.7383                 5.8272
 IR Inten    --     17.9331                31.1342                17.3400

                     97                     98                     99
                      A                      A                      A
 Frequencies --   3037.1904              3039.1934              3040.0953
 Red. masses --      1.0638                 1.0657                 1.0540
 Frc consts  --      5.7816                 5.7999                 5.7393
 IR Inten    --      3.9959                24.6697                26.7010

                    100                    101                    102
                      A                      A                      A
 Frequencies --   3040.9934              3044.3278              3044.6673
 Red. masses --      1.0513                 1.0422                 1.0396
 Frc consts  --      5.7283                 5.6907                 5.6779
 IR Inten    --     14.9827                23.4096                15.2411

                    103                    104                    105
                      A                      A                      A
 Frequencies --   3047.8829              3051.6522              3052.6655
 Red. masses --      1.0600                 1.0882                 1.0638
 Frc consts  --      5.8017                 5.9707                 5.8407
 IR Inten    --     27.5961                52.7019                16.5049

                    106                    107                    108
                      A                      A                      A
 Frequencies --   3061.3493              3068.3006              3072.7122
 Red. masses --      1.0992                 1.0981                 1.0998
 Frc consts  --      6.0697                 6.0912                 6.1179
 IR Inten    --     61.0715                16.0782                30.3280

                    109                    110                    111
                      A                      A                      A
 Frequencies --   3074.9348              3078.8152              3089.2152
 Red. masses --      1.1004                 1.0955                 1.1024
 Frc consts  --      6.1303                 6.1180                 6.1983
 IR Inten    --     44.1831                23.1932                40.8159

                    112                    113                    114
                      A                      A                      A
 Frequencies --   3096.7754              3103.3665              3108.9620
 Red. masses --      1.1025                 1.1006                 1.1016
 Frc consts  --      6.2297                 6.2451                 6.2732
 IR Inten    --     89.0368                47.0298                94.0634

                    115                    116                    117
                      A                      A                      A
 Frequencies --   3109.6941              3115.1064              3115.7681
 Red. masses --      1.1015                 1.1019                 1.1015
 Frc consts  --      6.2759                 6.2997                 6.3003
 IR Inten    --     18.5096                39.7069                53.8119

                    118                    119                    120
                      A                      A                      A
 Frequencies --   3117.7684              3150.8352              3226.0143
 Red. masses --      1.1006                 1.0598                 1.1158
 Frc consts  --      6.3031                 6.1990                 6.8415
 IR Inten    --     55.0169                11.2265                22.9342

 - Thermochemistry -
 -------------------
 Temperature   298.150 Kelvin.  Pressure   1.00000 Atm.
 Atom     1 has atomic number  6 and mass  12.00000

 Molecular mass:   196.21910 amu.
 Principal axes and moments of inertia in atomic units:
                           1         2         3
     Eigenvalues --  2086.916335734.733227103.32410
           X            0.99998  -0.00550   0.00283
           Y            0.00551   0.99998  -0.00165
           Z           -0.00282   0.00166   0.99999
 This molecule is an asymmetric top.
 Rotational symmetry number  1.
 Warning -- assumption of classical behavior for rotation
           may cause significant error
 Rotational temperatures (Kelvin)      0.04150     0.01510     0.01219
 Rotational constants (GHZ):           0.86479     0.31470     0.25407
 Zero-point vibrational energy    1041339.0 (Joules/Mol)
                                  248.88599 (Kcal/Mol)
 Warning -- explicit consideration of  25 degrees of freedom as
           vibrations may cause significant error
 Vibrational temperatures:     22.45    30.05    56.55    84.61   105.91
          (Kelvin)            125.32   189.50   206.78   230.69   241.66
                              289.73   312.91   330.60   350.67   380.56
                              409.66   478.03   490.56   495.68   577.15
                              598.95   626.70   651.34   693.99   767.17
                              950.85  1034.57  1052.22  1082.92  1112.93
                             1172.34  1185.79  1211.94  1225.10  1249.68
                             1298.09  1311.89  1323.65  1360.31  1381.18
                             1409.51  1416.67  1442.56  1463.12  1498.79
                             1528.72  1557.48  1561.00  1568.61  1589.99
                             1638.03  1651.52  1669.57  1712.75  1742.50
                             1769.96  1796.58  1833.94  1874.14  1875.45
                             1884.90  1917.08  1921.41  1930.50  1957.85
                             1981.35  1989.46  2010.70  2012.60  2019.97
                             2027.49  2042.97  2044.49  2070.94  2075.38
                             2078.71  2120.63  2169.47  2174.39  2176.04
                             2182.86  2191.76  2194.96  2196.62  2199.45
                             2203.39  2206.63  2211.60  2217.22  2217.37
                             2221.89  2491.55  4336.41  4342.14  4353.81
                             4360.36  4369.84  4372.72  4374.02  4375.31
                             4380.11  4380.60  4385.22  4390.65  4392.10
                             4404.60  4414.60  4420.95  4424.15  4429.73
                             4444.69  4455.57  4465.05  4473.10  4474.16
                             4481.94  4482.90  4485.77  4533.35  4641.51

 Zero-point correction=                           0.396625 (Hartree/Particle)
 Thermal correction to Energy=                    0.414524
 Thermal correction to Enthalpy=                  0.415468
 Thermal correction to Gibbs Free Energy=         0.348792
 Sum of electronic and zero-point Energies=           -550.026145
 Sum of electronic and thermal Energies=              -550.008246
 Sum of electronic and thermal Enthalpies=            -550.007302
 Sum of electronic and thermal Free Energies=         -550.073978

                     E (Thermal)             CV                S
                      KCal/Mol        Cal/Mol-Kelvin    Cal/Mol-Kelvin
 Total                  260.118             66.259            140.332
 Electronic               0.000              0.000              0.000
 Translational            0.889              2.981             41.727
 Rotational               0.889              2.981             32.808
 Vibrational            258.340             60.297             65.797
 Vibration     1          0.593              1.986              7.127
 Vibration     2          0.593              1.986              6.548
 Vibration     3          0.594              1.981              5.294
 Vibration     4          0.596              1.974              4.497
 Vibration     5          0.599              1.966              4.054
 Vibration     6          0.601              1.958              3.724
 Vibration     7          0.612              1.922              2.921
 Vibration     8          0.616              1.909              2.754
 Vibration     9          0.622              1.891              2.546
 Vibration    10          0.625              1.882              2.458
 Vibration    11          0.638              1.838              2.121
 Vibration    12          0.646              1.814              1.980
 Vibration    13          0.652              1.796              1.881
 Vibration    14          0.659              1.773              1.776
 Vibration    15          0.671              1.738              1.632
 Vibration    16          0.683              1.702              1.505
 Vibration    17          0.714              1.611              1.249
 Vibration    18          0.720              1.594              1.208
 Vibration    19          0.723              1.586              1.191
 Vibration    20          0.767              1.468              0.958
 Vibration    21          0.780              1.435              0.905
 Vibration    22          0.796              1.393              0.841
 Vibration    23          0.811              1.355              0.788
 Vibration    24          0.839              1.289              0.704
 Vibration    25          0.888              1.177              0.580

 Optimization completed.
    -- Stationary point found.
 Normal termination of Gaussian 16 at Thu Dec 10 10:04:34 2020.

 ----------------------------------------------------------------------
 # B3LYP/6-311++G(d,p) empiricaldispersion=gd3bj scf=xqc pop=npa geom=c
 heck
 ----------------------------------------------------------------------

 ---------------------------------------
 CID_123605795_JID_4290_Energie_neutraal
 ---------------------------------------
 Structure from the checkpoint file:  "JID_4290.chk"
 Charge =  0 Multiplicity = 1

 SCF Done:  E(RB3LYP) =  -550.576120765     A.U. after   13 cycles
 Normal termination of Gaussian 16 at Thu Dec 10 10:12:23 2020.

 ----------------------------------------------------------------------
 # B3LYP/6-311++G(d,p) empiricaldispersion=gd3bj scf=xqc pop=npa geom=c
 heck
 ----------------------------------------------------------------------

 -------------------------------------
 CID_123605795_JID_4290_Energie_kation
 -------------------------------------
 Structure from the checkpoint file:  "JID_4290.chk"
 Charge =  1 Multiplicity = 2

 SCF Done:  E(UB3LYP) =  -550.257124240     A.U. after   20 cycles
 Normal termination of Gaussian 16 at Thu Dec 10 10:27:51 2020.
 Gaussian 16:  ES64L-G16RevA.03 25-Dec-2016

 ----------------------------------------------------------------------
 # B3LYP/6-311++G(d,p) empiricaldispersion=gd3bj scf=xqc pop=npa geom=c
 heck
 ----------------------------------------------------------------------

 ------------------------------------
 CID_123605795_JID_4290_Energie_anion
 ------------------------------------
 Structure from the checkpoint file:  "JID_4290.chk"
 Charge = -1 Multiplicity = 2

                         Standard orientation:
 ---------------------------------------------------------------------
 Center     Atomic      Atomic             Coordinates (Angstroms)
 Number     Number       Type             X           Y           Z
 ---------------------------------------------------------------------
      1          6           0       -2.439960    2.553841   -0.403719
      2          6           0       -3.194099    1.680856    0.604210
      3          6           0       -3.946850    0.502525   -0.028759
      4          6           0       -3.062975   -0.559120   -0.718454
      5          6           0       -2.095618   -1.245426    0.228720
      6          6           0       -2.490855   -2.263047    0.999975
      7          6           0       -0.670851   -0.741735    0.264669
      8          6           0        0.134952   -1.148595   -0.983175
      9          6           0        1.507755   -0.467328   -1.071186
     10          6           0        2.450884   -0.709543    0.120714
     11          6           0        2.709800   -2.204391    0.348362
     12          6           0        3.789395    0.032058   -0.057336
     13          6           0        3.700487    1.555765   -0.235254
     14          6           0        2.979522    2.275219    0.908849
     15          1           0       -1.656910    1.993957   -0.927054
     16          1           0       -1.959206    3.404806    0.091600
     17          1           0       -3.122674    2.951852   -1.164666
     18          1           0       -2.499763    1.303221    1.365670
     19          1           0       -3.919404    2.305718    1.141626
     20          1           0       -4.537856    0.000463    0.747570
     21          1           0       -4.662269    0.891176   -0.767530
     22          1           0       -3.724979   -1.307744   -1.169557
     23          1           0       -2.514651   -0.096067   -1.547574
     24          1           0       -1.816306   -2.741092    1.706232
     25          1           0       -3.504282   -2.655943    0.954858
     26          1           0       -0.660251    0.354120    0.341995
     27          1           0       -0.172696   -1.123523    1.162767
     28          1           0        0.238998   -2.240074   -0.996182
     29          1           0       -0.435910   -0.890212   -1.884370
     30          1           0        2.013462   -0.798544   -1.990305
     31          1           0        1.343360    0.612236   -1.185284
     32          1           0        1.968995   -0.314543    1.025395
     33          1           0        3.143139   -2.666095   -0.548433
     34          1           0        3.413926   -2.357570    1.174416
     35          1           0        1.791014   -2.748159    0.591464
     36          1           0        4.418225   -0.180874    0.819259
     37          1           0        4.316705   -0.397478   -0.921907
     38          1           0        4.721337    1.950453   -0.321843
     39          1           0        3.206884    1.795565   -1.185480
     40          1           0        3.434640    2.031071    1.876862
     41          1           0        3.025240    3.362670    0.782819
     42          1           0        1.921712    1.994135    0.961962
 ---------------------------------------------------------------------

 SCF Done:  E(UB3LYP) =  -550.560671628     A.U. after   33 cycles
 SCF Done:  E(UB3LYP) =  -550.560671628     a.u. after    1 cycles

 The electronic state is 2-A.
 Alpha  occ. eigenvalues --  -10.08600 -10.07739 -10.07469 -10.07333 -10.07268
 Alpha  occ. eigenvalues --  -10.07131 -10.07034 -10.06967 -10.06929 -10.06880
 Alpha  occ. eigenvalues --  -10.06580 -10.06275 -10.06228 -10.06103  -0.73845
 Alpha  occ. eigenvalues --   -0.72402  -0.69229  -0.67359  -0.64797  -0.61751
 Alpha  occ. eigenvalues --   -0.58681  -0.58183  -0.55232  -0.52650  -0.49434
 Alpha  occ. eigenvalues --   -0.48212  -0.45101  -0.42504  -0.38807  -0.38213
 Alpha  occ. eigenvalues --   -0.37175  -0.36873  -0.35630  -0.34579  -0.33858
 Alpha  occ. eigenvalues --   -0.32591  -0.31881  -0.31012  -0.30382  -0.29601
 Alpha  occ. eigenvalues --   -0.29550  -0.28620  -0.27805  -0.27048  -0.26879
 Alpha  occ. eigenvalues --   -0.25552  -0.24805  -0.24382  -0.24279  -0.23631
 Alpha  occ. eigenvalues --   -0.23046  -0.22421  -0.22097  -0.21433  -0.21270
 Alpha  occ. eigenvalues --   -0.15547   0.04274
 Alpha virt. eigenvalues --    0.05876   0.06525   0.06907   0.07562   0.07937
 Alpha virt. eigenvalues --    0.08137   0.09009   0.09115   0.09656   0.09844
 Alpha virt. eigenvalues --    0.10163   0.10398   0.10664   0.11717   0.11969

  Beta  occ. eigenvalues --  -10.08598 -10.07735 -10.07460 -10.07319 -10.07259
  Beta  occ. eigenvalues --  -10.07113 -10.07018 -10.06955 -10.06916 -10.06866
  Beta  occ. eigenvalues --  -10.06562 -10.06249 -10.06209 -10.06071  -0.73826
  Beta  occ. eigenvalues --   -0.72379  -0.69202  -0.67331  -0.64770  -0.61713
  Beta  occ. eigenvalues --   -0.58642  -0.58145  -0.55178  -0.52608  -0.49383
  Beta  occ. eigenvalues --   -0.48154  -0.45057  -0.42460  -0.38785  -0.38188
  Beta  occ. eigenvalues --   -0.37146  -0.36847  -0.35602  -0.34553  -0.33825
  Beta  occ. eigenvalues --   -0.32558  -0.31855  -0.30989  -0.30352  -0.29564
  Beta  occ. eigenvalues --   -0.29517  -0.28592  -0.27776  -0.27019  -0.26852
  Beta  occ. eigenvalues --   -0.25526  -0.24776  -0.24354  -0.24254  -0.23601
  Beta  occ. eigenvalues --   -0.23015  -0.22392  -0.22067  -0.21406  -0.21247
  Beta  occ. eigenvalues --   -0.15508
  Beta virt. eigenvalues --    0.06134   0.06684   0.07073   0.07170   0.08033
  Beta virt. eigenvalues --    0.08320   0.08385   0.09290   0.09350   0.09939
  Beta virt. eigenvalues --    0.10170   0.10388   0.10655   0.10918   0.11916

 Mulliken charges and spin densities:
               1          2
     1  C    0.720772  -1.300482
     2  C   -0.812457   0.618378
     3  C    0.611940  -1.026953
     4  C   -0.637976   0.421024
     5  C   -0.270164   1.498449
     6  C    0.646443  -1.065794
     7  C   -0.362293  -1.065516
     8  C   -0.033708  -0.268455
     9  C   -0.183431  -0.374275
    10  C   -0.496144   0.991627
    11  C    0.627775  -1.332223
    12  C    0.351069  -0.557876
    13  C   -0.699000   0.464574
    14  C    0.449024  -1.068421
    15  H   -0.157466   0.310219
    16  H   -0.114808   0.244679
    17  H   -0.251932   0.394535
    18  H   -0.076736   0.213037
    19  H   -0.161970   0.341561
    20  H    0.056085   0.090378
    21  H   -0.325609   0.465150
    22  H   -0.223434   0.420738
    23  H    0.142304   0.000257
    24  H   -0.001272   0.142630
    25  H   -0.104356   0.223996
    26  H    0.652158  -0.497962
    27  H   -0.020286   0.179941
    28  H    0.221795  -0.050302
    29  H   -0.114479   0.283086
    30  H   -0.116862   0.285291
    31  H    0.389636  -0.272184
    32  H    0.157190  -0.023027
    33  H   -0.018100   0.169751
    34  H   -0.182431   0.318241
    35  H    0.074699   0.071695
    36  H   -0.111506   0.258141
    37  H    0.102680   0.021757
    38  H   -0.349871   0.517758
    39  H   -0.083097   0.225593
    40  H    0.009011   0.121104
    41  H   -0.354581   0.491235
    42  H    0.051390   0.118645
 Sum of Mulliken charges =  -1.00000   1.00000

 Dipole moment (field-independent basis, Debye):
    X=              0.6509    Y=             -3.3047    Z=              0.3929  Tot=              3.3911
 Quadrupole moment (field-independent basis, Debye-Ang):
   XX=           -189.1904   YY=           -153.5248   ZZ=           -127.3450
   XY=             -1.2866   XZ=             -6.8651   YZ=              1.1648

 Summary of Natural Population Analysis:

                                       Natural Population
                Natural  -----------------------------------------------
    Atom  No    Charge         Core      Valence    Rydberg      Total
 -----------------------------------------------------------------------
      C    1   -0.28806      0.99967     2.28304    0.00535     3.28806
      C    2   -0.19354      0.99964     2.18581    0.00809     3.19354
      C    3   -0.18148      0.99962     2.17334    0.00851     3.18148
      C    4   -0.20894      0.99957     2.19925    0.01012     3.20894
      C    5    0.00898      0.99952     1.97885    0.01265     2.99102
      C    6   -0.20084      0.99947     2.19403    0.00734     3.20084
      C    7   -0.20802      0.99957     2.19999    0.00846     3.20802
      C    8   -0.18389      0.99962     2.17676    0.00751     3.18389
      C    9   -0.18793      0.99961     2.17975    0.00857     3.18793
      C   10   -0.11740      0.99960     2.10824    0.00956     3.11740
      C   11   -0.28331      0.99965     2.27861    0.00505     3.28331
      C   12   -0.18409      0.99961     2.17522    0.00926     3.18409
      C   13   -0.19077      0.99964     2.18340    0.00773     3.19077
      C   14   -0.28778      0.99967     2.28254    0.00557     3.28778
      H   15    0.09555      0.00000     0.40317    0.00129     0.40445
      H   16    0.10057      0.00000     0.39847    0.00096     0.39943
      H   17    0.09664      0.00000     0.40212    0.00124     0.40336
      H   18    0.09429      0.00000     0.40444    0.00128     0.40571
      H   19    0.09587      0.00000     0.40313    0.00100     0.40413
      H   20    0.09595      0.00000     0.40277    0.00128     0.40405
      H   21    0.09567      0.00000     0.40299    0.00134     0.40433
      H   22    0.10416      0.00000     0.39462    0.00122     0.39584
      H   23    0.09954      0.00000     0.39881    0.00165     0.40046
      H   24    0.09203      0.00000     0.40700    0.00097     0.40797
      H   25    0.09221      0.00000     0.40679    0.00100     0.40779
      H   26    0.10083      0.00000     0.39681    0.00236     0.39917
      H   27    0.09858      0.00000     0.39969    0.00173     0.40142
      H   28    0.09528      0.00000     0.40352    0.00120     0.40472
      H   29    0.09696      0.00000     0.40184    0.00120     0.40304
      H   30    0.09591      0.00000     0.40307    0.00102     0.40409
      H   31    0.09809      0.00000     0.40014    0.00177     0.40191
      H   32    0.09434      0.00000     0.40342    0.00223     0.40566
      H   33    0.09547      0.00000     0.40353    0.00099     0.40453
      H   34    0.09905      0.00000     0.39995    0.00099     0.40095
      H   35    0.09916      0.00000     0.39987    0.00097     0.40084
      H   36    0.09479      0.00000     0.40416    0.00105     0.40521
      H   37    0.09469      0.00000     0.40421    0.00110     0.40531
      H   38    0.09532      0.00000     0.40357    0.00111     0.40468
      H   39    0.09415      0.00000     0.40463    0.00123     0.40585
      H   40    0.09496      0.00000     0.40404    0.00100     0.40504
      H   41    0.10050      0.00000     0.39852    0.00099     0.39950
      H   42    0.09648      0.00000     0.40216    0.00136     0.40352
 =======================================================================
   * Total *    0.00000     13.99445    41.85627    0.14928    56.00000

 Normal termination of Gaussian 16 at Thu Dec 10 10:53:45 2020.
