 Gaussian 16, Revision A.03,

 -----------------------------------------------------------
 # opt freq B3LYP/6-31G(d) empiricaldispersion=gd3bj scf=xqc
 -----------------------------------------------------------

 ------------------------------
 CID_19372819_JID_2187_neutraal
 ------------------------------
 Symbolic Z-matrix:
 Charge =  0 Multiplicity = 1

 SCF Done:  E(RB3LYP) =  -464.472060008     A.U. after   15 cycles
 SCF Done:  E(RB3LYP) =  -464.488540912     A.U. after   13 cycles
 SCF Done:  E(RB3LYP) =  -464.489528285     A.U. after   12 cycles
 SCF Done:  E(RB3LYP) =  -464.483743289     A.U. after   15 cycles
 SCF Done:  E(RB3LYP) =  -464.488991258     A.U. after   12 cycles
 SCF Done:  E(RB3LYP) =  -464.489667731     A.U. after    9 cycles
 SCF Done:  E(RB3LYP) =  -464.489437699     A.U. after   12 cycles
 SCF Done:  E(RB3LYP) =  -464.489624033     A.U. after   12 cycles
 SCF Done:  E(RB3LYP) =  -464.489689287     A.U. after   11 cycles
 SCF Done:  E(RB3LYP) =  -464.489764937     A.U. after   11 cycles
 SCF Done:  E(RB3LYP) =  -464.489758890     A.U. after   10 cycles
 SCF Done:  E(RB3LYP) =  -464.489768656     A.U. after   10 cycles
 SCF Done:  E(RB3LYP) =  -464.489769838     A.U. after    8 cycles
 Optimization completed.
    -- Stationary point found.
 Normal termination of Gaussian 16 at Wed Dec  9 16:53:52 2020.

 --------------------------------------------------------------------
 #N Geom=AllCheck Guess=TCheck SCRF=Check GenChk RB3LYP/6-31G(d) Freq
 --------------------------------------------------------------------

 Structure from the checkpoint file:  "JID_2187.chk"
 ------------------------------
 CID_19372819_JID_2187_neutraal
 ------------------------------
 Charge =  0 Multiplicity = 1

 SCF Done:  E(RB3LYP) =  -464.489769838     A.U. after    1 cycles

  Exact polarizability: 137.623   2.009 123.028   0.182  -2.321  79.112
 Approx polarizability: 196.164   6.475 193.897   0.240  -5.139 130.778

                      1                      2                      3
                      A                      A                      A
 Frequencies --     64.1507                91.2448               160.4387
 Red. masses --      3.5013                 4.2387                 2.8295
 Frc consts  --      0.0085                 0.0208                 0.0429
 IR Inten    --      0.0030                 0.1271                 0.0506

                      4                      5                      6
                      A                      A                      A
 Frequencies --    172.1177               276.6361               315.3338
 Red. masses --      3.3323                 3.3305                 2.1278
 Frc consts  --      0.0582                 0.1502                 0.1247
 IR Inten    --      0.9015                 1.0505                 1.4131

                      7                      8                      9
                      A                      A                      A
 Frequencies --    338.8836               383.4018               421.3204
 Red. masses --      3.8143                 5.0670                 4.4050
 Frc consts  --      0.2581                 0.4388                 0.4607
 IR Inten    --      0.4834                 0.9700                 0.5637

                     10                     11                     12
                      A                      A                      A
 Frequencies --    440.2256               488.1593               530.8680
 Red. masses --      2.6436                 3.9611                 3.5105
 Frc consts  --      0.3019                 0.5562                 0.5829
 IR Inten    --      2.2084                 1.2695                 0.5584

                     13                     14                     15
                      A                      A                      A
 Frequencies --    575.6116               597.6936               607.9922
 Red. masses --      4.5921                 1.5133                 1.8397
 Frc consts  --      0.8964                 0.3185                 0.4007
 IR Inten    --      0.5854                29.2592                21.3294

                     16                     17                     18
                      A                      A                      A
 Frequencies --    615.3465               665.6302               728.4547
 Red. masses --      1.3646                 3.5375                 3.9859
 Frc consts  --      0.3044                 0.9234                 1.2462
 IR Inten    --     40.4311                 3.6343                 0.3365

                     19                     20                     21
                      A                      A                      A
 Frequencies --    751.8363               782.6681               825.3084
 Red. masses --      1.7985                 2.0834                 2.6645
 Frc consts  --      0.5990                 0.7519                 1.0693
 IR Inten    --     23.4732                16.8776                 2.2554

                     22                     23                     24
                      A                      A                      A
 Frequencies --    858.7917               883.2131               900.3111
 Red. masses --      2.0499                 1.6244                 1.9753
 Frc consts  --      0.8908                 0.7466                 0.9433
 IR Inten    --      0.5236                 0.0987                 3.0864

                     25                     26                     27
                      A                      A                      A
 Frequencies --    915.1037               949.4981               981.8685
 Red. masses --      2.1623                 1.4381                 1.3075
 Frc consts  --      1.0669                 0.7639                 0.7427
 IR Inten    --      0.7671                 1.1107                 0.3337

                     28                     29                     30
                      A                      A                      A
 Frequencies --    982.8272              1017.5304              1069.4231
 Red. masses --      2.1584                 2.2938                 2.6189
 Frc consts  --      1.2284                 1.3992                 1.7647
 IR Inten    --      3.3238                 2.3163                 1.6951

                     31                     32                     33
                      A                      A                      A
 Frequencies --   1095.7621              1105.1768              1144.3309
 Red. masses --      1.8049                 2.0186                 1.8606
 Frc consts  --      1.2768                 1.4527                 1.4355
 IR Inten    --      0.7876                 0.7165                 0.7940

                     34                     35                     36
                      A                      A                      A
 Frequencies --   1184.8244              1194.9736              1196.5764
 Red. masses --      1.3309                 1.2631                 1.1743
 Frc consts  --      1.1007                 1.0627                 0.9906
 IR Inten    --      2.8487                 0.2265                 0.2099

                     37                     38                     39
                      A                      A                      A
 Frequencies --   1219.1368              1232.5798              1271.7648
 Red. masses --      1.8155                 2.5122                 1.3894
 Frc consts  --      1.5899                 2.2487                 1.3240
 IR Inten    --      2.3648                 0.0941                 1.2730

                     40                     41                     42
                      A                      A                      A
 Frequencies --   1307.9324              1340.2811              1348.8442
 Red. masses --      1.2706                 1.3761                 1.6519
 Frc consts  --      1.2806                 1.4565                 1.7708
 IR Inten    --      4.4497                 4.9559                 6.4888

                     43                     44                     45
                      A                      A                      A
 Frequencies --   1359.2146              1382.7619              1396.3159
 Red. masses --      3.8642                 1.3877                 1.5691
 Frc consts  --      4.2062                 1.5633                 1.8025
 IR Inten    --      0.7370                 1.2536                 1.8921

                     46                     47                     48
                      A                      A                      A
 Frequencies --   1409.0463              1498.4560              1505.1137
 Red. masses --      1.4909                 2.2281                 1.1424
 Frc consts  --      1.7440                 2.9476                 1.5248
 IR Inten    --      4.9289                 3.6503                 2.5383

                     49                     50                     51
                      A                      A                      A
 Frequencies --   1518.3021              1528.6475              1544.7689
 Red. masses --      1.0914                 1.0966                 2.3475
 Frc consts  --      1.4823                 1.5098                 3.3006
 IR Inten    --      4.9148                 3.0172                15.4717

                     52                     53                     54
                      A                      A                      A
 Frequencies --   1641.2001              1667.5381              2234.3322
 Red. masses --      6.3087                 5.8008                 5.9795
 Frc consts  --     10.0119                 9.5036                17.5878
 IR Inten    --      1.6364                 0.6848                 2.6963

                     55                     56                     57
                      A                      A                      A
 Frequencies --   3014.1089              3024.7417              3046.7842
 Red. masses --      1.0696                 1.0812                 1.0683
 Frc consts  --      5.7252                 5.8281                 5.8427
 IR Inten    --     25.9117                10.0596                34.1684

                     58                     59                     60
                      A                      A                      A
 Frequencies --   3052.6220              3070.3316              3095.8164
 Red. masses --      1.0631                 1.0889                 1.1030
 Frc consts  --      5.8370                 6.0482                 6.2285
 IR Inten    --     19.3784                38.2099                48.1300

                     61                     62                     63
                      A                      A                      A
 Frequencies --   3104.9671              3171.0081              3177.9421
 Red. masses --      1.1005                 1.0868                 1.0880
 Frc consts  --      6.2508                 6.4385                 6.4739
 IR Inten    --     36.2606                13.0433                 2.2368

                     64                     65                     66
                      A                      A                      A
 Frequencies --   3192.5961              3207.9248              3496.9698
 Red. masses --      1.0916                 1.0973                 1.1595
 Frc consts  --      6.5554                 6.6533                 8.3539
 IR Inten    --     27.7120                30.8170                59.0905

 - Thermochemistry -
 -------------------
 Temperature   298.150 Kelvin.  Pressure   1.00000 Atm.
 Atom     1 has atomic number  6 and mass  12.00000

 Molecular mass:   156.09390 amu.
 Principal axes and moments of inertia in atomic units:
                           1         2         3
     Eigenvalues --  1231.110532110.034392903.97990
           X            0.99964  -0.02627  -0.00535
           Y            0.02622   0.99961  -0.00926
           Z            0.00559   0.00912   0.99994
 This molecule is an asymmetric top.
 Rotational symmetry number  1.
 Warning -- assumption of classical behavior for rotation
           may cause significant error
 Rotational temperatures (Kelvin)      0.07035     0.04105     0.02983
 Rotational constants (GHZ):           1.46595     0.85531     0.62147
 Zero-point vibrational energy     534584.7 (Joules/Mol)
                                  127.76881 (Kcal/Mol)
 Warning -- explicit consideration of  16 degrees of freedom as
           vibrations may cause significant error
 Vibrational temperatures:     92.30   131.28   230.84   247.64   398.02
          (Kelvin)            453.69   487.58   551.63   606.19   633.39
                              702.35   763.80   828.18   859.95   874.77
                              885.35   957.69  1048.08  1081.72  1126.08
                             1187.43  1235.61  1270.75  1295.35  1316.63
                             1366.12  1412.69  1414.07  1464.00  1538.66
                             1576.56  1590.10  1646.44  1704.70  1719.30
                             1721.61  1754.07  1773.41  1829.79  1881.82
                             1928.37  1940.69  1955.61  1989.49  2008.99
                             2027.30  2155.94  2165.52  2184.50  2199.38
                             2222.58  2361.32  2399.22  3214.71  4336.63
                             4351.93  4383.64  4392.04  4417.52  4454.19
                             4467.36  4562.37  4572.35  4593.43  4615.49
                             5031.36

 Zero-point correction=                           0.203613 (Hartree/Particle)
 Thermal correction to Energy=                    0.213567
 Thermal correction to Enthalpy=                  0.214511
 Thermal correction to Gibbs Free Energy=         0.168303
 Sum of electronic and zero-point Energies=           -464.286157
 Sum of electronic and thermal Energies=              -464.276203
 Sum of electronic and thermal Enthalpies=            -464.275258
 Sum of electronic and thermal Free Energies=         -464.321467

                     E (Thermal)             CV                S
                      KCal/Mol        Cal/Mol-Kelvin    Cal/Mol-Kelvin
 Total                  134.015             40.432             97.254
 Electronic               0.000              0.000              0.000
 Translational            0.889              2.981             41.045
 Rotational               0.889              2.981             30.401
 Vibrational            132.238             34.470             25.808
 Vibration     1          0.597              1.971              4.325
 Vibration     2          0.602              1.955              3.633
 Vibration     3          0.622              1.891              2.545
 Vibration     4          0.626              1.877              2.412
 Vibration     5          0.678              1.717              1.554
 Vibration     6          0.703              1.644              1.334
 Vibration     7          0.719              1.598              1.217
 Vibration     8          0.753              1.506              1.026
 Vibration     9          0.784              1.424              0.887
 Vibration    10          0.800              1.382              0.826
 Vibration    11          0.844              1.276              0.688
 Vibration    12          0.886              1.182              0.585
 Vibration    13          0.932              1.084              0.494
 Vibration    14          0.956              1.037              0.454
 Vibration    15          0.967              1.015              0.436
 Vibration    16          0.975              0.999              0.424

 Optimization completed.
    -- Stationary point found.
 Normal termination of Gaussian 16 at Wed Dec  9 16:59:26 2020.

 ----------------------------------------------------------------------
 # B3LYP/6-311++G(d,p) empiricaldispersion=gd3bj scf=xqc pop=npa geom=c
 heck
 ----------------------------------------------------------------------

 --------------------------------------
 CID_19372819_JID_2187_Energie_neutraal
 --------------------------------------
 Structure from the checkpoint file:  "JID_2187.chk"
 Charge =  0 Multiplicity = 1

 SCF Done:  E(RB3LYP) =  -464.611572687     A.U. after   15 cycles
 Normal termination of Gaussian 16 at Wed Dec  9 17:02:32 2020.

 ----------------------------------------------------------------------
 # B3LYP/6-311++G(d,p) empiricaldispersion=gd3bj scf=xqc pop=npa geom=c
 heck
 ----------------------------------------------------------------------

 ------------------------------------
 CID_19372819_JID_2187_Energie_kation
 ------------------------------------
 Structure from the checkpoint file:  "JID_2187.chk"
 Charge =  1 Multiplicity = 2

 SCF Done:  E(UB3LYP) =  -464.299508047     A.U. after   29 cycles
 Normal termination of Gaussian 16 at Wed Dec  9 17:09:55 2020.
 Gaussian 16:  ES64L-G16RevA.03 25-Dec-2016

 ----------------------------------------------------------------------
 # B3LYP/6-311++G(d,p) empiricaldispersion=gd3bj scf=xqc pop=npa geom=c
 heck
 ----------------------------------------------------------------------

 -----------------------------------
 CID_19372819_JID_2187_Energie_anion
 -----------------------------------
 Structure from the checkpoint file:  "JID_2187.chk"
 Charge = -1 Multiplicity = 2

                         Standard orientation:
 ---------------------------------------------------------------------
 Center     Atomic      Atomic             Coordinates (Angstroms)
 Number     Number       Type             X           Y           Z
 ---------------------------------------------------------------------
      1          6           0       -2.401524   -2.056785   -1.153546
      2          6           0       -1.858109   -1.398301   -0.299413
      3          6           0       -1.204772   -0.581040    0.732156
      4          6           0       -1.954488    0.754340    0.932035
      5          6           0       -1.684509    1.692249   -0.244496
      6          6           0       -0.199264    2.061683   -0.289193
      7          6           0        0.723460    0.868429   -0.126570
      8          6           0        2.080443    0.998251   -0.454533
      9          6           0        2.971099   -0.057888   -0.292343
     10          6           0        2.511210   -1.278934    0.206862
     11          6           0        1.166914   -1.420708    0.533756
     12          6           0        0.267552   -0.359557    0.375692
     13          1           0       -2.869112   -2.642687   -1.911327
     14          1           0       -1.241994   -1.143337    1.675657
     15          1           0       -1.600851    1.215789    1.863661
     16          1           0       -3.024675    0.555665    1.046795
     17          1           0       -1.976372    1.188227   -1.174293
     18          1           0       -2.293199    2.599849   -0.164129
     19          1           0        0.039036    2.582361   -1.224789
     20          1           0        0.013270    2.779956    0.517233
     21          1           0        2.436146    1.949284   -0.845317
     22          1           0        4.017652    0.067795   -0.555770
     23          1           0        3.195307   -2.112528    0.337968
     24          1           0        0.796714   -2.370815    0.911865
 ---------------------------------------------------------------------

 SCF Done:  E(UB3LYP) =  -464.594270977     A.U. after   33 cycles
 SCF Done:  E(UB3LYP) =  -464.594270977     a.u. after    1 cycles

 The electronic state is 2-A.
 Alpha  occ. eigenvalues --  -10.10159 -10.08042 -10.07760 -10.07622 -10.07016
 Alpha  occ. eigenvalues --  -10.06871 -10.06868 -10.06816 -10.06765 -10.06708
 Alpha  occ. eigenvalues --  -10.06260 -10.06238  -0.76927  -0.72091  -0.68369
 Alpha  occ. eigenvalues --   -0.64279  -0.63954  -0.61294  -0.54306  -0.50935
 Alpha  occ. eigenvalues --   -0.50150  -0.46227  -0.42675  -0.40607  -0.37853
 Alpha  occ. eigenvalues --   -0.37222  -0.35041  -0.34443  -0.33063  -0.31082
 Alpha  occ. eigenvalues --   -0.30100  -0.28993  -0.27773  -0.25435  -0.25131
 Alpha  occ. eigenvalues --   -0.23711  -0.22363  -0.21835  -0.17604  -0.17388
 Alpha  occ. eigenvalues --   -0.14582  -0.14066   0.04725
 Alpha virt. eigenvalues --    0.06785   0.07096   0.07442   0.08393   0.08612
 Alpha virt. eigenvalues --    0.08984   0.09192   0.10190   0.11050   0.11223
 Alpha virt. eigenvalues --    0.11853   0.12256   0.12868   0.13351   0.13963

  Beta  occ. eigenvalues --  -10.10145 -10.08041 -10.07750 -10.07621 -10.07007
  Beta  occ. eigenvalues --  -10.06850 -10.06842 -10.06794 -10.06744 -10.06682
  Beta  occ. eigenvalues --  -10.06244 -10.06220  -0.76891  -0.72049  -0.68329
  Beta  occ. eigenvalues --   -0.64248  -0.63909  -0.61249  -0.54253  -0.50882
  Beta  occ. eigenvalues --   -0.50090  -0.46175  -0.42632  -0.40551  -0.37802
  Beta  occ. eigenvalues --   -0.37185  -0.35003  -0.34397  -0.33015  -0.31044
  Beta  occ. eigenvalues --   -0.30043  -0.28962  -0.27726  -0.25390  -0.25075
  Beta  occ. eigenvalues --   -0.23665  -0.22317  -0.21801  -0.17579  -0.17344
  Beta  occ. eigenvalues --   -0.14503  -0.13995
  Beta virt. eigenvalues --    0.06907   0.07545   0.07851   0.07970   0.08746
  Beta virt. eigenvalues --    0.08856   0.09643   0.09811   0.10769   0.11486
  Beta virt. eigenvalues --    0.11698   0.12103   0.12512   0.13238   0.13711

 Mulliken charges and spin densities:
               1          2
     1  C   -0.189621   0.308698
     2  C    2.379399  -3.115738
     3  C   -0.071425   1.038702
     4  C    0.000890  -0.610834
     5  C   -0.124822  -0.328508
     6  C    1.483767  -1.931090
     7  C   -2.468598   3.409400
     8  C    0.677376  -0.757309
     9  C    0.804526  -1.063469
    10  C    0.746474  -1.159305
    11  C    0.315902  -1.044222
    12  C   -1.312072   0.943517
    13  H   -0.278610   0.461901
    14  H   -0.441398   0.713659
    15  H   -0.277915   0.434074
    16  H   -0.322517   0.515519
    17  H    0.226677  -0.099680
    18  H   -0.586031   0.774827
    19  H   -0.040475   0.180784
    20  H   -0.126815   0.312898
    21  H   -0.355849   0.516731
    22  H   -0.428636   0.581254
    23  H   -0.431748   0.589544
    24  H   -0.178478   0.328648
 Sum of Mulliken charges =  -1.00000   1.00000

 Dipole moment (field-independent basis, Debye):
    X=             -0.1438    Y=             -1.2461    Z=             -2.2122  Tot=              2.5430
 Quadrupole moment (field-independent basis, Debye-Ang):
   XX=           -131.2048   YY=           -120.5753   ZZ=           -102.7957
   XY=              5.1126   XZ=              6.7255   YZ=             -1.2501

 Summary of Natural Population Analysis:

                                       Natural Population
                Natural  -----------------------------------------------
    Atom  No    Charge         Core      Valence    Rydberg      Total
 -----------------------------------------------------------------------
      C    1   -0.12895      0.99926     2.12609    0.00359     3.12895
      C    2    0.01394      0.99936     1.97626    0.01045     2.98606
      C    3   -0.15494      0.99951     2.14206    0.01337     3.15494
      C    4   -0.17823      0.99962     2.16899    0.00961     3.17823
      C    5   -0.19089      0.99963     2.18218    0.00907     3.19089
      C    6   -0.19536      0.99960     2.18672    0.00905     3.19536
      C    7   -0.01118      0.99946     2.00174    0.00998     3.01118
      C    8   -0.10614      0.99953     2.09147    0.01515     3.10614
      C    9   -0.07064      0.99956     2.06371    0.00737     3.07064
      C   10   -0.11342      0.99957     2.09894    0.01491     3.11342
      C   11   -0.09049      0.99951     2.08140    0.00958     3.09049
      C   12   -0.00946      0.99945     1.99849    0.01152     3.00946
      H   13    0.10927      0.00000     0.38951    0.00122     0.39073
      H   14    0.11961      0.00000     0.37761    0.00278     0.38039
      H   15    0.10047      0.00000     0.39729    0.00225     0.39953
      H   16    0.10356      0.00000     0.39493    0.00150     0.39644
      H   17    0.09782      0.00000     0.40069    0.00149     0.40218
      H   18    0.10270      0.00000     0.39555    0.00174     0.39730
      H   19    0.10204      0.00000     0.39683    0.00113     0.39796
      H   20    0.10494      0.00000     0.39314    0.00192     0.39506
      H   21    0.09844      0.00000     0.40008    0.00148     0.40156
      H   22    0.09666      0.00000     0.40169    0.00164     0.40334
      H   23    0.10005      0.00000     0.39873    0.00121     0.39995
      H   24    0.10058      0.00000     0.39769    0.00173     0.39942
 =======================================================================
   * Total *    0.00039     11.99407    29.86179    0.14375    41.99961

 Normal termination of Gaussian 16 at Wed Dec  9 17:18:19 2020.
