 Gaussian 16, Revision A.03,

 -----------------------------------------------------------
 # opt freq B3LYP/6-31G(d) empiricaldispersion=gd3bj scf=xqc
 -----------------------------------------------------------

 ------------------------------
 CID_65961737_JID_5505_neutraal
 ------------------------------
 Symbolic Z-matrix:
 Charge =  0 Multiplicity = 1

 SCF Done:  E(RB3LYP) =  -725.880555282     A.U. after   14 cycles
 SCF Done:  E(RB3LYP) =  -725.888570503     A.U. after   12 cycles
 SCF Done:  E(RB3LYP) =  -725.890170319     A.U. after   13 cycles
 SCF Done:  E(RB3LYP) =  -725.890795784     A.U. after   12 cycles
 SCF Done:  E(RB3LYP) =  -725.892111136     A.U. after   11 cycles
 SCF Done:  E(RB3LYP) =  -725.892752403     A.U. after   12 cycles
 SCF Done:  E(RB3LYP) =  -725.893187279     A.U. after   12 cycles
 SCF Done:  E(RB3LYP) =  -725.893501229     A.U. after   12 cycles
 SCF Done:  E(RB3LYP) =  -725.893655664     A.U. after   12 cycles
 SCF Done:  E(RB3LYP) =  -725.893731374     A.U. after   11 cycles
 SCF Done:  E(RB3LYP) =  -725.893773185     A.U. after    8 cycles
 SCF Done:  E(RB3LYP) =  -725.893773447     A.U. after    8 cycles
 SCF Done:  E(RB3LYP) =  -725.893773575     A.U. after    8 cycles
 SCF Done:  E(RB3LYP) =  -725.893773646     A.U. after    8 cycles
 SCF Done:  E(RB3LYP) =  -725.893773691     A.U. after    7 cycles
 Optimization completed.
    -- Stationary point found.
 Normal termination of Gaussian 16 at Thu Dec 10 16:25:03 2020.

 --------------------------------------------------------------------
 #N Geom=AllCheck Guess=TCheck SCRF=Check GenChk RB3LYP/6-31G(d) Freq
 --------------------------------------------------------------------

 Structure from the checkpoint file:  "JID_5505.chk"
 ------------------------------
 CID_65961737_JID_5505_neutraal
 ------------------------------
 Charge =  0 Multiplicity = 1

 SCF Done:  E(RB3LYP) =  -725.893773691     A.U. after    1 cycles

  Exact polarizability: 140.371  -7.070 109.914   1.198   4.615 109.059
 Approx polarizability: 164.930 -13.299 165.490   1.643   9.233 176.045

                      1                      2                      3
                      A                      A                      A
 Frequencies --     16.0998                17.4009                38.8323
 Red. masses --      6.4093                 7.9918                 4.0783
 Frc consts  --      0.0010                 0.0014                 0.0036
 IR Inten    --      0.6656                 0.5593                 0.6540

                      4                      5                      6
                      A                      A                      A
 Frequencies --     51.9652                64.7823                90.9400
 Red. masses --      4.3144                 2.6920                 5.1328
 Frc consts  --      0.0069                 0.0067                 0.0250
 IR Inten    --      1.0866                 1.3566                 1.2246

                      7                      8                      9
                      A                      A                      A
 Frequencies --    116.6134               144.2743               183.2910
 Red. masses --      3.5271                 3.8528                 5.1355
 Frc consts  --      0.0283                 0.0473                 0.1017
 IR Inten    --      1.3070                 1.2002                 5.0300

                     10                     11                     12
                      A                      A                      A
 Frequencies --    199.4926               259.1749               280.8160
 Red. masses --      3.7488                 3.3813                 2.5573
 Frc consts  --      0.0879                 0.1338                 0.1188
 IR Inten    --      1.8142                 3.1184                 3.5864

                     13                     14                     15
                      A                      A                      A
 Frequencies --    304.1638               343.3002               385.9694
 Red. masses --      2.6232                 3.3316                 2.0161
 Frc consts  --      0.1430                 0.2313                 0.1770
 IR Inten    --      7.7930                 2.4709                 0.5310

                     16                     17                     18
                      A                      A                      A
 Frequencies --    423.6712               492.8390               543.5694
 Red. masses --      3.4406                 3.8108                 2.9968
 Frc consts  --      0.3639                 0.5453                 0.5217
 IR Inten    --      9.4674                37.1707                 2.0301

                     19                     20                     21
                      A                      A                      A
 Frequencies --    582.4714               599.4329               627.7702
 Red. masses --      3.2048                 3.0576                 1.7764
 Frc consts  --      0.6406                 0.6473                 0.4125
 IR Inten    --     41.3482                15.2964                59.3750

                     22                     23                     24
                      A                      A                      A
 Frequencies --    659.2415               725.3168               746.9292
 Red. masses --      2.3315                 1.6906                 3.4400
 Frc consts  --      0.5970                 0.5240                 1.1308
 IR Inten    --     38.1939                43.5004                29.9051

                     25                     26                     27
                      A                      A                      A
 Frequencies --    767.3570               788.4495               794.7849
 Red. masses --      1.9626                 2.1033                 1.3723
 Frc consts  --      0.6809                 0.7704                 0.5107
 IR Inten    --     31.8513                50.9194                11.0604

                     28                     29                     30
                      A                      A                      A
 Frequencies --    797.5823               841.2653               875.7463
 Red. masses --      3.7786                 1.2579                 2.0693
 Frc consts  --      1.4162                 0.5245                 0.9351
 IR Inten    --     25.8878                 4.5165                 7.9429

                     31                     32                     33
                      A                      A                      A
 Frequencies --    902.6770               908.5990               913.4155
 Red. masses --      1.4776                 3.1645                 2.1453
 Frc consts  --      0.7094                 1.5392                 1.0546
 IR Inten    --      0.5851                 2.5507                 6.7420

                     34                     35                     36
                      A                      A                      A
 Frequencies --    948.3408               993.0256              1021.0748
 Red. masses --      3.0486                 1.7762                 2.4884
 Frc consts  --      1.6154                 1.0320                 1.5286
 IR Inten    --      3.0429                 7.2175                 1.8344

                     37                     38                     39
                      A                      A                      A
 Frequencies --   1042.6345              1056.1879              1066.4922
 Red. masses --      2.4831                 1.7418                 1.7515
 Frc consts  --      1.5904                 1.1448                 1.1737
 IR Inten    --     24.8920                 4.7536                 2.5617

                     40                     41                     42
                      A                      A                      A
 Frequencies --   1083.4403              1105.2275              1135.3176
 Red. masses --      1.3890                 1.8251                 2.2187
 Frc consts  --      0.9606                 1.3135                 1.6849
 IR Inten    --      1.1031                 1.3260                 6.6390

                     43                     44                     45
                      A                      A                      A
 Frequencies --   1142.2186              1158.7745              1163.5393
 Red. masses --      1.7822                 1.2706                 1.5977
 Frc consts  --      1.3700                 1.0052                 1.2744
 IR Inten    --     17.1455                 1.2914                 6.0637

                     46                     47                     48
                      A                      A                      A
 Frequencies --   1171.1193              1179.7770              1186.9092
 Red. masses --      1.8823                 2.2130                 1.5650
 Frc consts  --      1.5210                 1.8148                 1.2990
 IR Inten    --    203.3568                35.2144                68.1980

                     49                     50                     51
                      A                      A                      A
 Frequencies --   1214.5548              1215.8061              1241.2169
 Red. masses --      1.4195                 2.1523                 1.8037
 Frc consts  --      1.2337                 1.8745                 1.6372
 IR Inten    --      1.7705                31.4261                 1.8566

                     52                     53                     54
                      A                      A                      A
 Frequencies --   1251.6143              1273.1368              1295.6289
 Red. masses --      1.5855                 1.3853                 1.3105
 Frc consts  --      1.4634                 1.3230                 1.2962
 IR Inten    --     29.1050                25.2854                24.9470

                     55                     56                     57
                      A                      A                      A
 Frequencies --   1304.2159              1315.1477              1357.5184
 Red. masses --      1.3285                 1.4369                 1.6382
 Frc consts  --      1.3314                 1.4642                 1.7787
 IR Inten    --      5.1092                 6.2243                24.6362

                     58                     59                     60
                      A                      A                      A
 Frequencies --   1378.4929              1392.6297              1421.7550
 Red. masses --      1.3002                 1.6612                 2.2172
 Frc consts  --      1.4557                 1.8982                 2.6407
 IR Inten    --     44.1729               189.5179               118.9213

                     61                     62                     63
                      A                      A                      A
 Frequencies --   1442.2593              1453.0791              1483.5863
 Red. masses --      1.8535                 2.2654                 1.3849
 Frc consts  --      2.2715                 2.8182                 1.7959
 IR Inten    --     63.9445               175.2975                 2.9370

                     64                     65                     66
                      A                      A                      A
 Frequencies --   1495.9977              1511.9489              1531.6091
 Red. masses --      1.0922                 1.1109                 1.1359
 Frc consts  --      1.4401                 1.4962                 1.5700
 IR Inten    --      1.5273                 6.6692                44.1501

                     67                     68                     69
                      A                      A                      A
 Frequencies --   1536.0185              1538.7051              1556.3328
 Red. masses --      1.0789                 1.3650                 1.1198
 Frc consts  --      1.4998                 1.9041                 1.5981
 IR Inten    --      0.9806                 0.8739                12.7009

                     70                     71                     72
                      A                      A                      A
 Frequencies --   1779.4442              1851.2049              3036.5843
 Red. masses --      7.8968                 9.8502                 1.0633
 Frc consts  --     14.7322                19.8886                 5.7766
 IR Inten    --    327.8954               241.7628                21.9829

                     73                     74                     75
                      A                      A                      A
 Frequencies --   3059.9389              3073.0278              3085.1550
 Red. masses --      1.0554                 1.0697                 1.0894
 Frc consts  --      5.8221                 5.9515                 6.1093
 IR Inten    --     25.3647                22.6788                43.6564

                     76                     77                     78
                      A                      A                      A
 Frequencies --   3094.0421              3105.7235              3115.5225
 Red. masses --      1.0580                 1.1099                 1.1054
 Frc consts  --      5.9675                 6.3078                 6.3215
 IR Inten    --     17.7288                15.1245                42.2571

                     79                     80                     81
                      A                      A                      A
 Frequencies --   3123.7040              3139.1274              3146.1473
 Red. masses --      1.0891                 1.0523                 1.0573
 Frc consts  --      6.2613                 6.1092                 6.1660
 IR Inten    --     11.5532                21.3392                16.4024

                     82                     83                     84
                      A                      A                      A
 Frequencies --   3149.6678              3159.9456              3214.5405
 Red. masses --      1.1102                 1.0898                 1.1187
 Frc consts  --      6.4892                 6.4114                 6.8111
 IR Inten    --      9.9267                 6.8770                 1.1601

                     85                     86                     87
                      A                      A                      A
 Frequencies --   3229.7556              3586.0515              3684.3911
 Red. masses --      1.1158                 1.0752                 1.0640
 Frc consts  --      6.8575                 8.1463                 8.5098
 IR Inten    --     25.3895                18.2167                52.1968

 - Thermochemistry -
 -------------------
 Temperature   298.150 Kelvin.  Pressure   1.00000 Atm.
 Atom     1 has atomic number  6 and mass  12.00000

 Molecular mass:   212.11609 amu.
 Principal axes and moments of inertia in atomic units:
                           1         2         3
     Eigenvalues --  1612.442286646.276127129.75850
           X            0.99989   0.01479  -0.00288
           Y           -0.01477   0.99987   0.00637
           Z            0.00298  -0.00633   0.99998
 This molecule is an asymmetric top.
 Rotational symmetry number  1.
 Warning -- assumption of classical behavior for rotation
           may cause significant error
 Rotational temperatures (Kelvin)      0.05372     0.01303     0.01215
 Rotational constants (GHZ):           1.11926     0.27154     0.25313
 Zero-point vibrational energy     692563.3 (Joules/Mol)
                                  165.52660 (Kcal/Mol)
 Warning -- explicit consideration of  20 degrees of freedom as
           vibrations may cause significant error
 Vibrational temperatures:     23.16    25.04    55.87    74.77    93.21
          (Kelvin)            130.84   167.78   207.58   263.71   287.03
                              372.89   404.03   437.62   493.93   555.32
                              609.57   709.09   782.08   838.05   862.45
                              903.22   948.50  1043.57  1074.66  1104.06
                             1134.40  1143.52  1147.54  1210.39  1260.00
                             1298.75  1307.27  1314.20  1364.45  1428.74
                             1469.10  1500.12  1519.62  1534.44  1558.83
                             1590.18  1633.47  1643.40  1667.22  1674.07
                             1684.98  1697.44  1707.70  1747.47  1749.27
                             1785.83  1800.79  1831.76  1864.12  1876.48
                             1892.20  1953.17  1983.34  2003.68  2045.59
                             2075.09  2090.66  2134.55  2152.41  2175.36
                             2203.64  2209.99  2213.85  2239.22  2560.22
                             2663.47  4368.97  4402.57  4421.40  4438.85
                             4451.64  4468.44  4482.54  4494.31  4516.50
                             4526.60  4531.67  4546.46  4625.01  4646.90
                             5159.53  5301.02

 Zero-point correction=                           0.263783 (Hartree/Particle)
 Thermal correction to Energy=                    0.278909
 Thermal correction to Enthalpy=                  0.279853
 Thermal correction to Gibbs Free Energy=         0.217535
 Sum of electronic and zero-point Energies=           -725.629990
 Sum of electronic and thermal Energies=              -725.614865
 Sum of electronic and thermal Enthalpies=            -725.613921
 Sum of electronic and thermal Free Energies=         -725.676239

                     E (Thermal)             CV                S
                      KCal/Mol        Cal/Mol-Kelvin    Cal/Mol-Kelvin
 Total                  175.018             55.028            131.160
 Electronic               0.000              0.000              0.000
 Translational            0.889              2.981             41.959
 Rotational               0.889              2.981             32.702
 Vibrational            173.240             49.067             56.498
 Vibration     1          0.593              1.986              7.065
 Vibration     2          0.593              1.986              6.911
 Vibration     3          0.594              1.981              5.318
 Vibration     4          0.596              1.977              4.741
 Vibration     5          0.597              1.971              4.306
 Vibration     6          0.602              1.956              3.640
 Vibration     7          0.608              1.936              3.156
 Vibration     8          0.616              1.909              2.746
 Vibration     9          0.631              1.863              2.295
 Vibration    10          0.638              1.841              2.138
 Vibration    11          0.668              1.747              1.667
 Vibration    12          0.680              1.709              1.529
 Vibration    13          0.695              1.666              1.394
 Vibration    14          0.722              1.589              1.197
 Vibration    15          0.755              1.500              1.016
 Vibration    16          0.786              1.419              0.880
 Vibration    17          0.849              1.266              0.676
 Vibration    18          0.899              1.154              0.558
 Vibration    19          0.939              1.069              0.481
 Vibration    20          0.958              1.033              0.451

                           ! Non-Optimized Parameters !
 Normal termination of Gaussian 16 at Thu Dec 10 16:34:16 2020.

 ----------------------------------------------------------------------
 # B3LYP/6-311++G(d,p) empiricaldispersion=gd3bj scf=xqc pop=npa geom=c
 heck
 ----------------------------------------------------------------------

 --------------------------------------
 CID_65961737_JID_5505_Energie_neutraal
 --------------------------------------
 Structure from the checkpoint file:  "JID_5505.chk"
 Charge =  0 Multiplicity = 1

 SCF Done:  E(RB3LYP) =  -726.114416665     A.U. after   14 cycles
 Normal termination of Gaussian 16 at Thu Dec 10 16:38:34 2020.

 ----------------------------------------------------------------------
 # B3LYP/6-311++G(d,p) empiricaldispersion=gd3bj scf=xqc pop=npa geom=c
 heck
 ----------------------------------------------------------------------

 ------------------------------------
 CID_65961737_JID_5505_Energie_kation
 ------------------------------------
 Structure from the checkpoint file:  "JID_5505.chk"
 Charge =  1 Multiplicity = 2

 SCF Done:  E(UB3LYP) =  -725.793649990     A.U. after   29 cycles
 Normal termination of Gaussian 16 at Thu Dec 10 16:53:02 2020.
 Gaussian 16:  ES64L-G16RevA.03 25-Dec-2016

 ----------------------------------------------------------------------
 # B3LYP/6-311++G(d,p) empiricaldispersion=gd3bj scf=xqc pop=npa geom=c
 heck
 ----------------------------------------------------------------------

 -----------------------------------
 CID_65961737_JID_5505_Energie_anion
 -----------------------------------
 Structure from the checkpoint file:  "JID_5505.chk"
 Charge = -1 Multiplicity = 2

                         Standard orientation:
 ---------------------------------------------------------------------
 Center     Atomic      Atomic             Coordinates (Angstroms)
 Number     Number       Type             X           Y           Z
 ---------------------------------------------------------------------
      1          6           0       -4.627159   -0.533499   -0.123397
      2          6           0       -4.291484   -1.395982    1.070547
      3          6           0       -3.238885   -0.499594    0.473358
      4          6           0       -2.073467   -1.087025   -0.295555
      5          6           0       -1.591724   -0.169431   -1.429401
      6          7           0       -1.269337    1.196978   -1.001626
      7          6           0       -0.398213    1.474705    0.043944
      8          8           0       -0.593762    2.387452    0.840648
      9          7           0        0.719088    0.664985    0.122324
     10          6           0        1.883287    1.069354    0.932199
     11          6           0        2.817592    0.476134   -0.147160
     12          6           0        1.545821    0.189328   -1.004309
     13          6           0        3.573768   -0.762381    0.257955
     14          8           0        3.549228   -1.295796    1.343721
     15          8           0        4.294666   -1.249130   -0.783679
     16          1           0       -5.280909    0.321539    0.023976
     17          1           0       -4.754729   -1.028578   -1.083516
     18          1           0       -4.712746   -1.127411    2.035024
     19          1           0       -4.195374   -2.467137    0.911272
     20          1           0       -2.990271    0.387897    1.051971
     21          1           0       -1.238920   -1.283622    0.388598
     22          1           0       -2.362640   -2.052805   -0.732672
     23          1           0       -0.727076   -0.612061   -1.933268
     24          1           0       -2.376342   -0.072326   -2.186695
     25          1           0       -2.083389    1.793449   -0.909566
     26          1           0        1.948688    2.153283    1.058793
     27          1           0        1.938508    0.574754    1.904378
     28          1           0        3.506019    1.182217   -0.616402
     29          1           0        1.389138   -0.861527   -1.269040
     30          1           0        1.458528    0.804876   -1.905952
     31          1           0        4.734991   -2.056151   -0.456373
 ---------------------------------------------------------------------

 SCF Done:  E(UB3LYP) =  -726.105550608     A.U. after   33 cycles
 SCF Done:  E(UB3LYP) =  -726.105550608     a.u. after    1 cycles

 The electronic state is 2-A.
 Alpha  occ. eigenvalues --  -19.07183 -19.02199 -18.99126 -14.24008 -14.23532
 Alpha  occ. eigenvalues --  -10.21077 -10.19663 -10.12423 -10.11376 -10.11310
 Alpha  occ. eigenvalues --  -10.10567 -10.09315 -10.08949 -10.08770 -10.08079
 Alpha  occ. eigenvalues --   -1.01398  -0.95634  -0.92667  -0.86422  -0.82693
 Alpha  occ. eigenvalues --   -0.77719  -0.69272  -0.66292  -0.60678  -0.58515
 Alpha  occ. eigenvalues --   -0.56065  -0.51958  -0.49801  -0.48114  -0.45866
 Alpha  occ. eigenvalues --   -0.43815  -0.42469  -0.41449  -0.39763  -0.39405
 Alpha  occ. eigenvalues --   -0.37872  -0.37248  -0.35889  -0.34205  -0.33815
 Alpha  occ. eigenvalues --   -0.32425  -0.31911  -0.31372  -0.30357  -0.28744
 Alpha  occ. eigenvalues --   -0.28452  -0.27943  -0.27337  -0.25909  -0.24888
 Alpha  occ. eigenvalues --   -0.23245  -0.21289  -0.20456  -0.19129  -0.18360
 Alpha  occ. eigenvalues --   -0.15921  -0.15552   0.04044
 Alpha virt. eigenvalues --    0.05701   0.06893   0.07060   0.07487   0.08590
 Alpha virt. eigenvalues --    0.08627   0.09540   0.09820   0.10285   0.11041
 Alpha virt. eigenvalues --    0.11555   0.11722   0.12419   0.12621   0.13262

  Beta  occ. eigenvalues --  -19.07118 -19.02157 -18.99121 -14.24007 -14.23526
  Beta  occ. eigenvalues --  -10.21042 -10.19663 -10.12375 -10.11353 -10.11305
  Beta  occ. eigenvalues --  -10.10546 -10.09315 -10.08943 -10.08748 -10.08066
  Beta  occ. eigenvalues --   -1.01294  -0.95626  -0.92569  -0.86409  -0.82678
  Beta  occ. eigenvalues --   -0.77707  -0.69221  -0.66258  -0.60623  -0.58423
  Beta  occ. eigenvalues --   -0.56014  -0.51918  -0.49730  -0.48062  -0.45806
  Beta  occ. eigenvalues --   -0.43772  -0.42417  -0.41426  -0.39730  -0.39339
  Beta  occ. eigenvalues --   -0.37811  -0.37187  -0.35822  -0.34169  -0.33760
  Beta  occ. eigenvalues --   -0.32394  -0.31881  -0.31337  -0.30312  -0.28704
  Beta  occ. eigenvalues --   -0.28427  -0.27909  -0.27301  -0.25882  -0.24849
  Beta  occ. eigenvalues --   -0.23099  -0.21274  -0.20440  -0.19061  -0.18342
  Beta  occ. eigenvalues --   -0.15908  -0.15538
  Beta virt. eigenvalues --    0.06166   0.06926   0.07360   0.07607   0.08172
  Beta virt. eigenvalues --    0.08902   0.09007   0.09842   0.10191   0.10543
  Beta virt. eigenvalues --    0.11262   0.11853   0.11869   0.12610   0.12736

 Mulliken charges and spin densities:
               1          2
     1  C    0.309786  -0.813591
     2  C   -0.065323  -0.240458
     3  C   -0.813798   0.965004
     4  C    0.776435  -1.126597
     5  C   -0.175437  -0.262046
     6  N   -0.106661  -0.014980
     7  C   -0.025435  -0.057321
     8  O   -0.354285   0.004683
     9  N    0.014059   0.081549
    10  C   -0.145537  -0.495178
    11  C    0.831828  -0.281699
    12  C    0.251843  -0.773709
    13  C    0.258227  -0.499195
    14  O   -0.274829   0.003558
    15  O   -0.162099   0.035027
    16  H   -0.005166   0.141748
    17  H   -0.118725   0.270964
    18  H    0.118431   0.009477
    19  H    0.039214   0.090603
    20  H    0.204665   0.059417
    21  H    0.107436   0.077737
    22  H   -0.273627   0.429366
    23  H   -0.302891   0.491798
    24  H   -0.396383   0.579123
    25  H    0.222008   0.086094
    26  H    0.190978  -0.024636
    27  H    0.148625   0.057172
    28  H   -0.483247   0.760774
    29  H   -0.015911   0.202875
    30  H   -0.295181   0.490241
    31  H   -0.458999   0.752199
 Sum of Mulliken charges =  -1.00000   1.00000

 Dipole moment (field-independent basis, Debye):
    X=             -4.7583    Y=              2.1546    Z=              3.3878  Tot=              6.2258
 Quadrupole moment (field-independent basis, Debye-Ang):
   XX=           -175.9574   YY=           -132.8034   ZZ=           -128.8270
   XY=              9.9757   XZ=             -0.6089   YZ=             -4.8496

 Summary of Natural Population Analysis:

                                       Natural Population
                Natural  -----------------------------------------------
    Atom  No    Charge         Core      Valence    Rydberg      Total
 -----------------------------------------------------------------------
      C    1   -0.20284      0.99962     2.19390    0.00932     3.20284
      C    2   -0.19697      0.99962     2.18980    0.00755     3.19697
      C    3   -0.12030      0.99959     2.11063    0.01008     3.12030
      C    4   -0.19988      0.99961     2.19075    0.00953     3.19988
      C    5   -0.08853      0.99961     2.07664    0.01228     3.08853
      N    6   -0.33248      0.99969     2.82262    0.01017     3.83248
      C    7    0.40997      0.99966     1.56625    0.02412     2.59003
      O    8   -0.33702      0.99988     3.33238    0.00476     4.33702
      N    9   -0.27584      0.99965     2.76645    0.00974     3.77584
      C   10   -0.07068      0.99964     2.06058    0.01046     3.07068
      C   11   -0.16475      0.99954     2.15378    0.01144     3.16475
      C   12   -0.06601      0.99963     2.05619    0.01018     3.06601
      C   13    0.41095      0.99969     1.56377    0.02560     2.58905
      O   14   -0.30336      0.99987     3.29729    0.00620     4.30336
      O   15   -0.34302      0.99988     3.33648    0.00667     4.34302
      H   16    0.10086      0.00000     0.39836    0.00079     0.39914
      H   17    0.10336      0.00000     0.39545    0.00120     0.39664
      H   18    0.09949      0.00000     0.39975    0.00076     0.40051
      H   19    0.10099      0.00000     0.39816    0.00085     0.39901
      H   20    0.10793      0.00000     0.39090    0.00117     0.39207
      H   21    0.10522      0.00000     0.39333    0.00144     0.39478
      H   22    0.10152      0.00000     0.39702    0.00146     0.39848
      H   23    0.09895      0.00000     0.39941    0.00165     0.40105
      H   24    0.09895      0.00000     0.39948    0.00157     0.40105
      H   25    0.19111      0.00000     0.30678    0.00211     0.30889
      H   26    0.10181      0.00000     0.39721    0.00098     0.39819
      H   27    0.10483      0.00000     0.39408    0.00108     0.39517
      H   28    0.11933      0.00000     0.37873    0.00194     0.38067
      H   29    0.09971      0.00000     0.39839    0.00190     0.40029
      H   30    0.10203      0.00000     0.39596    0.00201     0.39797
      H   31    0.24467      0.00000     0.23541    0.01992     0.25533
 =======================================================================
   * Total *    0.00000     14.99517    41.79593    0.20890    57.00000

 Normal termination of Gaussian 16 at Thu Dec 10 17:15:47 2020.
