 Gaussian 16, Revision A.03,

 -----------------------------------------------------------
 # opt freq B3LYP/6-31G(d) empiricaldispersion=gd3bj scf=xqc
 -----------------------------------------------------------

 --------------------------------
 CID_136809013_JID_10767_neutraal
 --------------------------------
 Symbolic Z-matrix:
 Charge =  0 Multiplicity = 1

 SCF Done:  E(RB3LYP) =  -907.621058115     A.U. after   15 cycles
 SCF Done:  E(RB3LYP) =  -907.627955096     A.U. after   13 cycles
 SCF Done:  E(RB3LYP) =  -907.628739542     A.U. after   12 cycles
 SCF Done:  E(RB3LYP) =  -907.629160351     A.U. after   12 cycles
 SCF Done:  E(RB3LYP) =  -907.629646968     A.U. after   13 cycles
 SCF Done:  E(RB3LYP) =  -907.629909389     A.U. after   12 cycles
 SCF Done:  E(RB3LYP) =  -907.630472898     A.U. after   12 cycles
 SCF Done:  E(RB3LYP) =  -907.630741821     A.U. after   12 cycles
 SCF Done:  E(RB3LYP) =  -907.630953491     A.U. after   12 cycles
 SCF Done:  E(RB3LYP) =  -907.631067837     A.U. after   11 cycles
 SCF Done:  E(RB3LYP) =  -907.631397437     A.U. after    9 cycles
 SCF Done:  E(RB3LYP) =  -907.631398768     A.U. after    9 cycles
 SCF Done:  E(RB3LYP) =  -907.631399354     A.U. after    9 cycles
 SCF Done:  E(RB3LYP) =  -907.631399596     A.U. after    8 cycles
 SCF Done:  E(RB3LYP) =  -907.631399480     A.U. after    8 cycles
 Optimization completed.
    -- Stationary point found.
 Normal termination of Gaussian 16 at Mon Dec 14 17:55:05 2020.

 --------------------------------------------------------------------
 #N Geom=AllCheck Guess=TCheck SCRF=Check GenChk RB3LYP/6-31G(d) Freq
 --------------------------------------------------------------------

 Structure from the checkpoint file:  "JID_10767.chk"
 --------------------------------
 CID_136809013_JID_10767_neutraal
 --------------------------------
 Charge =  0 Multiplicity = 1

 SCF Done:  E(RB3LYP) =  -907.631399480     A.U. after    1 cycles

  Exact polarizability: 254.796 -28.764 157.077 -30.215 -10.495 126.614
 Approx polarizability: 353.301 -55.374 287.690 -55.574 -33.039 217.673

                      1                      2                      3
                      A                      A                      A
 Frequencies --     16.8413                21.2433                34.4611
 Red. masses --      6.2679                 5.3733                 4.0006
 Frc consts  --      0.0010                 0.0014                 0.0028
 IR Inten    --      0.7439                 0.0862                 0.2290

                      4                      5                      6
                      A                      A                      A
 Frequencies --     63.0053                80.4769               142.4801
 Red. masses --      1.1395                 5.4212                 5.7496
 Frc consts  --      0.0027                 0.0207                 0.0688
 IR Inten    --      0.2332                 3.0922                 2.4477

                      7                      8                      9
                      A                      A                      A
 Frequencies --    150.1288               158.3704               181.9207
 Red. masses --      4.7274                 4.4847                 5.5378
 Frc consts  --      0.0628                 0.0663                 0.1080
 IR Inten    --      1.8242                 5.7065                 1.0807

                     10                     11                     12
                      A                      A                      A
 Frequencies --    203.3299               210.8718               231.8078
 Red. masses --      3.0700                 5.2763                 4.7444
 Frc consts  --      0.0748                 0.1382                 0.1502
 IR Inten    --      5.0293                 1.2909                 3.9684

                     13                     14                     15
                      A                      A                      A
 Frequencies --    271.9234               283.5540               313.0209
 Red. masses --      2.6193                 1.0628                 3.9839
 Frc consts  --      0.1141                 0.0503                 0.2300
 IR Inten    --      1.5773                25.8037                13.6440

                     16                     17                     18
                      A                      A                      A
 Frequencies --    365.8593               389.1995               403.7498
 Red. masses --      4.1093                 4.4123                 4.4958
 Frc consts  --      0.3241                 0.3938                 0.4318
 IR Inten    --      2.8910                 3.8969                 8.6237

                     19                     20                     21
                      A                      A                      A
 Frequencies --    438.8606               459.1481               511.9082
 Red. masses --      3.6729                 4.0280                 5.1619
 Frc consts  --      0.4168                 0.5003                 0.7970
 IR Inten    --      1.6476                 7.3478                 5.2714

                     22                     23                     24
                      A                      A                      A
 Frequencies --    527.0665               546.2865               570.9345
 Red. masses --      5.7387                 2.0155                 7.6872
 Frc consts  --      0.9393                 0.3544                 1.4764
 IR Inten    --      4.4337                22.5141                14.3233

                     25                     26                     27
                      A                      A                      A
 Frequencies --    594.0275               603.1418               631.1832
 Red. masses --      4.9839                 1.6176                 4.6540
 Frc consts  --      1.0362                 0.3467                 1.0924
 IR Inten    --     18.9737               291.5871                 5.5869

                     28                     29                     30
                      A                      A                      A
 Frequencies --    635.3281               646.3526               661.6329
 Red. masses --      2.4643                 2.1381                 3.7289
 Frc consts  --      0.5860                 0.5263                 0.9618
 IR Inten    --    116.5688               154.2158                18.7544

                     31                     32                     33
                      A                      A                      A
 Frequencies --    662.7375               711.8721               728.9191
 Red. masses --      3.5197                 5.1070                 4.0940
 Frc consts  --      0.9108                 1.5248                 1.2816
 IR Inten    --      5.9647                34.3963                19.3077

                     34                     35                     36
                      A                      A                      A
 Frequencies --    744.1013               766.2274               787.8752
 Red. masses --      3.5058                 2.1150                 5.0654
 Frc consts  --      1.1437                 0.7316                 1.8526
 IR Inten    --     12.7707                67.7408                13.9233

                     37                     38                     39
                      A                      A                      A
 Frequencies --    801.4826               817.0558               844.4275
 Red. masses --      4.0807                 1.2058                 1.6258
 Frc consts  --      1.5445                 0.4743                 0.6830
 IR Inten    --     69.3371                31.5392                37.9283

                     40                     41                     42
                      A                      A                      A
 Frequencies --    861.0912               884.5455               896.4729
 Red. masses --      4.7587                 1.3055                 1.4924
 Frc consts  --      2.0789                 0.6018                 0.7067
 IR Inten    --      9.2493                 1.4727                12.9853

                     43                     44                     45
                      A                      A                      A
 Frequencies --    950.9487               958.6827               959.4657
 Red. masses --      4.2268                 1.3942                 4.1110
 Frc consts  --      2.2521                 0.7550                 2.2298
 IR Inten    --      2.9859                 1.9734                 6.6617

                     46                     47                     48
                      A                      A                      A
 Frequencies --    992.1804              1025.8812              1044.4851
 Red. masses --      2.7185                 2.1079                 2.4730
 Frc consts  --      1.5767                 1.3071                 1.5896
 IR Inten    --     11.9667                32.1038                 3.8530

                     49                     50                     51
                      A                      A                      A
 Frequencies --   1082.4273              1115.8523              1121.1207
 Red. masses --      1.4689                 2.6828                 1.4750
 Frc consts  --      1.0140                 1.9681                 1.0923
 IR Inten    --      2.5575                 6.2585                 2.0299

                     52                     53                     54
                      A                      A                      A
 Frequencies --   1135.3123              1157.2459              1173.7225
 Red. masses --      2.8310                 1.2966                 1.3475
 Frc consts  --      2.1499                 1.0231                 1.0938
 IR Inten    --     51.6243                 0.5732                16.0806

                     55                     56                     57
                      A                      A                      A
 Frequencies --   1182.7815              1240.8882              1253.2732
 Red. masses --      2.1305                 1.5502                 2.4969
 Frc consts  --      1.7560                 1.4064                 2.3107
 IR Inten    --      9.9326                 8.8145                13.3147

                     58                     59                     60
                      A                      A                      A
 Frequencies --   1268.7594              1272.8529              1323.4116
 Red. masses --      1.7754                 1.7675                 2.4177
 Frc consts  --      1.6839                 1.6872                 2.4948
 IR Inten    --      6.1174                44.8983                37.3463

                     61                     62                     63
                      A                      A                      A
 Frequencies --   1331.9592              1340.0141              1345.6816
 Red. masses --      4.3595                 2.4499                 2.2806
 Frc consts  --      4.5569                 2.5919                 2.4332
 IR Inten    --      6.6483                36.6988               106.5350

                     64                     65                     66
                      A                      A                      A
 Frequencies --   1373.1338              1393.1962              1395.6372
 Red. masses --      3.1230                 5.3847                 2.0587
 Frc consts  --      3.4694                 6.1580                 2.3626
 IR Inten    --     15.4469                66.2781                11.8513

                     67                     68                     69
                      A                      A                      A
 Frequencies --   1444.5421              1471.4160              1476.0292
 Red. masses --      2.4649                 2.1479                 1.5295
 Frc consts  --      3.0304                 2.7399                 1.9633
 IR Inten    --     39.7725                20.1537                 1.6913

                     70                     71                     72
                      A                      A                      A
 Frequencies --   1502.8739              1515.1145              1516.6724
 Red. masses --      1.9478                 1.4711                 1.4108
 Frc consts  --      2.5921                 1.9897                 1.9120
 IR Inten    --      4.5612                 9.7065                 1.9947

                     73                     74                     75
                      A                      A                      A
 Frequencies --   1527.7592              1535.5563              1539.9172
 Red. masses --      1.2896                 1.1921                 4.0069
 Frc consts  --      1.7734                 1.6562                 5.5983
 IR Inten    --     20.5596                13.6898                34.8675

                     76                     77                     78
                      A                      A                      A
 Frequencies --   1552.2763              1594.6938              1619.8616
 Red. masses --      3.2301                 4.7780                 6.4140
 Frc consts  --      4.5856                 7.1590                 9.9159
 IR Inten    --    368.6770                 2.4976                 6.7398

                     79                     80                     81
                      A                      A                      A
 Frequencies --   1678.4027              1686.9715              1698.8368
 Red. masses --      2.8161                 3.4271                 1.7260
 Frc consts  --      4.6740                 5.7464                 2.9349
 IR Inten    --    143.1761               460.7221               196.6634

                     82                     83                     84
                      A                      A                      A
 Frequencies --   1793.6816              3030.5582              3051.9680
 Red. masses --      9.4372                 1.0676                 1.0372
 Frc consts  --     17.8889                 5.7769                 5.6921
 IR Inten    --    436.3189                32.7214                51.0337

                     85                     86                     87
                      A                      A                      A
 Frequencies --   3069.4715              3107.0489              3178.0319
 Red. masses --      1.0950                 1.1058                 1.0888
 Frc consts  --      6.0784                 6.2897                 6.4793
 IR Inten    --     22.0482                22.9413                21.8723

                     88                     89                     90
                      A                      A                      A
 Frequencies --   3188.2305              3205.2833              3216.5631
 Red. masses --      1.0990                 1.0903                 1.0931
 Frc consts  --      6.5817                 6.5996                 6.6633
 IR Inten    --      1.6949                 8.2278                 9.6534

                     91                     92                     93
                      A                      A                      A
 Frequencies --   3260.5023              3283.8616              3548.0002
 Red. masses --      1.0936                 1.1008                 1.0480
 Frc consts  --      6.8495                 6.9942                 7.7725
 IR Inten    --      6.4731                 1.1111                17.4761

                     94                     95                     96
                      A                      A                      A
 Frequencies --   3569.9454              3608.9616              3646.7892
 Red. masses --      1.0749                 1.0767                 1.0980
 Frc consts  --      8.0710                 8.2628                 8.6032
 IR Inten    --     27.2856                29.6373                 8.6520

 - Thermochemistry -
 -------------------
 Temperature   298.150 Kelvin.  Pressure   1.00000 Atm.
 Atom     1 has atomic number  6 and mass  12.00000

 Molecular mass:   270.12291 amu.
 Principal axes and moments of inertia in atomic units:
                           1         2         3
     Eigenvalues --  2341.61518********************
           X            0.99993  -0.00966  -0.00713
           Y            0.00964   0.99995  -0.00260
           Z            0.00716   0.00253   0.99997
 This molecule is an asymmetric top.
 Rotational symmetry number  1.
 Warning -- assumption of classical behavior for rotation
           may cause significant error
 Rotational temperatures (Kelvin)      0.03699     0.00805     0.00790
 Rotational constants (GHZ):           0.77072     0.16772     0.16470
 Zero-point vibrational energy     714252.3 (Joules/Mol)
                                  170.71039 (Kcal/Mol)
 Warning -- explicit consideration of  26 degrees of freedom as
           vibrations may cause significant error
 Vibrational temperatures:     24.23    30.56    49.58    90.65   115.79
          (Kelvin)            205.00   216.00   227.86   261.74   292.55
                              303.40   333.52   391.24   407.97   450.37
                              526.39   559.97   580.91   631.42   660.61
                              736.52   758.33   785.98   821.45   854.67
                              867.79   908.13   914.10   929.96   951.94
                              953.53  1024.23  1048.75  1070.60  1102.43
                             1133.58  1153.15  1175.56  1214.94  1238.92
                             1272.66  1289.82  1368.20  1379.33  1380.46
                             1427.53  1476.01  1502.78  1557.37  1605.46
                             1613.04  1633.46  1665.02  1688.72  1701.76
                             1785.36  1803.18  1825.46  1831.35  1904.09
                             1916.39  1927.98  1936.14  1975.63  2004.50
                             2008.01  2078.37  2117.04  2123.68  2162.30
                             2179.91  2182.15  2198.10  2209.32  2215.60
                             2233.38  2294.41  2330.62  2414.85  2427.18
                             2444.25  2580.71  4360.30  4391.10  4416.28
                             4470.35  4572.48  4587.15  4611.69  4627.92
                             4691.14  4724.74  5104.78  5136.36  5192.49
                             5246.92

 Zero-point correction=                           0.272044 (Hartree/Particle)
 Thermal correction to Energy=                    0.289280
 Thermal correction to Enthalpy=                  0.290224
 Thermal correction to Gibbs Free Energy=         0.224599
 Sum of electronic and zero-point Energies=           -907.359355
 Sum of electronic and thermal Energies=              -907.342120
 Sum of electronic and thermal Enthalpies=            -907.341176
 Sum of electronic and thermal Free Energies=         -907.406800

                     E (Thermal)             CV                S
                      KCal/Mol        Cal/Mol-Kelvin    Cal/Mol-Kelvin
 Total                  181.526             66.319            138.118
 Electronic               0.000              0.000              0.000
 Translational            0.889              2.981             42.680
 Rotational               0.889              2.981             33.978
 Vibrational            179.748             60.357             61.460
 Vibration     1          0.593              1.986              6.976
 Vibration     2          0.593              1.985              6.514
 Vibration     3          0.594              1.983              5.554
 Vibration     4          0.597              1.972              4.361
 Vibration     5          0.600              1.962              3.879
 Vibration     6          0.616              1.911              2.770
 Vibration     7          0.618              1.903              2.671
 Vibration     8          0.621              1.893              2.569
 Vibration     9          0.630              1.864              2.309
 Vibration    10          0.639              1.835              2.103
 Vibration    11          0.643              1.824              2.036
 Vibration    12          0.653              1.792              1.865
 Vibration    13          0.675              1.725              1.584
 Vibration    14          0.682              1.704              1.512
 Vibration    15          0.701              1.649              1.346
 Vibration    16          0.739              1.543              1.097
 Vibration    17          0.757              1.493              1.003
 Vibration    18          0.769              1.462              0.949
 Vibration    19          0.799              1.385              0.830
 Vibration    20          0.817              1.341              0.769
 Vibration    21          0.867              1.224              0.629
 Vibration    22          0.882              1.190              0.594
 Vibration    23          0.901              1.148              0.552
 Vibration    24          0.927              1.094              0.502
 Vibration    25          0.952              1.044              0.460
 Vibration    26          0.962              1.025              0.444

 Optimization completed.
    -- Stationary point found.
 Normal termination of Gaussian 16 at Mon Dec 14 18:10:06 2020.

 ----------------------------------------------------------------------
 # B3LYP/6-311++G(d,p) empiricaldispersion=gd3bj scf=xqc pop=npa geom=c
 heck
 ----------------------------------------------------------------------

 ----------------------------------------
 CID_136809013_JID_10767_Energie_neutraal
 ----------------------------------------
 Structure from the checkpoint file:  "JID_10767.chk"
 Charge =  0 Multiplicity = 1

 SCF Done:  E(RB3LYP) =  -907.884907470     A.U. after   16 cycles
 Normal termination of Gaussian 16 at Mon Dec 14 18:16:24 2020.

 ----------------------------------------------------------------------
 # B3LYP/6-311++G(d,p) empiricaldispersion=gd3bj scf=xqc pop=npa geom=c
 heck
 ----------------------------------------------------------------------

 --------------------------------------
 CID_136809013_JID_10767_Energie_kation
 --------------------------------------
 Structure from the checkpoint file:  "JID_10767.chk"
 Charge =  1 Multiplicity = 2

 SCF Done:  E(UB3LYP) =  -907.621590288     A.U. after   22 cycles
 Normal termination of Gaussian 16 at Mon Dec 14 18:27:10 2020.
 Gaussian 16:  ES64L-G16RevA.03 25-Dec-2016

 ----------------------------------------------------------------------
 # B3LYP/6-311++G(d,p) empiricaldispersion=gd3bj scf=xqc pop=npa geom=c
 heck
 ----------------------------------------------------------------------

 -------------------------------------
 CID_136809013_JID_10767_Energie_anion
 -------------------------------------
 Structure from the checkpoint file:  "JID_10767.chk"
 Charge = -1 Multiplicity = 2

                         Standard orientation:
 ---------------------------------------------------------------------
 Center     Atomic      Atomic             Coordinates (Angstroms)
 Number     Number       Type             X           Y           Z
 ---------------------------------------------------------------------
      1          6           0       -5.142371    0.951126   -0.283149
      2          7           0       -4.127988   -0.029382   -0.609437
      3          6           0       -3.009451   -0.346810    0.105322
      4          6           0       -2.354661   -1.335624   -0.610299
      5          6           0       -3.164092   -1.544237   -1.748649
      6          7           0       -4.237461   -0.755777   -1.749680
      7          6           0       -2.670211    0.315265    1.412628
      8          7           0       -1.401122   -0.123690    1.982335
      9          6           0       -0.207831    0.051942    1.296180
     10          7           0        0.694805   -0.877968    1.343692
     11          6           0        1.899312   -0.626071    0.704501
     12          6           0        2.158879    0.562436   -0.016538
     13          6           0        3.382572    0.771112   -0.662987
     14          6           0        4.380565   -0.199398   -0.612614
     15          6           0        4.124104   -1.389848    0.107324
     16          6           0        2.917603   -1.597451    0.749577
     17          7           0        5.586800   -0.042688   -1.303063
     18          6           0        1.126129    1.597822   -0.069204
     19          8           0        1.198376    2.680988   -0.633976
     20          7           0       -0.035220    1.246779    0.635020
     21          1           0       -5.877056    0.929510   -1.087407
     22          1           0       -5.635270    0.708714    0.665137
     23          1           0       -4.711118    1.956326   -0.214600
     24          1           0       -1.424584   -1.818635   -0.349212
     25          1           0       -3.008210   -2.233873   -2.567431
     26          1           0       -2.662022    1.408912    1.306076
     27          1           0       -3.440930    0.113306    2.166468
     28          1           0       -1.426573   -1.070300    2.346787
     29          1           0        3.526873    1.703135   -1.201334
     30          1           0        4.894130   -2.156985    0.147911
     31          1           0        2.729331   -2.513147    1.300577
     32          1           0        5.827030    0.918674   -1.511829
     33          1           0        6.372724   -0.535846   -0.897330
     34          1           0       -0.753320    1.959802    0.643389
 ---------------------------------------------------------------------

 SCF Done:  E(UB3LYP) =  -907.886530765     A.U. after   33 cycles
 SCF Done:  E(UB3LYP) =  -907.886530765     a.u. after    2 cycles

 The electronic state is 2-A.
 Alpha  occ. eigenvalues --  -18.96883 -14.29835 -14.25086 -14.24275 -14.23657
 Alpha  occ. eigenvalues --  -14.22509 -14.18816 -10.17982 -10.15095 -10.13789
 Alpha  occ. eigenvalues --  -10.12133 -10.12106 -10.10378 -10.09722 -10.09140
 Alpha  occ. eigenvalues --  -10.07177 -10.05885 -10.05671 -10.05426 -10.05033
 Alpha  occ. eigenvalues --   -0.95879  -0.93236  -0.89549  -0.82413  -0.82068
 Alpha  occ. eigenvalues --   -0.79078  -0.75474  -0.72465  -0.70452  -0.64821
 Alpha  occ. eigenvalues --   -0.63636  -0.61145  -0.60082  -0.55558  -0.53684
 Alpha  occ. eigenvalues --   -0.51205  -0.49425  -0.47091  -0.46471  -0.44430
 Alpha  occ. eigenvalues --   -0.43881  -0.42799  -0.40952  -0.40063  -0.38854
 Alpha  occ. eigenvalues --   -0.37138  -0.36042  -0.35625  -0.34912  -0.33443
 Alpha  occ. eigenvalues --   -0.32854  -0.31998  -0.31808  -0.31433  -0.30559
 Alpha  occ. eigenvalues --   -0.30120  -0.30040  -0.28744  -0.27247  -0.26936
 Alpha  occ. eigenvalues --   -0.24784  -0.22762  -0.20722  -0.17730  -0.17002
 Alpha  occ. eigenvalues --   -0.16183  -0.15998  -0.15457  -0.14983  -0.14764
 Alpha  occ. eigenvalues --   -0.08996   0.03656
 Alpha virt. eigenvalues --    0.05016   0.06237   0.07461   0.08367   0.08445
 Alpha virt. eigenvalues --    0.08737   0.09081   0.09458   0.09994   0.10487
 Alpha virt. eigenvalues --    0.11379   0.11570   0.12276   0.12517   0.12646

  Beta  occ. eigenvalues --  -18.96729 -14.29831 -14.25037 -14.24274 -14.23652
  Beta  occ. eigenvalues --  -14.22517 -14.18795 -10.17993 -10.14926 -10.13751
  Beta  occ. eigenvalues --  -10.12132 -10.12054 -10.10446 -10.09722 -10.09109
  Beta  occ. eigenvalues --  -10.07176 -10.05829 -10.05473 -10.05358 -10.04865
  Beta  occ. eigenvalues --   -0.95869  -0.93016  -0.89426  -0.82377  -0.82036
  Beta  occ. eigenvalues --   -0.78970  -0.75452  -0.72291  -0.70410  -0.64478
  Beta  occ. eigenvalues --   -0.63505  -0.61085  -0.59960  -0.55234  -0.53567
  Beta  occ. eigenvalues --   -0.51187  -0.49330  -0.47045  -0.46382  -0.44354
  Beta  occ. eigenvalues --   -0.43774  -0.42742  -0.40857  -0.39990  -0.38813
  Beta  occ. eigenvalues --   -0.37068  -0.36010  -0.35444  -0.34692  -0.33319
  Beta  occ. eigenvalues --   -0.32784  -0.31925  -0.31690  -0.31324  -0.30403
  Beta  occ. eigenvalues --   -0.30045  -0.29972  -0.28562  -0.26942  -0.26437
  Beta  occ. eigenvalues --   -0.24667  -0.22573  -0.20676  -0.17528  -0.16895
  Beta  occ. eigenvalues --   -0.16156  -0.15651  -0.15376  -0.14814  -0.13727
  Beta  occ. eigenvalues --   -0.08480
  Beta virt. eigenvalues --    0.06179   0.06294   0.07493   0.07925   0.08421
  Beta virt. eigenvalues --    0.08669   0.09022   0.09142   0.09552   0.10077
  Beta virt. eigenvalues --    0.10808   0.11442   0.11691   0.12475   0.12581

 Mulliken charges and spin densities:
               1          2
     1  C    0.835984  -1.136714
     2  N    0.173967   0.199602
     3  C   -1.017525   0.740849
     4  C    0.770002  -0.603730
     5  C   -0.591369   0.200771
     6  N   -0.341556   0.044699
     7  C    0.542727  -1.101583
     8  N   -0.071711   0.091168
     9  C   -0.100029  -0.140636
    10  N   -0.062717   0.035819
    11  C   -0.605367   0.068637
    12  C    0.697431   0.038089
    13  C   -0.620801   0.152246
    14  C   -0.589127  -0.036292
    15  C    0.399258   0.141144
    16  C   -0.417450   0.035797
    17  N   -0.330379  -0.002822
    18  C    0.311414   0.056277
    19  O   -0.397215   0.058687
    20  N   -0.149184   0.001872
    21  H    0.004239   0.159615
    22  H   -0.477020   0.653848
    23  H   -0.254501   0.424752
    24  H    0.219201  -0.016410
    25  H    0.131458   0.018882
    26  H    0.051824   0.092441
    27  H   -0.514688   0.738480
    28  H    0.208365   0.099996
    29  H    0.173044  -0.007481
    30  H    0.118936  -0.011797
    31  H    0.121654   0.001732
    32  H    0.224757  -0.000946
    33  H    0.214221   0.009210
    34  H    0.342158  -0.006200
 Sum of Mulliken charges =  -1.00000   1.00000

 Dipole moment (field-independent basis, Debye):
    X=              5.0980    Y=             -2.6226    Z=             -0.1553  Tot=              5.7351
 Quadrupole moment (field-independent basis, Debye-Ang):
   XX=           -191.7759   YY=           -145.4551   ZZ=           -148.3835
   XY=              3.0953   XZ=              6.5680   YZ=              1.5895

 Summary of Natural Population Analysis:

                                       Natural Population
                Natural  -----------------------------------------------
    Atom  No    Charge         Core      Valence    Rydberg      Total
 -----------------------------------------------------------------------
      C    1   -0.17602      0.99964     2.16860    0.00779     3.17602
      N    2   -0.11050      0.99962     2.59727    0.01361     3.61050
      C    3    0.07664      0.99952     1.91195    0.01189     2.92336
      C    4   -0.16580      0.99950     2.15766    0.00864     3.16580
      C    5   -0.01364      0.99964     2.00036    0.01364     3.01364
      N    6   -0.15582      0.99974     2.64457    0.01152     3.65582
      C    7   -0.10380      0.99958     2.09260    0.01163     3.10380
      N    8   -0.31846      0.99968     2.80799    0.01079     3.81846
      C    9    0.30984      0.99960     1.67337    0.01719     2.69016
      N   10   -0.28653      0.99964     2.77760    0.00929     3.78653
      C   11    0.08122      0.99946     1.90727    0.01205     2.91878
      C   12   -0.07287      0.99945     2.06554    0.00788     3.07287
      C   13   -0.07377      0.99951     2.06606    0.00820     3.07377
      C   14    0.05993      0.99950     1.93098    0.00959     2.94007
      C   15   -0.07919      0.99954     2.07124    0.00841     3.07919
      C   16   -0.09043      0.99954     2.08201    0.00888     3.09043
      N   17   -0.40505      0.99972     2.89519    0.01013     3.90505
      C   18    0.35556      0.99961     1.62273    0.02209     2.64444
      O   19   -0.31105      0.99988     3.30565    0.00552     4.31105
      N   20   -0.30667      0.99963     2.79937    0.00767     3.80667
      H   21    0.11047      0.00000     0.38801    0.00151     0.38953
      H   22    0.10195      0.00000     0.39550    0.00254     0.39805
      H   23    0.09965      0.00000     0.39873    0.00162     0.40035
      H   24    0.11796      0.00000     0.38101    0.00103     0.38204
      H   25    0.09635      0.00000     0.40293    0.00072     0.40365
      H   26    0.09932      0.00000     0.39880    0.00189     0.40068
      H   27    0.11347      0.00000     0.38406    0.00247     0.38653
      H   28    0.19323      0.00000     0.30386    0.00292     0.30677
      H   29    0.10382      0.00000     0.39500    0.00117     0.39618
      H   30    0.09192      0.00000     0.40719    0.00089     0.40808
      H   31    0.09816      0.00000     0.40037    0.00147     0.40184
      H   32    0.18178      0.00000     0.31710    0.00112     0.31822
      H   33    0.17856      0.00000     0.31983    0.00161     0.32144
      H   34    0.19980      0.00000     0.29756    0.00264     0.30020
 =======================================================================
   * Total *    0.00002     19.99200    50.76798    0.24000    70.99998

 Normal termination of Gaussian 16 at Mon Dec 14 18:57:25 2020.
