 Gaussian 16, Revision A.03,

 -----------------------------------------------------------
 # opt freq B3LYP/6-31G(d) empiricaldispersion=gd3bj scf=xqc
 -----------------------------------------------------------

 -------------------------------
 CID_131010823_JID_3002_neutraal
 -------------------------------
 Symbolic Z-matrix:
 Charge =  0 Multiplicity = 1

 SCF Done:  E(RB3LYP) =  -986.491587381     A.U. after   15 cycles
 SCF Done:  E(RB3LYP) =  -986.494041691     A.U. after   14 cycles
 SCF Done:  E(RB3LYP) =  -986.493590852     A.U. after   14 cycles
 SCF Done:  E(RB3LYP) =  -986.495608784     A.U. after   13 cycles
 SCF Done:  E(RB3LYP) =  -986.498505737     A.U. after   14 cycles
 SCF Done:  E(RB3LYP) =  -986.433980020     A.U. after   15 cycles
 SCF Done:  E(RB3LYP) =  -986.500758282     A.U. after   14 cycles
 SCF Done:  E(RB3LYP) =  -986.503548187     A.U. after   14 cycles
 SCF Done:  E(RB3LYP) =  -986.495562639     A.U. after   14 cycles
 SCF Done:  E(RB3LYP) =  -986.505148392     A.U. after   13 cycles
 SCF Done:  E(RB3LYP) =  -986.506035310     A.U. after   13 cycles
 SCF Done:  E(RB3LYP) =  -986.506097120     A.U. after   12 cycles
 SCF Done:  E(RB3LYP) =  -986.506107314     A.U. after   10 cycles
 SCF Done:  E(RB3LYP) =  -986.506108335     A.U. after    8 cycles
 SCF Done:  E(RB3LYP) =  -986.506108517     A.U. after    8 cycles
 SCF Done:  E(RB3LYP) =  -986.506108537     A.U. after    7 cycles
 Optimization completed.
    -- Stationary point found.
 Normal termination of Gaussian 16 at Wed Dec  9 22:22:56 2020.

 --------------------------------------------------------------------
 #N Geom=AllCheck Guess=TCheck SCRF=Check GenChk RB3LYP/6-31G(d) Freq
 --------------------------------------------------------------------

 Structure from the checkpoint file:  "JID_3002.chk"
 -------------------------------
 CID_131010823_JID_3002_neutraal
 -------------------------------
 Charge =  0 Multiplicity = 1

 SCF Done:  E(RB3LYP) =  -986.506108537     A.U. after    1 cycles

  Exact polarizability: 159.130  -7.574 140.559   0.000  -0.000  43.749
 Approx polarizability: 268.047 -23.621 249.220   0.001  -0.000  68.755

                      1                      2                      3
                      A                      A                      A
 Frequencies --     42.9775                67.7315               117.4494
 Red. masses --      9.9402                10.4551                 6.3071
 Frc consts  --      0.0108                 0.0283                 0.0513
 IR Inten    --      0.7537                 2.4319                 1.0931

                      4                      5                      6
                      A                      A                      A
 Frequencies --    138.1163               202.7698               213.6731
 Red. masses --     12.3691                 7.3308                 8.5435
 Frc consts  --      0.1390                 0.1776                 0.2298
 IR Inten    --      7.8820                 0.6465                 0.3009

                      7                      8                      9
                      A                      A                      A
 Frequencies --    272.5233               291.5045               326.3376
 Red. masses --      9.1694                 5.6281                11.5520
 Frc consts  --      0.4012                 0.2818                 0.7248
 IR Inten    --      0.5213                 3.1670                 0.4485

                     10                     11                     12
                      A                      A                      A
 Frequencies --    362.0711               390.8480               413.8878
 Red. masses --      1.1286                 9.2021                11.7288
 Frc consts  --      0.0872                 0.8282                 1.1838
 IR Inten    --     14.6535                 5.5045                 1.4619

                     13                     14                     15
                      A                      A                      A
 Frequencies --    438.7226               482.6626               485.8404
 Red. masses --      4.4963                 1.1117                 8.0523
 Frc consts  --      0.5099                 0.1526                 1.1198
 IR Inten    --      5.9333               124.3935                 1.0657

                     16                     17                     18
                      A                      A                      A
 Frequencies --    550.0965               555.8694               575.8316
 Red. masses --      6.3591                 2.1473                 3.8198
 Frc consts  --      1.1338                 0.3909                 0.7462
 IR Inten    --     45.7907                13.4432                26.9778

                     19                     20                     21
                      A                      A                      A
 Frequencies --    628.3409               629.7722               651.3568
 Red. masses --      2.1923                 6.3964                 5.2651
 Frc consts  --      0.5100                 1.4947                 1.3161
 IR Inten    --     57.5485                18.2468                30.4613

                     22                     23                     24
                      A                      A                      A
 Frequencies --    732.0496               739.8529               780.7811
 Red. masses --      5.1533                 5.4618                 6.7158
 Frc consts  --      1.6271                 1.7615                 2.4122
 IR Inten    --     14.1740                13.0863                39.2827

                     25                     26                     27
                      A                      A                      A
 Frequencies --    853.2271               853.3970               964.6082
 Red. masses --      1.5589                 4.2046                 5.5965
 Frc consts  --      0.6687                 1.8042                 3.0681
 IR Inten    --     14.2065                 0.8317                34.9631

                     28                     29                     30
                      A                      A                      A
 Frequencies --   1004.7335              1044.3549              1137.9824
 Red. masses --      1.3106                 1.3349                 2.7060
 Frc consts  --      0.7795                 0.8578                 2.0647
 IR Inten    --      0.2397                 9.4163                94.9260

                     31                     32                     33
                      A                      A                      A
 Frequencies --   1176.9812              1201.6357              1231.1796
 Red. masses --      2.3137                 1.4287                 2.2805
 Frc consts  --      1.8884                 1.2154                 2.0367
 IR Inten    --     67.4471                22.1920               238.2244

                     34                     35                     36
                      A                      A                      A
 Frequencies --   1273.6538              1347.9546              1367.3670
 Red. masses --      2.6584                 2.3661                 4.5174
 Frc consts  --      2.5408                 2.5330                 4.9764
 IR Inten    --    143.3372                 7.7733                 9.9599

                     37                     38                     39
                      A                      A                      A
 Frequencies --   1397.4778              1447.0241              1508.9033
 Red. masses --      3.1679                 4.2623                 3.7397
 Frc consts  --      3.6451                 5.2583                 5.0166
 IR Inten    --    172.0714                79.6075                86.3501

                     40                     41                     42
                      A                      A                      A
 Frequencies --   1631.9474              1642.5538              1812.8895
 Red. masses --      5.0210                 6.7001                 9.8593
 Frc consts  --      7.8787                10.6505                19.0915
 IR Inten    --    104.2311               162.0981               384.0217

                     43                     44                     45
                      A                      A                      A
 Frequencies --   2320.4242              2685.1782              3230.9658
 Red. masses --     12.6239                 1.0379                 1.0883
 Frc consts  --     40.0478                 4.4089                 6.6938
 IR Inten    --     45.4201                 3.7660                 0.3501

                     46                     47                     48
                      A                      A                      A
 Frequencies --   3242.6837              3673.8777              3693.1680
 Red. masses --      1.0953                 1.0656                 1.0641
 Frc consts  --      6.7857                 8.4743                 8.5514
 IR Inten    --      1.7880                78.3551                96.9786

 - Thermochemistry -
 -------------------
 Temperature   298.150 Kelvin.  Pressure   1.00000 Atm.
 Atom     1 has atomic number  6 and mass  12.00000

 Molecular mass:   194.99901 amu.
 Principal axes and moments of inertia in atomic units:
                           1         2         3
     Eigenvalues --  1611.359543089.238994700.59853
           X            0.99995   0.01044  -0.00000
           Y           -0.01044   0.99995  -0.00000
           Z            0.00000   0.00000   1.00000
 This molecule is an asymmetric top.
 Rotational symmetry number  1.
 Warning -- assumption of classical behavior for rotation
           may cause significant error
 Rotational temperatures (Kelvin)      0.05375     0.02804     0.01843
 Rotational constants (GHZ):           1.12001     0.58420     0.38394
 Zero-point vibrational energy     310043.6 (Joules/Mol)
                                   74.10219 (Kcal/Mol)
 Warning -- explicit consideration of  18 degrees of freedom as
           vibrations may cause significant error
 Vibrational temperatures:     61.84    97.45   168.98   198.72   291.74
          (Kelvin)            307.43   392.10   419.41   469.53   520.94
                              562.34   595.49   631.22   694.44   699.02
                              791.47   799.77   828.49   904.04   906.10
                              937.16  1053.26  1064.48  1123.37  1227.60
                             1227.85  1387.86  1445.59  1502.59  1637.30
                             1693.41  1728.89  1771.39  1832.50  1939.41
                             1967.34  2010.66  2081.94  2170.98  2348.01
                             2363.27  2608.34  3338.57  3863.37  4648.64
                             4665.50  5285.89  5313.65

 Zero-point correction=                           0.118089 (Hartree/Particle)
 Thermal correction to Energy=                    0.129634
 Thermal correction to Enthalpy=                  0.130579
 Thermal correction to Gibbs Free Energy=         0.079901
 Sum of electronic and zero-point Energies=           -986.388019
 Sum of electronic and thermal Energies=              -986.376474
 Sum of electronic and thermal Enthalpies=            -986.375530
 Sum of electronic and thermal Free Energies=         -986.426207

                     E (Thermal)             CV                S
                      KCal/Mol        Cal/Mol-Kelvin    Cal/Mol-Kelvin
 Total                   81.347             43.222            106.660
 Electronic               0.000              0.000              0.000
 Translational            0.889              2.981             41.709
 Rotational               0.889              2.981             31.526
 Vibrational             79.569             37.261             33.425
 Vibration     1          0.595              1.980              5.117
 Vibration     2          0.598              1.970              4.218
 Vibration     3          0.608              1.935              3.142
 Vibration     4          0.614              1.915              2.830
 Vibration     5          0.639              1.836              2.108
 Vibration     6          0.644              1.820              2.012
 Vibration     7          0.676              1.724              1.580
 Vibration     8          0.687              1.690              1.465
 Vibration     9          0.710              1.623              1.278
 Vibration    10          0.736              1.550              1.113
 Vibration    11          0.759              1.490              0.997
 Vibration    12          0.777              1.440              0.913
 Vibration    13          0.799              1.386              0.831
 Vibration    14          0.839              1.289              0.703
 Vibration    15          0.842              1.281              0.694
 Vibration    16          0.905              1.139              0.544
 Vibration    17          0.911              1.127              0.532
 Vibration    18          0.932              1.084              0.493

 Optimization completed.
    -- Stationary point found.
 Normal termination of Gaussian 16 at Wed Dec  9 22:27:02 2020.

 ----------------------------------------------------------------------
 # B3LYP/6-311++G(d,p) empiricaldispersion=gd3bj scf=xqc pop=npa geom=c
 heck
 ----------------------------------------------------------------------

 ---------------------------------------
 CID_131010823_JID_3002_Energie_neutraal
 ---------------------------------------
 Structure from the checkpoint file:  "JID_3002.chk"
 Charge =  0 Multiplicity = 1

 SCF Done:  E(RB3LYP) =  -986.713026784     A.U. after   16 cycles
 Normal termination of Gaussian 16 at Wed Dec  9 22:28:25 2020.

 ----------------------------------------------------------------------
 # B3LYP/6-311++G(d,p) empiricaldispersion=gd3bj scf=xqc pop=npa geom=c
 heck
 ----------------------------------------------------------------------

 -------------------------------------
 CID_131010823_JID_3002_Energie_kation
 -------------------------------------
 Structure from the checkpoint file:  "JID_3002.chk"
 Charge =  1 Multiplicity = 2

 SCF Done:  E(UB3LYP) =  -986.389865266     A.U. after   28 cycles
 Normal termination of Gaussian 16 at Wed Dec  9 22:31:48 2020.
 Gaussian 16:  ES64L-G16RevA.03 25-Dec-2016

 ----------------------------------------------------------------------
 # B3LYP/6-311++G(d,p) empiricaldispersion=gd3bj scf=xqc pop=npa geom=c
 heck
 ----------------------------------------------------------------------

 ------------------------------------
 CID_131010823_JID_3002_Energie_anion
 ------------------------------------
 Structure from the checkpoint file:  "JID_3002.chk"
 Charge = -1 Multiplicity = 2

                         Standard orientation:
 ---------------------------------------------------------------------
 Center     Atomic      Atomic             Coordinates (Angstroms)
 Number     Number       Type             X           Y           Z
 ---------------------------------------------------------------------
      1          6           0        0.615173   -1.891886    0.000041
      2          6           0       -0.714007   -2.262042    0.000039
      3          6           0       -1.687397   -1.260657    0.000008
      4          6           0       -1.298591    0.099058    0.000004
      5          6           0        0.069828    0.480575    0.000040
      6          6           0        1.036525   -0.548130    0.000025
      7          6           0        2.509405   -0.366362   -0.000012
      8          8           0        3.311132   -1.280134   -0.000068
      9          8           0        2.904513    0.927367   -0.000032
     10         16           0        0.515072    2.198365    0.000052
     11          6           0       -2.361235    1.046896   -0.000059
     12          7           0       -3.296352    1.743589   -0.000069
     13          8           0       -2.980088   -1.637819   -0.000017
     14          1           0        1.394495   -2.645493    0.000030
     15          1           0       -1.023295   -3.300459    0.000059
     16          1           0        3.879827    0.915249   -0.000099
     17          1           0       -0.757234    2.648277    0.000032
     18          1           0       -3.563156   -0.856571    0.000040
 ---------------------------------------------------------------------

 SCF Done:  E(UB3LYP) =  -986.734341219     A.U. after   24 cycles

 The electronic state is 2-A.
 Alpha  occ. eigenvalues --  -88.73829 -19.04328 -19.02719 -18.97044 -14.17570
 Alpha  occ. eigenvalues --  -10.15993 -10.10387 -10.08898 -10.07790 -10.06342
 Alpha  occ. eigenvalues --  -10.04414 -10.02783 -10.01342  -7.82506  -5.78873
 Alpha  occ. eigenvalues --   -5.78484  -5.77929  -0.98130  -0.94376  -0.88430
 Alpha  occ. eigenvalues --   -0.78075  -0.73626  -0.66235  -0.63795  -0.59427
 Alpha  occ. eigenvalues --   -0.53234  -0.50905  -0.46579  -0.43145  -0.39230
 Alpha  occ. eigenvalues --   -0.37824  -0.35381  -0.34505  -0.32565  -0.30890
 Alpha  occ. eigenvalues --   -0.29971  -0.28723  -0.26898  -0.26241  -0.24555
 Alpha  occ. eigenvalues --   -0.24473  -0.22767  -0.21721  -0.20994  -0.20790
 Alpha  occ. eigenvalues --   -0.20102  -0.16464  -0.15130  -0.11463  -0.09703
 Alpha  occ. eigenvalues --    0.04026
 Alpha virt. eigenvalues --    0.08466   0.08829   0.10088   0.10626   0.11428
 Alpha virt. eigenvalues --    0.12747   0.13690   0.14611   0.15144   0.15191
 Alpha virt. eigenvalues --    0.15592   0.16601   0.17117   0.17381   0.17713

  Beta  occ. eigenvalues --  -88.73831 -19.04272 -19.02578 -18.96968 -14.17331
  Beta  occ. eigenvalues --  -10.15820 -10.10401 -10.08359 -10.07759 -10.06260
  Beta  occ. eigenvalues --  -10.04426 -10.02937 -10.00739  -7.82508  -5.78875
  Beta  occ. eigenvalues --   -5.78486  -5.77934  -0.97964  -0.93995  -0.88284
  Beta  occ. eigenvalues --   -0.77724  -0.73335  -0.65874  -0.63243  -0.59235
  Beta  occ. eigenvalues --   -0.52557  -0.50454  -0.46438  -0.42880  -0.39027
  Beta  occ. eigenvalues --   -0.37482  -0.35260  -0.34274  -0.31868  -0.30793
  Beta  occ. eigenvalues --   -0.28630  -0.28560  -0.26766  -0.26036  -0.24149
  Beta  occ. eigenvalues --   -0.23583  -0.22524  -0.20860  -0.20858  -0.20643
  Beta  occ. eigenvalues --   -0.19637  -0.15457  -0.15037  -0.09907  -0.08982
  Beta virt. eigenvalues --    0.08823   0.09219   0.10083   0.10623   0.10786
  Beta virt. eigenvalues --    0.11421   0.12773   0.13748   0.14673   0.15199
  Beta virt. eigenvalues --    0.15204   0.16580   0.16606   0.17276   0.17405

 Mulliken charges and spin densities:
               1          2
     1  C   -0.543009   0.524493
     2  C   -0.479818  -0.142973
     3  C   -1.166169   0.325541
     4  C    1.645184   0.110476
     5  C    0.428786  -0.013747
     6  C    0.866867  -0.067433
     7  C    0.469334   0.120580
     8  O   -0.384520   0.032517
     9  O   -0.184109   0.010651
    10  S   -0.608610  -0.001170
    11  C   -1.494692  -0.020796
    12  N   -0.282421   0.120310
    13  O   -0.239806   0.034278
    14  H    0.162977  -0.037689
    15  H    0.128955   0.007252
    16  H    0.287529  -0.000557
    17  H    0.109251  -0.000548
    18  H    0.284271  -0.001184
 Sum of Mulliken charges =  -1.00000   1.00000

 Dipole moment (field-independent basis, Debye):
    X=              1.9308    Y=              1.2732    Z=              0.0002  Tot=              2.3128
 Quadrupole moment (field-independent basis, Debye-Ang):
   XX=           -118.6238   YY=           -103.8566   ZZ=            -89.2629
   XY=             14.3331   XZ=             -0.0009   YZ=             -0.0001

 Summary of Natural Population Analysis:

                                       Natural Population
                Natural  -----------------------------------------------
    Atom  No    Charge         Core      Valence    Rydberg      Total
 -----------------------------------------------------------------------
      C    1    0.06083      0.99956     1.93101    0.00860     2.93917
      C    2   -0.17438      0.99953     2.16567    0.00919     3.17438
      C    3    0.28864      0.99939     1.70007    0.01191     2.71136
      C    4   -0.14876      0.99934     2.13774    0.01168     3.14876
      C    5   -0.03657      0.99938     2.02848    0.00871     3.03657
      C    6   -0.12455      0.99940     2.11463    0.01052     3.12455
      C    7    0.41882      0.99966     1.55733    0.02420     2.58118
      O    8   -0.32668      0.99987     3.31945    0.00737     4.32668
      O    9   -0.35007      0.99987     3.34284    0.00736     4.35007
      S   10    0.03527      4.99956     2.94851    0.01666     7.96473
      C   11    0.13665      0.99964     1.84272    0.02100     2.86335
      N   12   -0.17900      0.99979     2.66742    0.01179     3.67900
      O   13   -0.32899      0.99987     3.32315    0.00598     4.32899
      H   14    0.09987      0.00000     0.39907    0.00106     0.40013
      H   15    0.09854      0.00000     0.40039    0.00107     0.40146
      H   16    0.23439      0.00000     0.26279    0.00282     0.26561
      H   17    0.05845      0.00000     0.43839    0.00316     0.44155
      H   18    0.23757      0.00000     0.26009    0.00234     0.26243
 =======================================================================
   * Total *   -0.00000     16.99486    32.83974    0.16540    50.00000

 Normal termination of Gaussian 16 at Wed Dec  9 22:34:46 2020.
