 Gaussian 16, Revision A.03,

 -----------------------------------------------------------
 # opt freq B3LYP/6-31G(d) empiricaldispersion=gd3bj scf=xqc
 -----------------------------------------------------------

 -------------------------------
 CID_149932040_JID_5167_neutraal
 -------------------------------
 Symbolic Z-matrix:
 Charge =  0 Multiplicity = 1

 SCF Done:  E(RB3LYP) =  -734.286790965     A.U. after   17 cycles
 SCF Done:  E(RB3LYP) =  -734.294140676     A.U. after   16 cycles
 SCF Done:  E(RB3LYP) =  -734.288437721     A.U. after   18 cycles
 SCF Done:  E(RB3LYP) =  -734.298239674     A.U. after   15 cycles
 SCF Done:  E(RB3LYP) =  -734.301597690     A.U. after   15 cycles
 SCF Done:  E(RB3LYP) =  -734.306560313     A.U. after   16 cycles
 SCF Done:  E(RB3LYP) =  -734.309526070     A.U. after   15 cycles
 SCF Done:  E(RB3LYP) =  -734.311988673     A.U. after   17 cycles
 SCF Done:  E(RB3LYP) =  -734.313075393     A.U. after   17 cycles
 SCF Done:  E(RB3LYP) =  -734.313377841     A.U. after   14 cycles
 SCF Done:  E(RB3LYP) =  -734.313462587     A.U. after   10 cycles
 SCF Done:  E(RB3LYP) =  -734.313463496     A.U. after    9 cycles
 SCF Done:  E(RB3LYP) =  -734.313463941     A.U. after   10 cycles
 SCF Done:  E(RB3LYP) =  -734.313464065     A.U. after    9 cycles
 SCF Done:  E(RB3LYP) =  -734.313464116     A.U. after    9 cycles
 Optimization completed.
    -- Stationary point found.
 Normal termination of Gaussian 16 at Thu Dec 10 14:51:01 2020.

 --------------------------------------------------------------------
 #N Geom=AllCheck Guess=TCheck SCRF=Check GenChk RB3LYP/6-31G(d) Freq
 --------------------------------------------------------------------

 Structure from the checkpoint file:  "JID_5167.chk"
 -------------------------------
 CID_149932040_JID_5167_neutraal
 -------------------------------
 Charge =  0 Multiplicity = 1

 SCF Done:  E(RB3LYP) =  -734.313464116     A.U. after    1 cycles

  Exact polarizability: 132.777 -19.896 113.771  24.685  10.055 108.123
 Approx polarizability: 210.438 -36.926 187.927  76.036  19.099 221.258

                      1                      2                      3
                      A                      A                      A
 Frequencies --     27.1979                33.2167                51.6874
 Red. masses --      9.7369                10.9687                 5.2602
 Frc consts  --      0.0042                 0.0071                 0.0083
 IR Inten    --      0.3992                 0.0958                 1.1956

                      4                      5                      6
                      A                      A                      A
 Frequencies --     76.4638               100.5276               137.7862
 Red. masses --      7.7066                 4.9023                 5.1594
 Frc consts  --      0.0265                 0.0292                 0.0577
 IR Inten    --      2.2961                 0.5333                 0.4570

                      7                      8                      9
                      A                      A                      A
 Frequencies --    182.3720               237.6295               248.5039
 Red. masses --      6.3767                 1.2351                 5.6122
 Frc consts  --      0.1250                 0.0411                 0.2042
 IR Inten    --      2.3291                 0.3833                 0.5470

                     10                     11                     12
                      A                      A                      A
 Frequencies --    283.6587               308.3453               357.8196
 Red. masses --      5.2502                 3.4583                 4.1980
 Frc consts  --      0.2489                 0.1937                 0.3167
 IR Inten    --      3.6409                 0.8340                 0.2847

                     13                     14                     15
                      A                      A                      A
 Frequencies --    397.4805               418.7684               437.4903
 Red. masses --      5.4894                 3.5666                 2.4528
 Frc consts  --      0.5110                 0.3685                 0.2766
 IR Inten    --      2.5758                 7.1211                 3.7074

                     16                     17                     18
                      A                      A                      A
 Frequencies --    450.2835               521.3753               562.2107
 Red. masses --      4.0499                 4.5552                13.0536
 Frc consts  --      0.4838                 0.7296                 2.4310
 IR Inten    --      2.5989                 4.2467                12.1145

                     19                     20                     21
                      A                      A                      A
 Frequencies --    572.5144               620.6914               633.3644
 Red. masses --      4.5926                 6.0045                 5.7130
 Frc consts  --      0.8869                 1.3630                 1.3503
 IR Inten    --      0.1903                 8.3505                 4.2969

                     22                     23                     24
                      A                      A                      A
 Frequencies --    685.4234               716.5619               755.3995
 Red. masses --      6.5009                 5.1592                 2.0152
 Frc consts  --      1.7995                 1.5608                 0.6775
 IR Inten    --      9.2262                15.0401                32.3680

                     25                     26                     27
                      A                      A                      A
 Frequencies --    803.8745               836.4363               844.2173
 Red. masses --      2.2125                 5.3670                 6.6814
 Frc consts  --      0.8424                 2.2123                 2.8056
 IR Inten    --      9.1110                15.5644                 0.6340

                     28                     29                     30
                      A                      A                      A
 Frequencies --    879.2317               896.0880               964.4604
 Red. masses --      4.4172                 1.6262                 1.4913
 Frc consts  --      2.0119                 0.7694                 0.8173
 IR Inten    --     16.1438                 2.6744                 5.5026

                     31                     32                     33
                      A                      A                      A
 Frequencies --    977.7104               989.7844               998.6513
 Red. masses --      2.7664                 1.8404                 1.3090
 Frc consts  --      1.5581                 1.0623                 0.7692
 IR Inten    --      6.6624                 7.6259                 1.1100

                     34                     35                     36
                      A                      A                      A
 Frequencies --   1077.5687              1109.0799              1125.3775
 Red. masses --      2.4482                 3.0514                 2.4583
 Frc consts  --      1.6749                 2.2115                 1.8343
 IR Inten    --      3.2950                 1.8399                22.0854

                     37                     38                     39
                      A                      A                      A
 Frequencies --   1172.0451              1179.8543              1198.7971
 Red. masses --      1.7394                 1.7746                 1.1022
 Frc consts  --      1.4078                 1.4555                 0.9333
 IR Inten    --     14.8280                 2.9082                 1.0222

                     40                     41                     42
                      A                      A                      A
 Frequencies --   1221.5887              1240.8040              1248.4338
 Red. masses --      2.5513                 2.5644                 3.4096
 Frc consts  --      2.2432                 2.3262                 3.1310
 IR Inten    --     45.4565                 2.1159                27.7066

                     43                     44                     45
                      A                      A                      A
 Frequencies --   1280.0303              1331.5140              1369.8670
 Red. masses --      1.5728                 1.3428                 4.7615
 Frc consts  --      1.5183                 1.4026                 5.2645
 IR Inten    --      2.5554                 0.2301                10.4078

                     46                     47                     48
                      A                      A                      A
 Frequencies --   1408.0064              1414.1939              1470.6388
 Red. masses --      2.4860                 2.7933                 1.1893
 Frc consts  --      2.9037                 3.2915                 1.5156
 IR Inten    --     84.6243               137.0021                 1.2723

                     49                     50                     51
                      A                      A                      A
 Frequencies --   1493.3285              1504.6347              1512.0937
 Red. masses --      1.7936                 1.2634                 1.0526
 Frc consts  --      2.3566                 1.6852                 1.4180
 IR Inten    --      4.4220                11.0214                13.7847

                     52                     53                     54
                      A                      A                      A
 Frequencies --   1530.8325              1533.6172              1629.7789
 Red. masses --      1.2069                 1.9214                 8.4536
 Frc consts  --      1.6664                 2.6626                13.2297
 IR Inten    --      8.5221                 3.5060               113.6421

                     55                     56                     57
                      A                      A                      A
 Frequencies --   1644.6319              1675.6493              2231.1271
 Red. masses --      6.3754                 7.5906                13.9413
 Frc consts  --     10.1601                12.5573                40.8885
 IR Inten    --     47.0909                34.2084               344.8454

                     58                     59                     60
                      A                      A                      A
 Frequencies --   3006.0668              3017.7480              3117.0639
 Red. masses --      1.0531                 1.0711                 1.0819
 Frc consts  --      5.6067                 5.7470                 6.1935
 IR Inten    --     54.9650                60.4567                15.4068

                     61                     62                     63
                      A                      A                      A
 Frequencies --   3151.6991              3162.0397              3196.4814
 Red. masses --      1.0908                 1.1039                 1.0870
 Frc consts  --      6.3839                 6.5033                 6.5436
 IR Inten    --      2.1003                14.6088                 1.4924

                     64                     65                     66
                      A                      A                      A
 Frequencies --   3208.3889              3220.3636              3246.7475
 Red. masses --      1.0908                 1.0957                 1.0932
 Frc consts  --      6.6159                 6.6948                 6.7898
 IR Inten    --      9.6448                14.2934                 1.0871

 - Thermochemistry -
 -------------------
 Temperature   298.150 Kelvin.  Pressure   1.00000 Atm.
 Atom     1 has atomic number  6 and mass  12.00000

 Molecular mass:   207.07562 amu.
 Principal axes and moments of inertia in atomic units:
                           1         2         3
     Eigenvalues --  2338.353343086.011893822.11408
           X            0.99776  -0.06056   0.02828
           Y            0.05957   0.99763   0.03455
           Z           -0.03030  -0.03279   0.99900
 This molecule is an asymmetric top.
 Rotational symmetry number  1.
 Warning -- assumption of classical behavior for rotation
           may cause significant error
 Rotational temperatures (Kelvin)      0.03704     0.02807     0.02266
 Rotational constants (GHZ):           0.77180     0.58481     0.47218
 Zero-point vibrational energy     472150.0 (Joules/Mol)
                                  112.84656 (Kcal/Mol)
 Warning -- explicit consideration of  20 degrees of freedom as
           vibrations may cause significant error
 Vibrational temperatures:     39.13    47.79    74.37   110.01   144.64
          (Kelvin)            198.24   262.39   341.90   357.54   408.12
                              443.64   514.82   571.89   602.51   629.45
                              647.86   750.14   808.90   823.72   893.04
                              911.27   986.17  1030.97  1086.85  1156.60
                             1203.45  1214.64  1265.02  1289.27  1387.64
                             1406.71  1424.08  1436.84  1550.38  1595.72
                             1619.17  1686.31  1697.55  1724.80  1757.59
                             1785.24  1796.22  1841.68  1915.75  1970.93
                             2025.81  2034.71  2115.92  2148.57  2164.83
                             2175.57  2202.53  2206.53  2344.89  2366.26
                             2410.89  3210.09  4325.06  4341.87  4484.76
                             4534.59  4549.47  4599.02  4616.16  4633.39
                             4671.35

 Zero-point correction=                           0.179832 (Hartree/Particle)
 Thermal correction to Energy=                    0.193267
 Thermal correction to Enthalpy=                  0.194211
 Thermal correction to Gibbs Free Energy=         0.137773
 Sum of electronic and zero-point Energies=           -734.133632
 Sum of electronic and thermal Energies=              -734.120197
 Sum of electronic and thermal Enthalpies=            -734.119253
 Sum of electronic and thermal Free Energies=         -734.175691

                     E (Thermal)             CV                S
                      KCal/Mol        Cal/Mol-Kelvin    Cal/Mol-Kelvin
 Total                  121.277             49.114            118.784
 Electronic               0.000              0.000              0.000
 Translational            0.889              2.981             41.888
 Rotational               0.889              2.981             31.689
 Vibrational            119.499             43.153             45.207
 Vibration     1          0.593              1.984              6.024
 Vibration     2          0.594              1.983              5.627
 Vibration     3          0.596              1.977              4.752
 Vibration     4          0.599              1.965              3.980
 Vibration     5          0.604              1.949              3.444
 Vibration     6          0.614              1.916              2.834
 Vibration     7          0.630              1.864              2.304
 Vibration     8          0.656              1.783              1.821
 Vibration     9          0.662              1.765              1.741
 Vibration    10          0.682              1.704              1.512
 Vibration    11          0.698              1.658              1.371
 Vibration    12          0.733              1.559              1.132
 Vibration    13          0.764              1.476              0.972
 Vibration    14          0.782              1.429              0.896
 Vibration    15          0.798              1.388              0.835
 Vibration    16          0.809              1.360              0.795
 Vibration    17          0.876              1.203              0.607
 Vibration    18          0.918              1.113              0.519
 Vibration    19          0.929              1.091              0.499
 Vibration    20          0.981              0.988              0.415

 Optimization completed.
    -- Stationary point found.
 Normal termination of Gaussian 16 at Thu Dec 10 14:58:06 2020.

 ----------------------------------------------------------------------
 # B3LYP/6-311++G(d,p) empiricaldispersion=gd3bj scf=xqc pop=npa geom=c
 heck
 ----------------------------------------------------------------------

 ---------------------------------------
 CID_149932040_JID_5167_Energie_neutraal
 ---------------------------------------
 Structure from the checkpoint file:  "JID_5167.chk"
 Charge =  0 Multiplicity = 1

 SCF Done:  E(RB3LYP) =  -734.518340980     A.U. after   16 cycles
 Normal termination of Gaussian 16 at Thu Dec 10 15:01:03 2020.

 ----------------------------------------------------------------------
 # B3LYP/6-311++G(d,p) empiricaldispersion=gd3bj scf=xqc pop=npa geom=c
 heck
 ----------------------------------------------------------------------

 -------------------------------------
 CID_149932040_JID_5167_Energie_kation
 -------------------------------------
 Structure from the checkpoint file:  "JID_5167.chk"
 Charge =  1 Multiplicity = 2

 SCF Done:  E(UB3LYP) =  -734.193847189     A.U. after   33 cycles
 SCF Done:  E(UB3LYP) =  -734.193847189     a.u. after    1 cycles
 Normal termination of Gaussian 16 at Thu Dec 10 15:09:51 2020.
 Gaussian 16:  ES64L-G16RevA.03 25-Dec-2016

 ----------------------------------------------------------------------
 # B3LYP/6-311++G(d,p) empiricaldispersion=gd3bj scf=xqc pop=npa geom=c
 heck
 ----------------------------------------------------------------------

 ------------------------------------
 CID_149932040_JID_5167_Energie_anion
 ------------------------------------
 Structure from the checkpoint file:  "JID_5167.chk"
 Charge = -1 Multiplicity = 2

                         Standard orientation:
 ---------------------------------------------------------------------
 Center     Atomic      Atomic             Coordinates (Angstroms)
 Number     Number       Type             X           Y           Z
 ---------------------------------------------------------------------
      1          6           0       -3.247953    0.281289   -0.595253
      2          7           0       -1.882045   -0.089809   -0.230593
      3          6           0       -0.992108   -0.146555   -1.402159
      4          6           0        0.440908   -0.271497   -0.943710
      5          6           0        1.171849   -1.423642   -1.242103
      6          6           0        2.467880   -1.615220   -0.761490
      7          6           0        3.055475   -0.656930    0.062647
      8          6           0        2.343398    0.491650    0.398352
      9          6           0        1.062814    0.676378   -0.115572
     10          7           0        0.388347    1.932644    0.255124
     11          8           0        0.632399    2.391784    1.368521
     12          8           0       -0.342600    2.469808   -0.576353
     13          7           0       -1.937924   -1.436909    0.343051
     14          7           0       -1.256583   -1.495706    1.387956
     15          7           0       -0.669333   -1.711165    2.340372
     16          1           0       -3.696452   -0.398049   -1.337545
     17          1           0       -3.214492    1.296146   -1.000881
     18          1           0       -3.865718    0.280637    0.304977
     19          1           0       -1.245434   -0.994052   -2.056620
     20          1           0       -1.138136    0.781372   -1.955622
     21          1           0        0.701526   -2.190173   -1.850818
     22          1           0        3.009414   -2.520574   -1.018295
     23          1           0        4.058362   -0.802369    0.450998
     24          1           0        2.761717    1.248111    1.050826
 ---------------------------------------------------------------------

 SCF Done:  E(UB3LYP) =  -734.553845159     A.U. after   25 cycles

 The electronic state is 2-A.
 Alpha  occ. eigenvalues --  -18.94799 -18.94695 -14.35860 -14.32272 -14.26714
 Alpha  occ. eigenvalues --  -14.25660 -14.23078 -10.08318 -10.07703 -10.06649
 Alpha  occ. eigenvalues --  -10.05086 -10.04958 -10.04715 -10.04106 -10.04090
 Alpha  occ. eigenvalues --   -1.02777  -1.02357  -0.88981  -0.85626  -0.77597
 Alpha  occ. eigenvalues --   -0.73444  -0.64902  -0.63838  -0.58577  -0.54820
 Alpha  occ. eigenvalues --   -0.52556  -0.47415  -0.44886  -0.41577  -0.39867
 Alpha  occ. eigenvalues --   -0.39655  -0.38085  -0.35746  -0.35023  -0.34205
 Alpha  occ. eigenvalues --   -0.33818  -0.33299  -0.32543  -0.31223  -0.30712
 Alpha  occ. eigenvalues --   -0.29061  -0.27896  -0.27156  -0.24118  -0.23339
 Alpha  occ. eigenvalues --   -0.22916  -0.21885  -0.14880  -0.13894  -0.13590
 Alpha  occ. eigenvalues --   -0.12912  -0.12195  -0.11535  -0.10008   0.02934
 Alpha virt. eigenvalues --    0.06272   0.08442   0.08779   0.10080   0.10786
 Alpha virt. eigenvalues --    0.11117   0.12183   0.12430   0.12774   0.12976
 Alpha virt. eigenvalues --    0.13656   0.14268   0.14876   0.15824   0.17285

  Beta  occ. eigenvalues --  -18.94395 -18.94204 -14.35792 -14.31641 -14.26588
  Beta  occ. eigenvalues --  -14.25679 -14.23019 -10.08312 -10.07712 -10.06545
  Beta  occ. eigenvalues --  -10.05043 -10.04918 -10.04727 -10.04021 -10.03865
  Beta  occ. eigenvalues --   -1.02205  -1.01753  -0.88880  -0.84779  -0.77480
  Beta  occ. eigenvalues --   -0.73182  -0.64606  -0.63394  -0.58460  -0.54525
  Beta  occ. eigenvalues --   -0.51929  -0.47280  -0.44538  -0.41361  -0.39582
  Beta  occ. eigenvalues --   -0.39504  -0.37683  -0.35010  -0.34472  -0.33919
  Beta  occ. eigenvalues --   -0.33431  -0.32419  -0.31715  -0.30710  -0.30220
  Beta  occ. eigenvalues --   -0.29008  -0.27834  -0.26964  -0.23651  -0.23141
  Beta  occ. eigenvalues --   -0.22656  -0.21705  -0.14732  -0.12982  -0.12342
  Beta  occ. eigenvalues --   -0.11810  -0.11559  -0.10424  -0.09327
  Beta virt. eigenvalues --    0.07019   0.08433   0.08731   0.09658   0.10036
  Beta virt. eigenvalues --    0.10952   0.11165   0.12180   0.12470   0.12857
  Beta virt. eigenvalues --    0.13532   0.14159   0.14872   0.15633   0.16119

 Mulliken charges and spin densities:
               1          2
     1  C   -0.302654  -0.018679
     2  N    0.257214  -0.034444
     3  C   -0.764938  -0.002157
     4  C    2.536422   0.172353
     5  C   -0.336445  -0.080156
     6  C   -0.484417   0.166923
     7  C   -0.335009  -0.014616
     8  C   -0.496210   0.091830
     9  C   -1.559985   0.035557
    10  N   -0.146437   0.201835
    11  O   -0.141353   0.184291
    12  O   -0.200308   0.157218
    13  N   -0.659127   0.043381
    14  N    0.606689   0.000459
    15  N   -0.192608   0.053145
    16  H    0.089461   0.011570
    17  H    0.138674   0.010492
    18  H    0.126211   0.005315
    19  H    0.103285   0.016436
    20  H    0.225889  -0.005437
    21  H    0.106025   0.007348
    22  H    0.120726  -0.014047
    23  H    0.123040  -0.000624
    24  H    0.185856   0.012006
 Sum of Mulliken charges =  -1.00000   1.00000

 Dipole moment (field-independent basis, Debye):
    X=             -1.3227    Y=             -4.8214    Z=             -2.6643  Tot=              5.6652
 Quadrupole moment (field-independent basis, Debye-Ang):
   XX=            -98.2820   YY=           -118.9998   ZZ=           -102.9266
   XY=             -2.3615   XZ=              1.7037   YZ=             -1.0275

 Summary of Natural Population Analysis:

                                       Natural Population
                Natural  -----------------------------------------------
    Atom  No    Charge         Core      Valence    Rydberg      Total
 -----------------------------------------------------------------------
      C    1   -0.17523      0.99965     2.16831    0.00727     3.17523
      N    2   -0.17833      0.99972     2.66465    0.01396     3.67833
      C    3   -0.09644      0.99957     2.08657    0.01030     3.09644
      C    4   -0.00215      0.99946     1.98998    0.01271     3.00215
      C    5   -0.11606      0.99953     2.10841    0.00813     3.11606
      C    6   -0.06544      0.99957     2.05693    0.00894     3.06544
      C    7   -0.11287      0.99957     2.10447    0.00883     3.11287
      C    8   -0.07810      0.99953     2.06984    0.00874     3.07810
      C    9    0.06686      0.99934     1.91745    0.01635     2.93314
      N   10    0.31103      0.99971     2.16226    0.02699     3.18897
      O   11   -0.18333      0.99990     3.17586    0.00758     4.18333
      O   12   -0.20610      0.99990     3.19773    0.00847     4.20610
      N   13   -0.13304      0.99972     2.61802    0.01531     3.63304
      N   14    0.12195      0.99971     2.36255    0.01580     3.37805
      N   15   -0.01544      0.99982     2.50327    0.01235     3.51544
      H   16    0.07702      0.00000     0.42050    0.00247     0.42298
      H   17    0.10318      0.00000     0.39597    0.00085     0.39682
      H   18    0.09558      0.00000     0.40355    0.00087     0.40442
      H   19    0.08209      0.00000     0.41599    0.00192     0.41791
      H   20    0.11904      0.00000     0.37980    0.00115     0.38096
      H   21    0.09374      0.00000     0.40490    0.00136     0.40626
      H   22    0.08872      0.00000     0.40982    0.00146     0.41128
      H   23    0.09258      0.00000     0.40643    0.00099     0.40742
      H   24    0.11075      0.00000     0.38809    0.00116     0.38925
 =======================================================================
   * Total *    0.00000     14.99470    38.81134    0.19396    54.00000

 Normal termination of Gaussian 16 at Thu Dec 10 15:16:19 2020.
