 Gaussian 16, Revision A.03,

 -----------------------------------------------------------
 # opt freq B3LYP/6-31G(d) empiricaldispersion=gd3bj scf=xqc
 -----------------------------------------------------------

 ------------------------------
 CID_91566999_JID_3420_neutraal
 ------------------------------
 Symbolic Z-matrix:
 Charge =  0 Multiplicity = 1

 SCF Done:  E(RB3LYP) =  -534.705563244     A.U. after   15 cycles
 SCF Done:  E(RB3LYP) =  -534.709330685     A.U. after   12 cycles
 SCF Done:  E(RB3LYP) =  -534.709549726     A.U. after   11 cycles
 SCF Done:  E(RB3LYP) =  -534.709602734     A.U. after   10 cycles
 SCF Done:  E(RB3LYP) =  -534.710059144     A.U. after   12 cycles
 SCF Done:  E(RB3LYP) =  -534.710221023     A.U. after   12 cycles
 SCF Done:  E(RB3LYP) =  -534.711407584     A.U. after   12 cycles
 SCF Done:  E(RB3LYP) =  -534.712059053     A.U. after   12 cycles
 SCF Done:  E(RB3LYP) =  -534.712167478     A.U. after   12 cycles
 SCF Done:  E(RB3LYP) =  -534.712203462     A.U. after   10 cycles
 SCF Done:  E(RB3LYP) =  -534.712209722     A.U. after    9 cycles
 SCF Done:  E(RB3LYP) =  -534.712211128     A.U. after    9 cycles
 Optimization completed.
    -- Stationary point found.
 Normal termination of Gaussian 16 at Wed Dec  9 23:10:23 2020.

 --------------------------------------------------------------------
 #N Geom=AllCheck Guess=TCheck SCRF=Check GenChk RB3LYP/6-31G(d) Freq
 --------------------------------------------------------------------

 Structure from the checkpoint file:  "JID_3420.chk"
 ------------------------------
 CID_91566999_JID_3420_neutraal
 ------------------------------
 Charge =  0 Multiplicity = 1

 SCF Done:  E(RB3LYP) =  -534.712211128     A.U. after    1 cycles

  Exact polarizability: 213.913   3.754 118.268   3.413  -1.100  52.435
 Approx polarizability: 313.088   8.596 205.809   7.388  -4.207  83.066

                      1                      2                      3
                      A                      A                      A
 Frequencies --     53.1641                71.7372                98.2045
 Red. masses --      5.2525                 3.2259                 4.8189
 Frc consts  --      0.0087                 0.0098                 0.0274
 IR Inten    --      0.6232                 0.8452                 1.0412

                      4                      5                      6
                      A                      A                      A
 Frequencies --    126.5778               212.4307               250.6537
 Red. masses --      3.4131                 4.2147                 2.7008
 Frc consts  --      0.0322                 0.1121                 0.1000
 IR Inten    --      0.2914                 2.6165                 1.9158

                      7                      8                      9
                      A                      A                      A
 Frequencies --    299.8791               323.4553               420.8761
 Red. masses --      4.9522                 5.3488                 3.2084
 Frc consts  --      0.2624                 0.3297                 0.3348
 IR Inten    --      0.3903                 0.2504                 0.2467

                     10                     11                     12
                      A                      A                      A
 Frequencies --    426.3200               512.8688               558.1127
 Red. masses --      4.2738                 3.8952                 3.7322
 Frc consts  --      0.4577                 0.6037                 0.6849
 IR Inten    --      0.7386                 2.4429                 4.7378

                     13                     14                     15
                      A                      A                      A
 Frequencies --    622.0385               625.2097               644.0171
 Red. masses --      2.9959                 5.2983                 4.8621
 Frc consts  --      0.6830                 1.2202                 1.1882
 IR Inten    --      1.6866                 1.7985                 1.3294

                     16                     17                     18
                      A                      A                      A
 Frequencies --    693.1505               698.7435               709.0516
 Red. masses --      1.2887                 4.4941                 2.1488
 Frc consts  --      0.3648                 1.2928                 0.6365
 IR Inten    --      8.7719                10.0661                17.9115

                     19                     20                     21
                      A                      A                      A
 Frequencies --    718.9342               774.8219               782.3225
 Red. masses --      4.1552                 1.5520                 1.3834
 Frc consts  --      1.2654                 0.5490                 0.4988
 IR Inten    --     19.5323                81.8894                29.6447

                     22                     23                     24
                      A                      A                      A
 Frequencies --    834.5368               849.6804               865.0558
 Red. masses --      1.2771                 1.2458                 2.4474
 Frc consts  --      0.5241                 0.5299                 1.0791
 IR Inten    --      4.2133                 0.0707                 6.1054

                     25                     26                     27
                      A                      A                      A
 Frequencies --    921.8171               962.6496               967.1664
 Red. masses --      1.4142                 5.7855                 1.3396
 Frc consts  --      0.7080                 3.1588                 0.7383
 IR Inten    --      4.0742                12.6572                 0.2235

                     28                     29                     30
                      A                      A                      A
 Frequencies --    995.0891               999.2379              1022.4047
 Red. masses --      1.2531                 3.7135                 5.9640
 Frc consts  --      0.7311                 2.1846                 3.6731
 IR Inten    --      0.2820                 5.5983                 0.1299

                     31                     32                     33
                      A                      A                      A
 Frequencies --   1057.3972              1086.5147              1113.0979
 Red. masses --      2.3672                 2.0217                 1.2664
 Frc consts  --      1.5594                 1.4061                 0.9244
 IR Inten    --      0.3716                41.1110                16.2295

                     34                     35                     36
                      A                      A                      A
 Frequencies --   1115.6900              1130.1242              1195.3407
 Red. masses --      1.5072                 1.0902                 1.0948
 Frc consts  --      1.1054                 0.8204                 0.9217
 IR Inten    --     16.7097                44.0114                 0.2871

                     37                     38                     39
                      A                      A                      A
 Frequencies --   1212.5299              1231.6712              1243.0429
 Red. masses --      1.1307                 1.3106                 1.8733
 Frc consts  --      0.9794                 1.1714                 1.7054
 IR Inten    --      1.3537               118.1723                 3.9884

                     40                     41                     42
                      A                      A                      A
 Frequencies --   1290.9945              1320.4747              1367.2308
 Red. masses --      1.6067                 2.6237                 5.3593
 Frc consts  --      1.5778                 2.6954                 5.9025
 IR Inten    --     54.0513                50.0854                 2.4226

                     43                     44                     45
                      A                      A                      A
 Frequencies --   1376.5725              1410.4003              1435.3734
 Red. masses --      1.8293                 3.2122                 3.7096
 Frc consts  --      2.0424                 3.7647                 4.5030
 IR Inten    --      7.8307                77.5796                 3.9636

                     46                     47                     48
                      A                      A                      A
 Frequencies --   1457.4891              1509.4325              1543.4131
 Red. masses --      1.6362                 2.4164                 2.9798
 Frc consts  --      2.0478                 3.2437                 4.1821
 IR Inten    --      5.1705                 3.0825                11.4610

                     49                     50                     51
                      A                      A                      A
 Frequencies --   1559.5896              1592.7655              1651.5424
 Red. masses --      3.0701                 5.0218                 6.0621
 Frc consts  --      4.3997                 7.5061                 9.7421
 IR Inten    --    235.7522                28.4165                 5.6815

                     52                     53                     54
                      A                      A                      A
 Frequencies --   1666.0598              1709.3141              3087.5834
 Red. masses --      5.6709                 7.9111                 1.0869
 Frc consts  --      9.2743                13.6186                 6.1049
 IR Inten    --     71.7423               199.7556                45.5419

                     55                     56                     57
                      A                      A                      A
 Frequencies --   3191.9939              3200.0689              3211.0832
 Red. masses --      1.0854                 1.0888                 1.0917
 Frc consts  --      6.5157                 6.5692                 6.6324
 IR Inten    --      2.1678                 8.0070                25.4608

                     58                     59                     60
                      A                      A                      A
 Frequencies --   3217.8269              3221.9682              3257.9864
 Red. masses --      1.0940                 1.0975                 1.0920
 Frc consts  --      6.6739                 6.7128                 6.8292
 IR Inten    --     13.7515                 4.7967                 1.5180

                     61                     62                     63
                      A                      A                      A
 Frequencies --   3284.0294              3292.3582              3385.1731
 Red. masses --      1.0957                 1.1014                 1.0734
 Frc consts  --      6.9622                 7.0341                 7.2476
 IR Inten    --      0.0633                 0.5547                15.1294

 - Thermochemistry -
 -------------------
 Temperature   298.150 Kelvin.  Pressure   1.00000 Atm.
 Atom     1 has atomic number  6 and mass  12.00000

 Molecular mass:   170.08440 amu.
 Principal axes and moments of inertia in atomic units:
                           1         2         3
     Eigenvalues --   621.178764707.221835198.99521
           X            0.99999   0.00294   0.00150
           Y           -0.00294   1.00000  -0.00059
           Z           -0.00150   0.00059   1.00000
 This molecule is an asymmetric top.
 Rotational symmetry number  1.
 Warning -- assumption of classical behavior for rotation
           may cause significant error
 Rotational temperatures (Kelvin)      0.13943     0.01840     0.01666
 Rotational constants (GHZ):           2.90535     0.38340     0.34713
 Zero-point vibrational energy     488473.2 (Joules/Mol)
                                  116.74789 (Kcal/Mol)
 Warning -- explicit consideration of  12 degrees of freedom as
           vibrations may cause significant error
 Vibrational temperatures:     76.49   103.21   141.29   182.12   305.64
          (Kelvin)            360.63   431.46   465.38   605.55   613.38
                              737.90   803.00   894.97   899.54   926.60
                              997.29  1005.34  1020.17  1034.39  1114.80
                             1125.59  1200.71  1222.50  1244.62  1326.29
                             1385.04  1391.54  1431.71  1437.68  1471.01
                             1521.36  1563.25  1601.50  1605.23  1626.00
                             1719.83  1744.56  1772.10  1788.46  1857.45
                             1899.87  1967.14  1980.58  2029.25  2065.18
                             2097.00  2171.74  2220.63  2243.90  2291.63
                             2376.20  2397.09  2459.32  4442.34  4592.57
                             4604.19  4620.03  4629.74  4635.69  4687.52
                             4724.99  4736.97  4870.51

 Zero-point correction=                           0.186050 (Hartree/Particle)
 Thermal correction to Energy=                    0.196487
 Thermal correction to Enthalpy=                  0.197431
 Thermal correction to Gibbs Free Energy=         0.149108
 Sum of electronic and zero-point Energies=           -534.526162
 Sum of electronic and thermal Energies=              -534.515724
 Sum of electronic and thermal Enthalpies=            -534.514780
 Sum of electronic and thermal Free Energies=         -534.563103

                     E (Thermal)             CV                S
                      KCal/Mol        Cal/Mol-Kelvin    Cal/Mol-Kelvin
 Total                  123.297             40.892            101.705
 Electronic               0.000              0.000              0.000
 Translational            0.889              2.981             41.301
 Rotational               0.889              2.981             31.098
 Vibrational            121.520             34.931             29.306
 Vibration     1          0.596              1.976              4.696
 Vibration     2          0.598              1.967              4.105
 Vibration     3          0.604              1.950              3.490
 Vibration     4          0.611              1.927              2.997
 Vibration     5          0.643              1.822              2.023
 Vibration     6          0.663              1.762              1.726
 Vibration     7          0.692              1.674              1.418
 Vibration     8          0.708              1.629              1.293
 Vibration     9          0.783              1.425              0.889
 Vibration    10          0.788              1.413              0.871
 Vibration    11          0.868              1.221              0.627
 Vibration    12          0.914              1.122              0.528

 Optimization completed.
    -- Stationary point found.
 Normal termination of Gaussian 16 at Wed Dec  9 23:15:03 2020.

 ----------------------------------------------------------------------
 # B3LYP/6-311++G(d,p) empiricaldispersion=gd3bj scf=xqc pop=npa geom=c
 heck
 ----------------------------------------------------------------------

 --------------------------------------
 CID_91566999_JID_3420_Energie_neutraal
 --------------------------------------
 Structure from the checkpoint file:  "JID_3420.chk"
 Charge =  0 Multiplicity = 1

 SCF Done:  E(RB3LYP) =  -534.854521753     A.U. after   16 cycles
 Normal termination of Gaussian 16 at Wed Dec  9 23:16:54 2020.

 ----------------------------------------------------------------------
 # B3LYP/6-311++G(d,p) empiricaldispersion=gd3bj scf=xqc pop=npa geom=c
 heck
 ----------------------------------------------------------------------

 ------------------------------------
 CID_91566999_JID_3420_Energie_kation
 ------------------------------------
 Structure from the checkpoint file:  "JID_3420.chk"
 Charge =  1 Multiplicity = 2

 SCF Done:  E(UB3LYP) =  -534.557154756     A.U. after   31 cycles
 Normal termination of Gaussian 16 at Wed Dec  9 23:21:40 2020.
 Gaussian 16:  ES64L-G16RevA.03 25-Dec-2016

 ----------------------------------------------------------------------
 # B3LYP/6-311++G(d,p) empiricaldispersion=gd3bj scf=xqc pop=npa geom=c
 heck
 ----------------------------------------------------------------------

 -----------------------------------
 CID_91566999_JID_3420_Energie_anion
 -----------------------------------
 Structure from the checkpoint file:  "JID_3420.chk"
 Charge = -1 Multiplicity = 2

                         Standard orientation:
 ---------------------------------------------------------------------
 Center     Atomic      Atomic             Coordinates (Angstroms)
 Number     Number       Type             X           Y           Z
 ---------------------------------------------------------------------
      1          6           0       -3.982527   -0.309289   -0.089440
      2          6           0       -3.152491   -1.355914    0.314986
      3          6           0       -1.772596   -1.176002    0.384458
      4          6           0       -1.214945    0.055811    0.026864
      5          6           0       -2.041000    1.105355   -0.388127
      6          6           0       -3.421308    0.920916   -0.435077
      7          7           0        0.189189    0.240813    0.084522
      8          6           0        0.834947    1.406979    0.474883
      9          6           0        2.186892    1.197698    0.404340
     10          6           0        2.393376   -0.147230   -0.052813
     11          6           0        1.137751   -0.702284   -0.233569
     12          6           0        3.651032   -0.842339   -0.307719
     13          7           0        4.848341   -0.406937   -0.183357
     14          1           0       -5.057947   -0.451166   -0.134641
     15          1           0       -3.579869   -2.314449    0.594234
     16          1           0       -1.128600   -1.975222    0.736196
     17          1           0       -1.599446    2.048086   -0.693704
     18          1           0       -4.057777    1.739152   -0.758861
     19          1           0        0.263591    2.258861    0.810316
     20          1           0        2.950675    1.918164    0.663117
     21          1           0        0.850665   -1.673432   -0.607907
     22          1           0        3.543786   -1.877999   -0.650870
     23          1           0        4.837426    0.568674    0.141251
 ---------------------------------------------------------------------

 SCF Done:  E(UB3LYP) =  -534.847583470     A.U. after   33 cycles
 SCF Done:  E(UB3LYP) =  -534.847583470     a.u. after    2 cycles

 The electronic state is 2-A.
 Alpha  occ. eigenvalues --  -14.23262 -14.13898 -10.06535 -10.06480 -10.06292
 Alpha  occ. eigenvalues --  -10.04678 -10.04580 -10.04456 -10.04128 -10.03814
 Alpha  occ. eigenvalues --  -10.03568 -10.02818 -10.02564  -0.85812  -0.75266
 Alpha  occ. eigenvalues --   -0.72669  -0.66746  -0.62114  -0.59978  -0.59504
 Alpha  occ. eigenvalues --   -0.50683  -0.48943  -0.47083  -0.43062  -0.42561
 Alpha  occ. eigenvalues --   -0.40632  -0.37053  -0.33436  -0.33052  -0.30709
 Alpha  occ. eigenvalues --   -0.30449  -0.29612  -0.29399  -0.28577  -0.27314
 Alpha  occ. eigenvalues --   -0.23953  -0.23478  -0.23273  -0.21971  -0.20089
 Alpha  occ. eigenvalues --   -0.14560  -0.13133  -0.12431  -0.09944  -0.08920
 Alpha  occ. eigenvalues --    0.06075
 Alpha virt. eigenvalues --    0.08210   0.09231   0.09563   0.10406   0.10542
 Alpha virt. eigenvalues --    0.10974   0.11100   0.12040   0.12204   0.13377
 Alpha virt. eigenvalues --    0.14120   0.14770   0.14968   0.16174   0.16729

  Beta  occ. eigenvalues --  -14.23288 -14.13643 -10.06497 -10.06185 -10.06124
  Beta  occ. eigenvalues --  -10.04607 -10.04445 -10.04328 -10.04095 -10.03733
  Beta  occ. eigenvalues --  -10.03598 -10.02532 -10.02512  -0.85598  -0.74829
  Beta  occ. eigenvalues --   -0.72327  -0.66442  -0.61878  -0.59625  -0.59141
  Beta  occ. eigenvalues --   -0.50189  -0.48708  -0.46875  -0.42802  -0.42352
  Beta  occ. eigenvalues --   -0.40465  -0.36876  -0.33201  -0.32827  -0.30360
  Beta  occ. eigenvalues --   -0.30325  -0.29515  -0.29174  -0.28364  -0.27065
  Beta  occ. eigenvalues --   -0.23464  -0.23144  -0.23014  -0.21807  -0.19081
  Beta  occ. eigenvalues --   -0.13384  -0.12507  -0.12106  -0.08885  -0.07827
  Beta virt. eigenvalues --    0.08119   0.09134   0.09481   0.10371   0.10861
  Beta virt. eigenvalues --    0.11048   0.11111   0.11979   0.12053   0.12715
  Beta virt. eigenvalues --    0.13424   0.14162   0.14789   0.15716   0.16103

 Mulliken charges and spin densities:
               1          2
     1  C   -0.457119   0.232434
     2  C   -0.214283   0.055867
     3  C    0.122365   0.091167
     4  C   -0.307183  -0.113177
     5  C   -0.041736   0.132434
     6  C   -0.206814   0.040140
     7  N    0.475183  -0.012548
     8  C   -0.359883   0.019822
     9  C    0.379669  -0.010210
    10  C    0.601238  -0.007818
    11  C   -0.851687   0.290490
    12  C   -0.917962   0.052338
    13  N   -0.337502   0.132613
    14  H    0.091295  -0.019081
    15  H    0.128589   0.000875
    16  H    0.090857   0.040055
    17  H    0.066705   0.061419
    18  H    0.114070   0.012380
    19  H    0.105717   0.000252
    20  H    0.130979   0.001188
    21  H    0.103765   0.011597
    22  H    0.123794  -0.007315
    23  H    0.159940  -0.004922
 Sum of Mulliken charges =  -1.00000   1.00000

 Dipole moment (field-independent basis, Debye):
    X=             -4.3659    Y=              1.5036    Z=              0.6932  Tot=              4.6693
 Quadrupole moment (field-independent basis, Debye-Ang):
   XX=           -151.5793   YY=            -81.7972   ZZ=            -90.2698
   XY=              7.2034   XZ=              2.8309   YZ=              1.1807

 Summary of Natural Population Analysis:

                                       Natural Population
                Natural  -----------------------------------------------
    Atom  No    Charge         Core      Valence    Rydberg      Total
 -----------------------------------------------------------------------
      C    1   -0.06601      0.99957     2.05712    0.00932     3.06601
      C    2   -0.10722      0.99958     2.09911    0.00853     3.10722
      C    3   -0.09964      0.99954     2.09029    0.00982     3.09964
      C    4    0.13151      0.99947     1.85813    0.01088     2.86849
      C    5   -0.10856      0.99954     2.09994    0.00908     3.10856
      C    6   -0.10204      0.99958     2.09386    0.00860     3.10204
      N    7   -0.19774      0.99963     2.68908    0.00904     3.69774
      C    8   -0.01638      0.99958     2.00389    0.01291     3.01638
      C    9   -0.14642      0.99954     2.13854    0.00834     3.14642
      C   10   -0.09988      0.99951     2.09168    0.00870     3.09988
      C   11    0.07205      0.99953     1.91642    0.01199     2.92795
      C   12    0.07692      0.99966     1.90770    0.01572     2.92308
      N   13   -0.30741      0.99975     2.79704    0.01062     3.80741
      H   14    0.08704      0.00000     0.41155    0.00141     0.41296
      H   15    0.09181      0.00000     0.40730    0.00089     0.40819
      H   16    0.09958      0.00000     0.39934    0.00108     0.40042
      H   17    0.09796      0.00000     0.40084    0.00120     0.40204
      H   18    0.09061      0.00000     0.40802    0.00137     0.40939
      H   19    0.09700      0.00000     0.40211    0.00089     0.40300
      H   20    0.09776      0.00000     0.40106    0.00118     0.40224
      H   21    0.09476      0.00000     0.40439    0.00085     0.40524
      H   22    0.06830      0.00000     0.42979    0.00192     0.43170
      H   23    0.14599      0.00000     0.35175    0.00226     0.35401
 =======================================================================
   * Total *    0.00000     12.99447    31.85892    0.14661    45.00000

 Normal termination of Gaussian 16 at Wed Dec  9 23:31:10 2020.
