 Gaussian 16, Revision A.03,

 -----------------------------------------------------------
 # opt freq B3LYP/6-31G(d) empiricaldispersion=gd3bj scf=xqc
 -----------------------------------------------------------

 -------------------------------
 CID_101513865_JID_3009_neutraal
 -------------------------------
 Symbolic Z-matrix:
 Charge =  0 Multiplicity = 1

 SCF Done:  E(RB3LYP) =  -858.898594759     A.U. after   27 cycles
 SCF Done:  E(RB3LYP) =  -858.911482154     A.U. after   15 cycles
 SCF Done:  E(RB3LYP) =  -858.912706110     A.U. after   14 cycles
 SCF Done:  E(RB3LYP) =  -858.912749821     A.U. after   11 cycles
 SCF Done:  E(RB3LYP) =  -858.912752046     A.U. after    9 cycles
 Optimization completed.
    -- Stationary point found.

 1\1\GINC-NODE319\FOpt\RB3LYP\6-31G(d)\C12H6S1\VSC10255\09-Dec-2020\0\\
 # opt freq B3LYP/6-31G(d) empiricaldispersion=gd3bj scf=xqc\\CID_10151
 3865_JID_3009_neutraal\\0,1\C,-1.3205573831,0.56980632,-0.0581481263\C
 ,-0.3877678823,1.5303306397,-0.3847618829\C,0.8995653105,1.3651871922,
 -0.8086345249\C,1.2896355598,0.011145631,-0.9135347227\S,2.8762366058,
 -0.5734518053,-1.4290523064\C,2.3577049304,-2.2512623427,-1.2268372858
 \C,3.1479827174,-3.3974718675,-1.4681920303\C,2.492809635,-4.571379825
 8,-1.2297478815\C,1.1989890257,-4.7671523769,-0.7972194315\C,0.4441455

 Normal termination of Gaussian 16 at Wed Dec  9 22:17:33 2020.

 --------------------------------------------------------------------
 #N Geom=AllCheck Guess=TCheck SCRF=Check GenChk RB3LYP/6-31G(d) Freq
 --------------------------------------------------------------------

 Structure from the checkpoint file:  "JID_3009.chk"
 -------------------------------
 CID_101513865_JID_3009_neutraal
 -------------------------------
 Charge =  0 Multiplicity = 1

 SCF Done:  E(RB3LYP) =  -858.912752046     A.U. after    1 cycles

  Exact polarizability: 366.008   0.000 152.514   0.000   0.000  48.320
 Approx polarizability:6996.501   0.000 301.958   0.004  -0.000  77.274

                      1                      2                      3
                      A                      A                      A
 Frequencies --    108.4456               129.8767               211.2650
 Red. masses --      7.0121                 3.5499                 6.9709
 Frc consts  --      0.0486                 0.0353                 0.1833
 IR Inten    --      0.0113                 0.0000                 0.0006

                      4                      5                      6
                      A                      A                      A
 Frequencies --    216.5283               298.3447               301.2387
 Red. masses --      5.4224                 5.5148                 5.4539
 Frc consts  --      0.1498                 0.2892                 0.2916
 IR Inten    --      0.2728                 0.0000                24.4002

                      7                      8                      9
                      A                      A                      A
 Frequencies --    375.3673               412.7034               414.1320
 Red. masses --      3.2515                10.5940                 7.9453
 Frc consts  --      0.2699                 1.0631                 0.8029
 IR Inten    --      0.0000                 2.2864                 3.4786

                     10                     11                     12
                      A                      A                      A
 Frequencies --    425.7844               497.9006               511.8762
 Red. masses --      2.9635                11.8337                 5.6874
 Frc consts  --      0.3165                 1.7284                 0.8780
 IR Inten    --      2.0658                 0.2193                 4.9586

                     13                     14                     15
                      A                      A                      A
 Frequencies --    534.5050               555.7707               638.6325
 Red. masses --      3.2183                 8.6426                 4.3323
 Frc consts  --      0.5417                 1.5728                 1.0410
 IR Inten    --      0.0000               879.5181                 0.1143

                     16                     17                     18
                      A                      A                      A
 Frequencies --    652.3684               673.8083               691.7690
 Red. masses --      8.1071                 1.7862                 7.0297
 Frc consts  --      2.0328                 0.4778                 1.9820
 IR Inten    --     95.2206                 0.0000                 0.2770

                     19                     20                     21
                      A                      A                      A
 Frequencies --    751.4345               759.1270               779.6344
 Red. masses --      6.5926                 1.3360                 4.0006
 Frc consts  --      2.1933                 0.4536                 1.4327
 IR Inten    --      0.1337                49.7155                 0.0000

                     22                     23                     24
                      A                      A                      A
 Frequencies --    811.0761               811.7390               921.7583
 Red. masses --      1.3794                 1.4011                 7.0136
 Frc consts  --      0.5346                 0.5439                 3.5110
 IR Inten    --     22.6255                 0.0000               770.4023

                     25                     26                     27
                      A                      A                      A
 Frequencies --    926.4159               928.8525              1045.9412
 Red. masses --      1.3623                 1.3616                 6.1822
 Frc consts  --      0.6889                 0.6921                 3.9848
 IR Inten    --      0.3246                 0.0000                 5.9548

                     28                     29                     30
                      A                      A                      A
 Frequencies --   1057.7130              1061.0553              1071.3401
 Red. masses --      5.4893                 2.2127                 2.3193
 Frc consts  --      3.6183                 1.4678                 1.5684
 IR Inten    --     38.2556                 4.3783                 2.4195

                     31                     32                     33
                      A                      A                      A
 Frequencies --   1139.2669              1144.1176              1243.4339
 Red. masses --      1.5503                 1.3177                 1.7031
 Frc consts  --      1.1855                 1.0162                 1.5514
 IR Inten    --      0.6505                 1.1570                26.4024

                     34                     35                     36
                      A                      A                      A
 Frequencies --   1265.1237              1299.9727              1308.9224
 Red. masses --      1.7084                 4.5192                 2.5385
 Frc consts  --      1.6111                 4.4997                 2.5624
 IR Inten    --      2.6241                18.9571                 3.1888

                     37                     38                     39
                      A                      A                      A
 Frequencies --   1331.8517              1386.3531              1413.7932
 Red. masses --      2.3008                 2.6998                 2.2399
 Frc consts  --      2.4046                 3.0572                 2.6379
 IR Inten    --      2.1678                16.3088                57.0724

                     40                     41                     42
                      A                      A                      A
 Frequencies --   1442.2115              1453.3878              1524.9752
 Red. masses --      4.6482                 3.1043                 5.4519
 Frc consts  --      5.6963                 3.8634                 7.4701
 IR Inten    --     18.7561                 0.9167               237.0406

                     43                     44                     45
                      A                      A                      A
 Frequencies --   1560.9436              1623.5841              1633.1115
 Red. masses --      8.3010                 8.8134                 6.9792
 Frc consts  --     11.9167                13.6881                10.9670
 IR Inten    --      0.3639                 3.2458                 2.6614

                     46                     47                     48
                      A                      A                      A
 Frequencies --   3157.3659              3158.8788              3190.4437
 Red. masses --      1.0863                 1.0873                 1.0905
 Frc consts  --      6.3805                 6.3925                 6.5399
 IR Inten    --     16.3021                 0.9010                74.3600

                     49                     50                     51
                      A                      A                      A
 Frequencies --   3191.6116              3194.5680              3195.7019
 Red. masses --      1.0902                 1.0898                 1.0912
 Frc consts  --      6.5432                 6.5526                 6.5655
 IR Inten    --     15.8601                46.9364                 0.0215

 - Thermochemistry -
 -------------------
 Temperature   298.150 Kelvin.  Pressure   1.00000 Atm.
 Atom     1 has atomic number  6 and mass  12.00000

 Molecular mass:   182.01902 amu.
 Principal axes and moments of inertia in atomic units:
                           1         2         3
     Eigenvalues --  1152.535452923.860634076.39608
           X            1.00000   0.00000  -0.00000
           Y           -0.00000   1.00000  -0.00000
           Z            0.00000   0.00000   1.00000
 This molecule is an asymmetric top.
 Rotational symmetry number  1.
 Warning -- assumption of classical behavior for rotation
           may cause significant error
 Rotational temperatures (Kelvin)      0.07515     0.02962     0.02125
 Rotational constants (GHZ):           1.56589     0.61725     0.44273
 Zero-point vibrational energy     349525.0 (Joules/Mol)
                                   83.53849 (Kcal/Mol)
 Warning -- explicit consideration of  14 degrees of freedom as
           vibrations may cause significant error
 Vibrational temperatures:    156.03   186.86   303.96   311.54   429.25
          (Kelvin)            433.42   540.07   593.79   595.84   612.61
                              716.37   736.48   769.03   799.63   918.85
                              938.61   969.46   995.30  1081.15  1092.21
                             1121.72  1166.96  1167.91  1326.20  1332.91
                             1336.41  1504.88  1521.81  1526.62  1541.42
                             1639.15  1646.13  1789.02  1820.23  1870.37
                             1883.25  1916.24  1994.65  2034.13  2075.02
                             2091.10  2194.10  2245.85  2335.98  2349.68
                             4542.75  4544.92  4590.34  4592.02  4596.27
                             4597.90

 Zero-point correction=                           0.133127 (Hartree/Particle)
 Thermal correction to Energy=                    0.142655
 Thermal correction to Enthalpy=                  0.143599
 Thermal correction to Gibbs Free Energy=         0.098315
 Sum of electronic and zero-point Energies=           -858.779625
 Sum of electronic and thermal Energies=              -858.770097
 Sum of electronic and thermal Enthalpies=            -858.769153
 Sum of electronic and thermal Free Energies=         -858.814438

                     E (Thermal)             CV                S
                      KCal/Mol        Cal/Mol-Kelvin    Cal/Mol-Kelvin
 Total                   89.517             38.960             95.309
 Electronic               0.000              0.000              0.000
 Translational            0.889              2.981             41.503
 Rotational               0.889              2.981             30.997
 Vibrational             87.740             32.998             22.809
 Vibration     1          0.606              1.942              3.297
 Vibration     2          0.612              1.923              2.948
 Vibration     3          0.643              1.824              2.033
 Vibration     4          0.645              1.816              1.988
 Vibration     5          0.691              1.677              1.426
 Vibration     6          0.693              1.671              1.410
 Vibration     7          0.746              1.523              1.058
 Vibration     8          0.776              1.443              0.917
 Vibration     9          0.778              1.440              0.912
 Vibration    10          0.788              1.414              0.873
 Vibration    11          0.853              1.255              0.663
 Vibration    12          0.867              1.224              0.629
 Vibration    13          0.889              1.174              0.577
 Vibration    14          0.911              1.127              0.532

 Optimization completed.
    -- Stationary point found.

 1\1\GINC-NODE319\Freq\RB3LYP\6-31G(d)\C12H6S1\VSC10255\09-Dec-2020\0\\
 #N Geom=AllCheck Guess=TCheck SCRF=Check GenChk RB3LYP/6-31G(d) Freq\\
 CID_101513865_JID_3009_neutraal\\0,1\C,-1.3205573831,0.56980632,-0.058
 1481263\C,-0.3877678823,1.5303306397,-0.3847618829\C,0.8995653105,1.36
 51871922,-0.8086345249\C,1.2896355598,0.011145631,-0.9135347227\S,2.87
 62366058,-0.5734518053,-1.4290523064\C,2.3577049304,-2.2512623427,-1.2
 268372858\C,3.1479827174,-3.3974718675,-1.4681920303\C,2.492809635,-4.
 5713798258,-1.2297478815\C,1.1989890257,-4.7671523769,-0.7972194315\C,

 Normal termination of Gaussian 16 at Wed Dec  9 22:21:57 2020.

 ----------------------------------------------------------------------
 # B3LYP/6-311++G(d,p) empiricaldispersion=gd3bj scf=xqc pop=npa geom=c
 heck
 ----------------------------------------------------------------------

 ---------------------------------------
 CID_101513865_JID_3009_Energie_neutraal
 ---------------------------------------
 Structure from the checkpoint file:  "JID_3009.chk"
 Charge =  0 Multiplicity = 1

 SCF Done:  E(RB3LYP) =  -859.049683427     A.U. after   16 cycles
 Normal termination of Gaussian 16 at Wed Dec  9 22:23:30 2020.

 ----------------------------------------------------------------------
 # B3LYP/6-311++G(d,p) empiricaldispersion=gd3bj scf=xqc pop=npa geom=c
 heck
 ----------------------------------------------------------------------

 -------------------------------------
 CID_101513865_JID_3009_Energie_kation
 -------------------------------------
 Structure from the checkpoint file:  "JID_3009.chk"
 Charge =  1 Multiplicity = 2

 SCF Done:  E(UB3LYP) =  -858.797482100     A.U. after   31 cycles
 Normal termination of Gaussian 16 at Wed Dec  9 22:27:32 2020.
 Gaussian 16:  ES64L-G16RevA.03 25-Dec-2016

 ------------------------------------
 CID_101513865_JID_3009_Energie_anion
 ------------------------------------
 Structure from the checkpoint file:  "JID_3009.chk"
 Charge = -1 Multiplicity = 2

                         Standard orientation:
 ---------------------------------------------------------------------
 Center     Atomic      Atomic             Coordinates (Angstroms)
 Number     Number       Type             X           Y           Z
 ---------------------------------------------------------------------
      1          6           0       -2.973948    1.473031    0.000002
      2          6           0       -3.400096    0.162390   -0.000010
      3          6           0       -2.653927   -0.981026   -0.000001
      4          6           0       -1.260696   -0.745452    0.000003
      5         16           0        0.000000   -1.984588   -0.000001
      6          6           0        1.260696   -0.745452   -0.000000
      7          6           0        2.653927   -0.981026    0.000009
      8          6           0        3.400096    0.162390   -0.000007
      9          6           0        2.973948    1.473031   -0.000006
     10          6           0        1.587577    1.670304    0.000002
     11          6           0        0.726093    0.564859    0.000002
     12          6           0       -0.726093    0.564858    0.000001
     13          6           0       -1.587577    1.670304    0.000006
     14          1           0       -3.657597    2.317541    0.000022
     15          1           0       -3.066156   -1.985614   -0.000023
     16          1           0        3.066156   -1.985614    0.000031
     17          1           0        3.657597    2.317541   -0.000025
     18          1           0        1.178974    2.680144   -0.000001
     19          1           0       -1.178974    2.680144    0.000009
 ---------------------------------------------------------------------

 SCF Done:  E(UB3LYP) =  -859.162929719     A.U. after   20 cycles

 The electronic state is 2-A.
 Alpha  occ. eigenvalues --  -88.73953 -10.08052 -10.08051 -10.05442 -10.05407
 Alpha  occ. eigenvalues --  -10.05263 -10.05262 -10.04669 -10.04669 -10.04229
 Alpha  occ. eigenvalues --  -10.04229 -10.01840 -10.01840  -7.82624  -5.78973
 Alpha  occ. eigenvalues --   -5.78586  -5.78126  -0.76788  -0.71829  -0.67850
 Alpha  occ. eigenvalues --   -0.64056  -0.62079  -0.57600  -0.57130  -0.49605
 Alpha  occ. eigenvalues --   -0.46000  -0.44698  -0.43649  -0.39330  -0.34615
 Alpha  occ. eigenvalues --   -0.32699  -0.32108  -0.31601  -0.31123  -0.28312
 Alpha  occ. eigenvalues --   -0.28188  -0.27324  -0.25006  -0.23004  -0.22227
 Alpha  occ. eigenvalues --   -0.21144  -0.18725  -0.15265  -0.13277  -0.08983
 Alpha  occ. eigenvalues --   -0.08720  -0.06388  -0.05597
 Alpha virt. eigenvalues --    0.08781   0.09344   0.09608   0.10014   0.10583
 Alpha virt. eigenvalues --    0.11240   0.11331   0.11888   0.13791   0.14188
 Alpha virt. eigenvalues --    0.14716   0.15167   0.15452   0.15784   0.17069

  Beta  occ. eigenvalues --  -88.73942 -10.07992 -10.07992 -10.05459 -10.05423
  Beta  occ. eigenvalues --  -10.05202 -10.05202 -10.04676 -10.04676 -10.04230
  Beta  occ. eigenvalues --  -10.04230 -10.01065 -10.01065  -7.82616  -5.78926
  Beta  occ. eigenvalues --   -5.78588  -5.78120  -0.76672  -0.71396  -0.67551
  Beta  occ. eigenvalues --   -0.63624  -0.61897  -0.57472  -0.56496  -0.49293
  Beta  occ. eigenvalues --   -0.45818  -0.44297  -0.42938  -0.39127  -0.34290
  Beta  occ. eigenvalues --   -0.32326  -0.31826  -0.31199  -0.30543  -0.28164
  Beta  occ. eigenvalues --   -0.27915  -0.27024  -0.24602  -0.22836  -0.21992
  Beta  occ. eigenvalues --   -0.21054  -0.18641  -0.14999  -0.13296  -0.09035
  Beta  occ. eigenvalues --   -0.08315   0.00371
  Beta virt. eigenvalues --    0.02673   0.08819   0.09509   0.09677   0.10091
  Beta virt. eigenvalues --    0.10642   0.11295   0.11519   0.11991   0.14185
  Beta virt. eigenvalues --    0.14223   0.14762   0.15249   0.15503   0.16118

 Mulliken charges and spin densities:
               1          2
     1  C   -0.757540  -0.079393
     2  C    0.033264   0.599537
     3  C   -0.365169  -0.115320
     4  C   -0.968268   0.073570
     5  S   -0.812231   0.024444
     6  C   -0.968268   0.073570
     7  C   -0.365169  -0.115320
     8  C    0.033264   0.599537
     9  C   -0.757540  -0.079393
    10  C    0.066462   0.024905
    11  C    1.597713  -0.006790
    12  C    1.597713  -0.006790
    13  C    0.066462   0.024905
    14  H    0.119780   0.004367
    15  H    0.118261  -0.004597
    16  H    0.118261  -0.004597
    17  H    0.119780   0.004367
    18  H    0.061613  -0.008500
    19  H    0.061613  -0.008500
 Sum of Mulliken charges =  -1.00000   1.00000

 Dipole moment (field-independent basis, Debye):
    X=              0.0000    Y=              0.2681    Z=              0.0000  Tot=              0.2681
 Quadrupole moment (field-independent basis, Debye-Ang):
   XX=           -145.9071   YY=            -87.0655   ZZ=            -92.3941
   XY=              0.0000   XZ=             -0.0000   YZ=              0.0000

 Summary of Natural Population Analysis:

                                       Natural Population
                Natural  -----------------------------------------------
    Atom  No    Charge         Core      Valence    Rydberg      Total
 -----------------------------------------------------------------------
      C    1   -0.16316      0.99952     2.15222    0.01142     3.16316
      C    2    0.17739      0.99926     1.79783    0.02552     2.82261
      C    3   -0.16981      0.99945     2.15751    0.01285     3.16981
      C    4   -0.07045      0.99942     2.05993    0.01110     3.07045
      S    5    0.16619      4.99943     2.81383    0.02055     7.83381
      C    6   -0.07044      0.99942     2.05992    0.01110     3.07044
      C    7   -0.16981      0.99945     2.15751    0.01285     3.16981
      C    8    0.17740      0.99926     1.79783    0.02551     2.82260
      C    9   -0.16326      0.99952     2.15234    0.01141     3.16326
      C   10   -0.08427      0.99952     2.07267    0.01209     3.08427
      C   11   -0.06354      0.99943     2.05407    0.01004     3.06354
      C   12   -0.06329      0.99943     2.05380    0.01006     3.06329
      C   13   -0.08459      0.99952     2.07301    0.01205     3.08459
      H   14    0.09741      0.00000     0.40054    0.00205     0.40259
      H   15    0.10079      0.00000     0.39625    0.00295     0.39921
      H   16    0.10079      0.00000     0.39625    0.00295     0.39921
      H   17    0.09741      0.00000     0.40054    0.00205     0.40259
      H   18    0.09263      0.00000     0.40522    0.00214     0.40737
      H   19    0.09262      0.00000     0.40523    0.00215     0.40738
 =======================================================================
   * Total *    0.00000     16.99264    29.80651    0.20085    47.00000

 Normal termination of Gaussian 16 at Wed Dec  9 22:30:03 2020.
