 Gaussian 16, Revision A.03,

 -----------------------------------------------------------
 # opt freq B3LYP/6-31G(d) empiricaldispersion=gd3bj scf=xqc
 -----------------------------------------------------------

 ------------------------------
 CID_43314946_JID_6959_neutraal
 ------------------------------
 Symbolic Z-matrix:
 Charge =  0 Multiplicity = 1

 SCF Done:  E(RB3LYP) =  -652.680987196     A.U. after   14 cycles
 SCF Done:  E(RB3LYP) =  -652.686381222     A.U. after   12 cycles
 SCF Done:  E(RB3LYP) =  -652.687240831     A.U. after   12 cycles
 SCF Done:  E(RB3LYP) =  -652.687674936     A.U. after   12 cycles
 SCF Done:  E(RB3LYP) =  -652.688060541     A.U. after   11 cycles
 SCF Done:  E(RB3LYP) =  -652.688285593     A.U. after   11 cycles
 SCF Done:  E(RB3LYP) =  -652.688389671     A.U. after   11 cycles
 SCF Done:  E(RB3LYP) =  -652.688512719     A.U. after   11 cycles
 SCF Done:  E(RB3LYP) =  -652.688472309     A.U. after   11 cycles
 SCF Done:  E(RB3LYP) =  -652.688693183     A.U. after   11 cycles
 SCF Done:  E(RB3LYP) =  -652.689171590     A.U. after   10 cycles
 SCF Done:  E(RB3LYP) =  -652.689164116     A.U. after   10 cycles
 SCF Done:  E(RB3LYP) =  -652.689172306     A.U. after    9 cycles
 SCF Done:  E(RB3LYP) =  -652.689172443     A.U. after    7 cycles
 SCF Done:  E(RB3LYP) =  -652.689172454     A.U. after    6 cycles
 Optimization completed.
    -- Stationary point found.
 Normal termination of Gaussian 16 at Fri Dec 11 01:21:11 2020.

 --------------------------------------------------------------------
 #N Geom=AllCheck Guess=TCheck SCRF=Check GenChk RB3LYP/6-31G(d) Freq
 --------------------------------------------------------------------

 Structure from the checkpoint file:  "JID_6959.chk"
 ------------------------------
 CID_43314946_JID_6959_neutraal
 ------------------------------
 Charge =  0 Multiplicity = 1

 SCF Done:  E(RB3LYP) =  -652.689172454     A.U. after    1 cycles

  Exact polarizability: 204.554  -9.681 184.243  -1.243   0.785  85.039
 Approx polarizability: 299.687 -17.705 326.650   0.108   3.502 127.502

                      1                      2                      3
                      A                      A                      A
 Frequencies --     48.0959                66.9520                93.7610
 Red. masses --      3.4270                 3.5406                 3.0216
 Frc consts  --      0.0047                 0.0094                 0.0157
 IR Inten    --      0.2194                 0.0111                 0.0421

                      4                      5                      6
                      A                      A                      A
 Frequencies --     96.9092               168.7664               203.7315
 Red. masses --      3.0605                 3.9906                 3.6871
 Frc consts  --      0.0169                 0.0670                 0.0902
 IR Inten    --      1.1135                 0.9046                 1.2703

                      7                      8                      9
                      A                      A                      A
 Frequencies --    210.1067               282.1771               309.4060
 Red. masses --      3.3198                 4.6676                 1.5495
 Frc consts  --      0.0863                 0.2190                 0.0874
 IR Inten    --      4.7848                 0.3846                26.1529

                     10                     11                     12
                      A                      A                      A
 Frequencies --    319.0961               380.6305               420.6296
 Red. masses --      1.9479                 3.5661                 2.2876
 Frc consts  --      0.1169                 0.3044                 0.2385
 IR Inten    --     18.9879                 4.8199                 9.7942

                     13                     14                     15
                      A                      A                      A
 Frequencies --    441.9706               449.5735               469.0601
 Red. masses --      2.3105                 3.1047                 4.1378
 Frc consts  --      0.2659                 0.3697                 0.5364
 IR Inten    --     13.6150                 1.6123                 2.2518

                     16                     17                     18
                      A                      A                      A
 Frequencies --    483.7184               536.2258               557.8449
 Red. masses --      3.4811                 6.5601                 5.6916
 Frc consts  --      0.4799                 1.1114                 1.0436
 IR Inten    --      0.2825                 0.2586                 1.3252

                     19                     20                     21
                      A                      A                      A
 Frequencies --    592.3593               659.6187               666.2310
 Red. masses --      3.4666                 4.8994                 3.7783
 Frc consts  --      0.7167                 1.2560                 0.9881
 IR Inten    --      2.7123                 1.7144                 4.3729

                     22                     23                     24
                      A                      A                      A
 Frequencies --    712.6601               750.7191               788.6488
 Red. masses --      2.9286                 1.3498                 3.2817
 Frc consts  --      0.8764                 0.4482                 1.2026
 IR Inten    --      8.6487                 1.2393                10.7039

                     25                     26                     27
                      A                      A                      A
 Frequencies --    794.2833               806.4537               817.4046
 Red. masses --      1.9466                 4.5210                 2.0146
 Frc consts  --      0.7236                 1.7324                 0.7931
 IR Inten    --     40.0175                 6.7795                19.4538

                     28                     29                     30
                      A                      A                      A
 Frequencies --    828.4462               858.5640               874.7887
 Red. masses --      2.3859                 1.9001                 3.0326
 Frc consts  --      0.9648                 0.8252                 1.3673
 IR Inten    --     13.2726                 6.4417                 7.2189

                     31                     32                     33
                      A                      A                      A
 Frequencies --    883.0278               897.1234               921.4954
 Red. masses --      1.7264                 1.5136                 2.0882
 Frc consts  --      0.7931                 0.7177                 1.0447
 IR Inten    --      2.0904                 0.7609                75.6430

                     34                     35                     36
                      A                      A                      A
 Frequencies --    958.1076               960.5191               968.2054
 Red. masses --      2.2804                 1.7757                 1.3849
 Frc consts  --      1.2334                 0.9652                 0.7649
 IR Inten    --     11.6467                 2.9029                43.4153

                     37                     38                     39
                      A                      A                      A
 Frequencies --    970.8008               992.5935              1000.0948
 Red. masses --      1.3784                 1.2613                 1.8415
 Frc consts  --      0.7654                 0.7322                 1.0852
 IR Inten    --     41.5795                 0.6866                 2.8009

                     40                     41                     42
                      A                      A                      A
 Frequencies --   1015.2253              1055.5893              1074.2924
 Red. masses --      2.3668                 2.6185                 1.6361
 Frc consts  --      1.4372                 1.7191                 1.1125
 IR Inten    --      8.4784                10.6648                14.9960

                     43                     44                     45
                      A                      A                      A
 Frequencies --   1087.3500              1127.7581              1144.0830
 Red. masses --      2.3182                 2.0693                 1.5586
 Frc consts  --      1.6149                 1.5506                 1.2020
 IR Inten    --     37.0482                44.4233                 1.2121

                     46                     47                     48
                      A                      A                      A
 Frequencies --   1167.1747              1180.9496              1188.2914
 Red. masses --      3.2129                 1.3449                 1.1478
 Frc consts  --      2.5788                 1.1051                 0.9549
 IR Inten    --     16.9179                 0.9126                 0.7571

                     49                     50                     51
                      A                      A                      A
 Frequencies --   1191.9453              1214.7960              1234.8139
 Red. masses --      1.1689                 1.3856                 1.3674
 Frc consts  --      0.9784                 1.2047                 1.2284
 IR Inten    --      5.2719                 8.2831                20.9482

                     52                     53                     54
                      A                      A                      A
 Frequencies --   1246.7008              1258.8023              1285.5299
 Red. masses --      1.7624                 1.6609                 1.6403
 Frc consts  --      1.6139                 1.5506                 1.5971
 IR Inten    --     10.9638                16.7918                 2.5742

                     55                     56                     57
                      A                      A                      A
 Frequencies --   1295.6812              1304.6943              1332.9100
 Red. masses --      1.5361                 1.4658                 1.4016
 Frc consts  --      1.5194                 1.4701                 1.4672
 IR Inten    --      2.0019                10.7894                 4.6074

                     58                     59                     60
                      A                      A                      A
 Frequencies --   1348.1912              1358.7218              1393.9698
 Red. masses --      2.2149                 1.4546                 2.8565
 Frc consts  --      2.3720                 1.5822                 3.2703
 IR Inten    --     43.1241                 6.8716                 5.5225

                     61                     62                     63
                      A                      A                      A
 Frequencies --   1402.4149              1417.0756              1438.0352
 Red. masses --      1.4717                 7.6549                 1.3410
 Frc consts  --      1.7054                 9.0568                 1.6339
 IR Inten    --     36.9742                 1.1170                11.8702

                     64                     65                     66
                      A                      A                      A
 Frequencies --   1448.1212              1490.7615              1511.5248
 Red. masses --      2.3778                 2.1373                 2.4672
 Frc consts  --      2.9379                 2.7985                 3.3211
 IR Inten    --     70.9124                13.7109                26.3841

                     67                     68                     69
                      A                      A                      A
 Frequencies --   1522.3878              1531.5826              1555.6648
 Red. masses --      1.0923                 1.0923                 1.2056
 Frc consts  --      1.4915                 1.5096                 1.7190
 IR Inten    --      3.3410                 4.8014                10.2540

                     70                     71                     72
                      A                      A                      A
 Frequencies --   1567.7153              1635.0660              1655.3556
 Red. masses --      2.7565                 6.7611                 4.9919
 Frc consts  --      3.9915                10.6497                 8.0594
 IR Inten    --     10.5826                43.3723                18.5730

                     73                     74                     75
                      A                      A                      A
 Frequencies --   1683.0640              1698.6877              2930.4886
 Red. masses --      6.0633                 1.0901                 1.0721
 Frc consts  --     10.1195                 1.8533                 5.4244
 IR Inten    --      2.0316                23.2448                68.2490

                     76                     77                     78
                      A                      A                      A
 Frequencies --   2978.7202              3083.0626              3092.7412
 Red. masses --      1.0752                 1.0726                 1.0762
 Frc consts  --      5.6208                 6.0068                 6.0649
 IR Inten    --     62.6545                17.6071                66.8360

                     79                     80                     81
                      A                      A                      A
 Frequencies --   3100.6224              3126.1943              3138.2674
 Red. masses --      1.0890                 1.0966                 1.0989
 Frc consts  --      6.1685                 6.3144                 6.3763
 IR Inten    --     26.8003                10.9517                24.9221

                     82                     83                     84
                      A                      A                      A
 Frequencies --   3178.6144              3182.2749              3190.5246
 Red. masses --      1.0861                 1.0858                 1.0895
 Frc consts  --      6.4655                 6.4784                 6.5343
 IR Inten    --      1.9435                 1.6484                12.7804

                     85                     86                     87
                      A                      A                      A
 Frequencies --   3199.1707              3205.7238              3218.4079
 Red. masses --      1.0936                 1.0951                 1.0922
 Frc consts  --      6.5948                 6.6304                 6.6657
 IR Inten    --     37.2095                38.2211                16.2605

                     88                     89                     90
                      A                      A                      A
 Frequencies --   3226.2312              3442.2654              3528.8022
 Red. masses --      1.0925                 1.0494                 1.0917
 Frc consts  --      6.6997                 7.3261                 8.0093
 IR Inten    --     12.4295                 2.7577                 0.6804

 - Thermochemistry -
 -------------------
 Temperature   298.150 Kelvin.  Pressure   1.00000 Atm.
 Atom     1 has atomic number  6 and mass  12.00000

 Molecular mass:   212.13135 amu.
 Principal axes and moments of inertia in atomic units:
                           1         2         3
     Eigenvalues --  1806.369954940.430886157.51503
           X            1.00000  -0.00121  -0.00110
           Y            0.00121   0.99999  -0.00359
           Z            0.00110   0.00359   0.99999
 This molecule is an asymmetric top.
 Rotational symmetry number  1.
 Warning -- assumption of classical behavior for rotation
           may cause significant error
 Rotational temperatures (Kelvin)      0.04795     0.01753     0.01407
 Rotational constants (GHZ):           0.99910     0.36530     0.29310
 Zero-point vibrational energy     724505.4 (Joules/Mol)
                                  173.16094 (Kcal/Mol)
 Warning -- explicit consideration of  19 degrees of freedom as
           vibrations may cause significant error
 Vibrational temperatures:     69.20    96.33   134.90   139.43   242.82
          (Kelvin)            293.12   302.30   405.99   445.17   459.11
                              547.64   605.19   635.90   646.84   674.87
                              695.96   771.51   802.61   852.27   949.04
                              958.56  1025.36  1080.12  1134.69  1142.80
                             1160.31  1176.06  1191.95  1235.28  1258.63
                             1270.48  1290.76  1325.83  1378.50  1381.97
                             1393.03  1396.77  1428.12  1438.91  1460.68
                             1518.76  1545.67  1564.45  1622.59  1646.08
                             1679.30  1699.12  1709.69  1714.94  1747.82
                             1776.62  1793.72  1811.14  1849.59  1864.20
                             1877.16  1917.76  1939.75  1954.90  2005.61
                             2017.76  2038.86  2069.01  2083.52  2144.87
                             2174.75  2190.38  2203.61  2238.25  2255.59
                             2352.50  2381.69  2421.55  2444.03  4216.32
                             4285.71  4435.84  4449.76  4461.10  4497.90
                             4515.27  4573.32  4578.58  4590.45  4602.89
                             4612.32  4630.57  4641.83  4952.65  5077.16

 Zero-point correction=                           0.275950 (Hartree/Particle)
 Thermal correction to Energy=                    0.288846
 Thermal correction to Enthalpy=                  0.289790
 Thermal correction to Gibbs Free Energy=         0.236305
 Sum of electronic and zero-point Energies=           -652.413223
 Sum of electronic and thermal Energies=              -652.400327
 Sum of electronic and thermal Enthalpies=            -652.399383
 Sum of electronic and thermal Free Energies=         -652.452868

                     E (Thermal)             CV                S
                      KCal/Mol        Cal/Mol-Kelvin    Cal/Mol-Kelvin
 Total                  181.253             52.816            112.568
 Electronic               0.000              0.000              0.000
 Translational            0.889              2.981             41.960
 Rotational               0.889              2.981             32.374
 Vibrational            179.476             46.854             38.234
 Vibration     1          0.595              1.978              4.894
 Vibration     2          0.598              1.970              4.241
 Vibration     3          0.603              1.954              3.580
 Vibration     4          0.603              1.951              3.516
 Vibration     5          0.625              1.881              2.449
 Vibration     6          0.639              1.835              2.099
 Vibration     7          0.642              1.825              2.043
 Vibration     8          0.681              1.707              1.520
 Vibration     9          0.699              1.656              1.366
 Vibration    10          0.705              1.637              1.315
 Vibration    11          0.750              1.511              1.037
 Vibration    12          0.783              1.425              0.890
 Vibration    13          0.802              1.379              0.820
 Vibration    14          0.808              1.362              0.797
 Vibration    15          0.826              1.319              0.740
 Vibration    16          0.840              1.286              0.700
 Vibration    17          0.891              1.170              0.573
 Vibration    18          0.913              1.123              0.528
 Vibration    19          0.950              1.048              0.463

 Optimization completed.
    -- Stationary point found.
 Normal termination of Gaussian 16 at Fri Dec 11 01:31:25 2020.

 ----------------------------------------------------------------------
 # B3LYP/6-311++G(d,p) empiricaldispersion=gd3bj scf=xqc pop=npa geom=c
 heck
 ----------------------------------------------------------------------

 --------------------------------------
 CID_43314946_JID_6959_Energie_neutraal
 --------------------------------------
 Structure from the checkpoint file:  "JID_6959.chk"
 Charge =  0 Multiplicity = 1

 SCF Done:  E(RB3LYP) =  -652.862538493     A.U. after   15 cycles
 Normal termination of Gaussian 16 at Fri Dec 11 01:35:34 2020.

 ----------------------------------------------------------------------
 # B3LYP/6-311++G(d,p) empiricaldispersion=gd3bj scf=xqc pop=npa geom=c
 heck
 ----------------------------------------------------------------------

 ------------------------------------
 CID_43314946_JID_6959_Energie_kation
 ------------------------------------
 Structure from the checkpoint file:  "JID_6959.chk"
 Charge =  1 Multiplicity = 2

 SCF Done:  E(UB3LYP) =  -652.596583437     A.U. after   24 cycles
 Normal termination of Gaussian 16 at Fri Dec 11 01:44:25 2020.
 Gaussian 16:  ES64L-G16RevA.03 25-Dec-2016

 ----------------------------------------------------------------------
 # B3LYP/6-311++G(d,p) empiricaldispersion=gd3bj scf=xqc pop=npa geom=c
 heck
 ----------------------------------------------------------------------

 -----------------------------------
 CID_43314946_JID_6959_Energie_anion
 -----------------------------------
 Structure from the checkpoint file:  "JID_6959.chk"
 Charge = -1 Multiplicity = 2

                         Standard orientation:
 ---------------------------------------------------------------------
 Center     Atomic      Atomic             Coordinates (Angstroms)
 Number     Number       Type             X           Y           Z
 ---------------------------------------------------------------------
      1          6           0       -3.161930   -0.780242    1.097396
      2          6           0       -1.668705   -0.452826    1.316490
      3          7           0       -1.260290    0.185068    0.047442
      4          6           0       -2.407943    1.002200   -0.334699
      5          6           0       -3.566945   -0.002325   -0.183740
      6          7           0       -3.705241   -0.936688   -1.305589
      7          6           0        0.037939    0.741567   -0.005481
      8          6           0        0.257853    2.107169   -0.037446
      9          6           0        1.569583    2.635187   -0.054872
     10          6           0        2.661802    1.803070   -0.020363
     11          6           0        2.485259    0.393785   -0.019733
     12          6           0        3.593161   -0.494245   -0.025429
     13          6           0        3.411799   -1.856807   -0.087559
     14          6           0        2.105635   -2.392337   -0.170316
     15          6           0        1.009545   -1.558606   -0.152382
     16          6           0        1.161960   -0.151973   -0.045901
     17          1           0       -3.758867   -0.473293    1.960651
     18          1           0       -3.336867   -1.847133    0.936091
     19          1           0       -1.539737    0.254997    2.152722
     20          1           0       -1.054333   -1.329140    1.529752
     21          1           0       -2.291587    1.382496   -1.354494
     22          1           0       -2.557479    1.865057    0.343211
     23          1           0       -4.524257    0.513402   -0.060105
     24          1           0       -3.963853   -0.419761   -2.146276
     25          1           0       -2.782593   -1.331044   -1.495807
     26          1           0       -0.583864    2.790701   -0.025438
     27          1           0        1.703807    3.713243   -0.072939
     28          1           0        3.670612    2.206887   -0.011318
     29          1           0        4.594647   -0.072520    0.009341
     30          1           0        4.270203   -2.522609   -0.094077
     31          1           0        1.968339   -3.466130   -0.261837
     32          1           0        0.010466   -1.965502   -0.258230
 ---------------------------------------------------------------------

 SCF Done:  E(UB3LYP) =  -652.856731090     A.U. after   33 cycles
 SCF Done:  E(UB3LYP) =  -652.856731090     a.u. after    1 cycles

 The electronic state is 2-A.
 Alpha  occ. eigenvalues --  -14.19946 -14.18692 -10.09342 -10.08410 -10.08190
 Alpha  occ. eigenvalues --  -10.06745 -10.06164 -10.05139 -10.04958 -10.04312
 Alpha  occ. eigenvalues --  -10.04112 -10.04042 -10.03682 -10.03478 -10.03186
 Alpha  occ. eigenvalues --  -10.03089  -0.83608  -0.77625  -0.73731  -0.69036
 Alpha  occ. eigenvalues --   -0.66041  -0.62775  -0.61297  -0.60298  -0.58138
 Alpha  occ. eigenvalues --   -0.51131  -0.48785  -0.48540  -0.46641  -0.45157
 Alpha  occ. eigenvalues --   -0.41321  -0.38609  -0.38306  -0.37135  -0.36389
 Alpha  occ. eigenvalues --   -0.34704  -0.33390  -0.32521  -0.30815  -0.29680
 Alpha  occ. eigenvalues --   -0.28905  -0.27941  -0.27596  -0.27380  -0.25981
 Alpha  occ. eigenvalues --   -0.24970  -0.24442  -0.24110  -0.23236  -0.21117
 Alpha  occ. eigenvalues --   -0.20681  -0.20139  -0.16637  -0.14173  -0.12179
 Alpha  occ. eigenvalues --   -0.11769  -0.08077   0.04790
 Alpha virt. eigenvalues --    0.06653   0.08205   0.08324   0.08628   0.09332
 Alpha virt. eigenvalues --    0.09830   0.10608   0.10862   0.11515   0.11626
 Alpha virt. eigenvalues --    0.11899   0.12264   0.13444   0.13626   0.13969

  Beta  occ. eigenvalues --  -14.19969 -14.18672 -10.09327 -10.08379 -10.08178
  Beta  occ. eigenvalues --  -10.06521 -10.06156 -10.05191 -10.05008 -10.04286
  Beta  occ. eigenvalues --  -10.04062 -10.03980 -10.03649 -10.03255 -10.02987
  Beta  occ. eigenvalues --  -10.02891  -0.83536  -0.77553  -0.73544  -0.68766
  Beta  occ. eigenvalues --   -0.65845  -0.62576  -0.61122  -0.60197  -0.57848
  Beta  occ. eigenvalues --   -0.50904  -0.48681  -0.48261  -0.46580  -0.45005
  Beta  occ. eigenvalues --   -0.41222  -0.38460  -0.38178  -0.36999  -0.36305
  Beta  occ. eigenvalues --   -0.34620  -0.33342  -0.32459  -0.30729  -0.29571
  Beta  occ. eigenvalues --   -0.28787  -0.27843  -0.27379  -0.27283  -0.25680
  Beta  occ. eigenvalues --   -0.24833  -0.24332  -0.24054  -0.23180  -0.20970
  Beta  occ. eigenvalues --   -0.20589  -0.19399  -0.15852  -0.14126  -0.11638
  Beta  occ. eigenvalues --   -0.11320  -0.07153
  Beta virt. eigenvalues --    0.07204   0.08195   0.08603   0.08729   0.09131
  Beta virt. eigenvalues --    0.09481   0.09905   0.10758   0.10948   0.11524
  Beta virt. eigenvalues --    0.11641   0.11995   0.12325   0.13621   0.13894

 Mulliken charges and spin densities:
               1          2
     1  C    0.449575  -1.035515
     2  C   -0.553957   0.347447
     3  N    0.337543   0.005532
     4  C    0.858781  -1.034243
     5  C   -0.703475   0.414713
     6  N   -0.137671  -0.138485
     7  C    0.390711  -0.205319
     8  C   -0.323862   0.279501
     9  C   -0.700471   0.197583
    10  C   -0.326069  -0.048169
    11  C    0.251930   0.113556
    12  C   -0.244551   0.185664
    13  C   -0.305435   0.012501
    14  C   -0.338403  -0.156451
    15  C   -0.137487  -0.029019
    16  C    0.183512   0.222855
    17  H    0.006333   0.112078
    18  H    0.164594   0.005986
    19  H    0.031601   0.102840
    20  H    0.093802   0.042075
    21  H   -0.115258   0.302455
    22  H    0.105749  -0.019666
    23  H   -0.678228   0.890033
    24  H    0.052555   0.170660
    25  H    0.211277   0.026399
    26  H   -0.076074   0.179015
    27  H    0.088664   0.040126
    28  H    0.074806  -0.014646
    29  H    0.079810  -0.000833
    30  H    0.103838   0.001211
    31  H    0.104665   0.016514
    32  H    0.051197   0.013604
 Sum of Mulliken charges =  -1.00000   1.00000

 Dipole moment (field-independent basis, Debye):
    X=              2.2975    Y=             -0.8588    Z=              1.1771  Tot=              2.7206
 Quadrupole moment (field-independent basis, Debye-Ang):
   XX=           -160.8768   YY=           -121.5852   ZZ=           -116.7186
   XY=              2.8668   XZ=             -3.5240   YZ=              0.1687

 Summary of Natural Population Analysis:

                                       Natural Population
                Natural  -----------------------------------------------
    Atom  No    Charge         Core      Valence    Rydberg      Total
 -----------------------------------------------------------------------
      C    1   -0.19957      0.99962     2.19092    0.00904     3.19957
      C    2   -0.07731      0.99962     2.06992    0.00776     3.07731
      N    3   -0.27871      0.99968     2.76752    0.01152     3.77871
      C    4   -0.09231      0.99961     2.07926    0.01345     3.09231
      C    5   -0.01695      0.99961     2.00272    0.01462     3.01695
      N    6   -0.42382      0.99977     2.91339    0.01066     3.92382
      C    7    0.12966      0.99945     1.85906    0.01183     2.87034
      C    8   -0.12284      0.99952     2.11430    0.00902     3.12284
      C    9   -0.09415      0.99958     2.08479    0.00979     3.09415
      C   10   -0.07133      0.99953     2.06305    0.00874     3.07133
      C   11   -0.03432      0.99950     2.02665    0.00818     3.03432
      C   12   -0.05743      0.99954     2.04923    0.00866     3.05743
      C   13   -0.10719      0.99957     2.09833    0.00928     3.10719
      C   14   -0.09980      0.99957     2.09051    0.00972     3.09980
      C   15   -0.06458      0.99954     2.05629    0.00875     3.06458
      C   16   -0.03973      0.99946     2.03108    0.00918     3.03973
      H   17    0.10005      0.00000     0.39900    0.00094     0.39995
      H   18    0.10259      0.00000     0.39619    0.00122     0.39741
      H   19    0.08185      0.00000     0.41674    0.00141     0.41815
      H   20    0.09984      0.00000     0.39885    0.00130     0.40016
      H   21    0.10024      0.00000     0.39817    0.00159     0.39976
      H   22    0.08246      0.00000     0.41560    0.00194     0.41754
      H   23    0.09316      0.00000     0.40480    0.00204     0.40684
      H   24    0.17218      0.00000     0.32616    0.00166     0.32782
      H   25    0.17560      0.00000     0.32212    0.00228     0.32440
      H   26    0.09686      0.00000     0.40170    0.00144     0.40314
      H   27    0.09175      0.00000     0.40742    0.00083     0.40825
      H   28    0.08856      0.00000     0.41015    0.00129     0.41144
      H   29    0.08796      0.00000     0.41062    0.00142     0.41204
      H   30    0.09048      0.00000     0.40854    0.00097     0.40952
      H   31    0.09026      0.00000     0.40849    0.00124     0.40974
      H   32    0.09655      0.00000     0.40181    0.00164     0.40345
 =======================================================================
   * Total *    0.00000     15.99316    40.82340    0.18344    57.00000

 Normal termination of Gaussian 16 at Fri Dec 11 01:56:29 2020.
