 Gaussian 16, Revision A.03,

 -----------------------------------------------------------
 # opt freq B3LYP/6-31G(d) empiricaldispersion=gd3bj scf=xqc
 -----------------------------------------------------------

 ------------------------------
 CID_59462858_JID_4050_neutraal
 ------------------------------
 Symbolic Z-matrix:
 Charge =  0 Multiplicity = 1

 SCF Done:  E(RB3LYP) =  -689.209673021     A.U. after   15 cycles
 SCF Done:  E(RB3LYP) =  -689.213274186     A.U. after   13 cycles
 SCF Done:  E(RB3LYP) =  -689.213653608     A.U. after   13 cycles
 SCF Done:  E(RB3LYP) =  -689.213453065     A.U. after   12 cycles
 SCF Done:  E(RB3LYP) =  -689.213883758     A.U. after   12 cycles
 SCF Done:  E(RB3LYP) =  -689.213987689     A.U. after   11 cycles
 SCF Done:  E(RB3LYP) =  -689.214028186     A.U. after   10 cycles
 SCF Done:  E(RB3LYP) =  -689.214036264     A.U. after   10 cycles
 SCF Done:  E(RB3LYP) =  -689.214046012     A.U. after    9 cycles
 SCF Done:  E(RB3LYP) =  -689.214048744     A.U. after    9 cycles
 SCF Done:  E(RB3LYP) =  -689.214049525     A.U. after    9 cycles
 SCF Done:  E(RB3LYP) =  -689.214049738     A.U. after    8 cycles
 Optimization completed.
    -- Stationary point found.
 Normal termination of Gaussian 16 at Thu Dec 10 09:13:41 2020.

 --------------------------------------------------------------------
 #N Geom=AllCheck Guess=TCheck SCRF=Check GenChk RB3LYP/6-31G(d) Freq
 --------------------------------------------------------------------

 Structure from the checkpoint file:  "JID_4050.chk"
 ------------------------------
 CID_59462858_JID_4050_neutraal
 ------------------------------
 Charge =  0 Multiplicity = 1

 SCF Done:  E(RB3LYP) =  -689.214049738     A.U. after    1 cycles

  Exact polarizability: 175.524  -2.859 112.668   0.004  -0.002  70.889
 Approx polarizability: 215.886  -6.204 214.484   0.006  -0.007 100.259

                      1                      2                      3
                      A                      A                      A
 Frequencies --     35.5006                49.8258                74.5925
 Red. masses --      4.3308                 5.2880                 2.9954
 Frc consts  --      0.0032                 0.0077                 0.0098
 IR Inten    --      0.0945                 0.5659                 0.8194

                      4                      5                      6
                      A                      A                      A
 Frequencies --     90.9221               109.5825               136.6293
 Red. masses --      5.0964                 2.4347                 1.3438
 Frc consts  --      0.0248                 0.0172                 0.0148
 IR Inten    --      0.9702                 2.8087                 0.1426

                      7                      8                      9
                      A                      A                      A
 Frequencies --    152.8880               175.2907               196.0483
 Red. masses --      4.0820                 3.4986                 1.5794
 Frc consts  --      0.0562                 0.0633                 0.0358
 IR Inten    --      1.5940                 0.2614                 0.0422

                     10                     11                     12
                      A                      A                      A
 Frequencies --    214.8687               220.5031               224.6543
 Red. masses --      1.8398                 2.1819                 1.7612
 Frc consts  --      0.0500                 0.0625                 0.0524
 IR Inten    --      0.2300                 0.1565                 0.6008

                     13                     14                     15
                      A                      A                      A
 Frequencies --    286.4253               322.0067               327.3947
 Red. masses --      4.1906                 3.1093                 3.7801
 Frc consts  --      0.2026                 0.1900                 0.2387
 IR Inten    --      2.0886                 5.8491                19.8227

                     16                     17                     18
                      A                      A                      A
 Frequencies --    396.9956               462.5462               494.2329
 Red. masses --      4.2360                 5.4464                 6.8386
 Frc consts  --      0.3933                 0.6865                 0.9842
 IR Inten    --      1.3409                 4.1945                 0.4824

                     19                     20                     21
                      A                      A                      A
 Frequencies --    582.2824               602.0448               618.7066
 Red. masses --      3.9899                 4.2311                 4.3922
 Frc consts  --      0.7970                 0.9036                 0.9906
 IR Inten    --     13.2249                 0.0473                 2.1421

                     22                     23                     24
                      A                      A                      A
 Frequencies --    629.4633               757.5911               774.5300
 Red. masses --      9.7771                 6.7985                 4.4273
 Frc consts  --      2.2824                 2.2990                 1.5648
 IR Inten    --      7.8271                13.0945                 8.5883

                     25                     26                     27
                      A                      A                      A
 Frequencies --    809.9023               826.2295               883.0874
 Red. masses --      5.5707                 1.3777                 2.6645
 Frc consts  --      2.1529                 0.5541                 1.2243
 IR Inten    --     12.2743                26.3051                29.7077

                     28                     29                     30
                      A                      A                      A
 Frequencies --    896.5903               941.5009               950.2950
 Red. masses --      1.3564                 3.5455                 1.1845
 Frc consts  --      0.6424                 1.8517                 0.6302
 IR Inten    --      0.0011                26.8646                 0.9199

                     31                     32                     33
                      A                      A                      A
 Frequencies --    964.6613               983.6802              1008.2420
 Red. masses --      5.5377                 1.4503                 3.8568
 Frc consts  --      3.0362                 0.8268                 2.3100
 IR Inten    --      6.0270                 0.1720                93.0219

                     34                     35                     36
                      A                      A                      A
 Frequencies --   1045.8949              1063.1274              1125.6711
 Red. masses --      4.1567                 1.2745                 2.5428
 Frc consts  --      2.6790                 0.8487                 1.8984
 IR Inten    --      5.2124                28.2623                 0.4149

                     37                     38                     39
                      A                      A                      A
 Frequencies --   1165.1111              1186.0381              1193.8150
 Red. masses --      2.0937                 1.2711                 2.9928
 Frc consts  --      1.6745                 1.0535                 2.5131
 IR Inten    --      1.6224                 0.8630               156.5959

                     40                     41                     42
                      A                      A                      A
 Frequencies --   1206.0160              1227.1649              1261.8006
 Red. masses --      1.9294                 1.7421                 2.4127
 Frc consts  --      1.6534                 1.5457                 2.2632
 IR Inten    --     14.5115               100.2983                94.5968

                     43                     44                     45
                      A                      A                      A
 Frequencies --   1299.8843              1343.6181              1356.8171
 Red. masses --      5.5383                 5.7927                 1.4093
 Frc consts  --      5.5136                 6.1615                 1.5286
 IR Inten    --    621.4219                89.1741                 6.2305

                     46                     47                     48
                      A                      A                      A
 Frequencies --   1372.3546              1424.8407              1429.6538
 Red. masses --      1.3061                 4.7581                 1.2128
 Frc consts  --      1.4493                 5.6914                 1.4605
 IR Inten    --      1.2487                11.6930                 2.7348

                     49                     50                     51
                      A                      A                      A
 Frequencies --   1451.2615              1491.0578              1512.1358
 Red. masses --      1.2507                 1.2352                 1.0475
 Frc consts  --      1.5520                 1.6180                 1.4112
 IR Inten    --      3.1431                14.8325                 6.3213

                     52                     53                     54
                      A                      A                      A
 Frequencies --   1517.6610              1523.1280              1524.8240
 Red. masses --      1.0476                 1.0441                 1.0686
 Frc consts  --      1.4216                 1.4271                 1.4639
 IR Inten    --      0.4297                 1.9556                11.3443

                     55                     56                     57
                      A                      A                      A
 Frequencies --   1532.0860              1539.7857              1542.5342
 Red. masses --      1.1164                 1.0617                 4.3517
 Frc consts  --      1.5439                 1.4831                 6.1007
 IR Inten    --      5.6192                19.9199                 2.1835

                     58                     59                     60
                      A                      A                      A
 Frequencies --   1612.1686              1768.0289              1825.6518
 Red. masses --      5.9944                11.7121                11.9202
 Frc consts  --      9.1794                21.5706                23.4082
 IR Inten    --     36.8606               137.3693               271.2033

                     61                     62                     63
                      A                      A                      A
 Frequencies --   3056.8076              3059.6794              3075.5204
 Red. masses --      1.0353                 1.0361                 1.0855
 Frc consts  --      5.6995                 5.7149                 6.0495
 IR Inten    --     25.0971                19.1073                 4.3821

                     64                     65                     66
                      A                      A                      A
 Frequencies --   3077.1828              3122.4648              3124.1657
 Red. masses --      1.0296                 1.1026                 1.1025
 Frc consts  --      5.7442                 6.3341                 6.3401
 IR Inten    --     36.1855                 9.1697                39.0307

                     67                     68                     69
                      A                      A                      A
 Frequencies --   3133.5531              3138.7080              3152.0549
 Red. masses --      1.1020                 1.1003                 1.1076
 Frc consts  --      6.3754                 6.3864                 6.4838
 IR Inten    --      5.1453                60.4914                19.2229

                     70                     71                     72
                      A                      A                      A
 Frequencies --   3186.2910              3287.8328              3300.0034
 Red. masses --      1.1071                 1.0931                 1.1011
 Frc consts  --      6.6224                 6.9620                 7.0647
 IR Inten    --     16.7408                 2.6346                 0.5496

 - Thermochemistry -
 -------------------
 Temperature   298.150 Kelvin.  Pressure   1.00000 Atm.
 Atom     1 has atomic number  6 and mass  12.00000

 Molecular mass:   196.07356 amu.
 Principal axes and moments of inertia in atomic units:
                           1         2         3
     Eigenvalues --   952.377515761.807856304.50381
           X            0.99997   0.00792  -0.00000
           Y           -0.00792   0.99997  -0.00001
           Z            0.00000   0.00001   1.00000
 This molecule is an asymmetric top.
 Rotational symmetry number  1.
 Warning -- assumption of classical behavior for rotation
           may cause significant error
 Rotational temperatures (Kelvin)      0.09094     0.01503     0.01374
 Rotational constants (GHZ):           1.89499     0.31322     0.28626
 Zero-point vibrational energy     547029.0 (Joules/Mol)
                                  130.74307 (Kcal/Mol)
 Warning -- explicit consideration of  21 degrees of freedom as
           vibrations may cause significant error
 Vibrational temperatures:     51.08    71.69   107.32   130.82   157.66
          (Kelvin)            196.58   219.97   252.20   282.07   309.15
                              317.25   323.23   412.10   463.30   471.05
                              571.19   665.50   711.09   837.77   866.21
                              890.18   905.66  1090.00  1114.38  1165.27
                             1188.76  1270.57  1289.99  1354.61  1367.26
                             1387.93  1415.30  1450.64  1504.81  1529.60
                             1619.59  1676.33  1706.44  1717.63  1735.19
                             1765.62  1815.45  1870.24  1933.17  1952.16
                             1974.51  2050.03  2056.95  2088.04  2145.30
                             2175.63  2183.58  2191.44  2193.88  2204.33
                             2215.41  2219.36  2319.55  2543.80  2626.71
                             4398.06  4402.20  4424.99  4427.38  4492.53
                             4494.98  4508.48  4515.90  4535.10  4584.36
                             4730.46  4747.97

 Zero-point correction=                           0.208352 (Hartree/Particle)
 Thermal correction to Energy=                    0.222761
 Thermal correction to Enthalpy=                  0.223705
 Thermal correction to Gibbs Free Energy=         0.166021
 Sum of electronic and zero-point Energies=           -689.005697
 Sum of electronic and thermal Energies=              -688.991289
 Sum of electronic and thermal Enthalpies=            -688.990345
 Sum of electronic and thermal Free Energies=         -689.048029

                     E (Thermal)             CV                S
                      KCal/Mol        Cal/Mol-Kelvin    Cal/Mol-Kelvin
 Total                  139.784             51.147            121.407
 Electronic               0.000              0.000              0.000
 Translational            0.889              2.981             41.725
 Rotational               0.889              2.981             31.915
 Vibrational            138.007             45.186             47.767
 Vibration     1          0.594              1.982              5.496
 Vibration     2          0.595              1.978              4.824
 Vibration     3          0.599              1.966              4.028
 Vibration     4          0.602              1.956              3.640
 Vibration     5          0.606              1.942              3.276
 Vibration     6          0.614              1.917              2.851
 Vibration     7          0.619              1.899              2.636
 Vibration     8          0.627              1.873              2.378
 Vibration     9          0.636              1.845              2.170
 Vibration    10          0.645              1.818              2.002
 Vibration    11          0.647              1.810              1.955
 Vibration    12          0.649              1.804              1.921
 Vibration    13          0.684              1.699              1.495
 Vibration    14          0.707              1.631              1.300
 Vibration    15          0.711              1.621              1.273
 Vibration    16          0.763              1.477              0.974
 Vibration    17          0.820              1.333              0.759
 Vibration    18          0.850              1.263              0.673
 Vibration    19          0.939              1.070              0.481
 Vibration    20          0.960              1.027              0.446
 Vibration    21          0.979              0.992              0.419

                           ! Non-Optimized Parameters !
 Normal termination of Gaussian 16 at Thu Dec 10 09:19:12 2020.

 ----------------------------------------------------------------------
 # B3LYP/6-311++G(d,p) empiricaldispersion=gd3bj scf=xqc pop=npa geom=c
 heck
 ----------------------------------------------------------------------

 --------------------------------------
 CID_59462858_JID_4050_Energie_neutraal
 --------------------------------------
 Structure from the checkpoint file:  "JID_4050.chk"
 Charge =  0 Multiplicity = 1

 SCF Done:  E(RB3LYP) =  -689.412224444     A.U. after   15 cycles
 Normal termination of Gaussian 16 at Thu Dec 10 09:21:19 2020.

 ----------------------------------------------------------------------
 # B3LYP/6-311++G(d,p) empiricaldispersion=gd3bj scf=xqc pop=npa geom=c
 heck
 ----------------------------------------------------------------------

 ------------------------------------
 CID_59462858_JID_4050_Energie_kation
 ------------------------------------
 Structure from the checkpoint file:  "JID_4050.chk"
 Charge =  1 Multiplicity = 2

 SCF Done:  E(UB3LYP) =  -689.081286207     A.U. after   30 cycles
 Normal termination of Gaussian 16 at Thu Dec 10 09:26:57 2020.
 Gaussian 16:  ES64L-G16RevA.03 25-Dec-2016

 ----------------------------------------------------------------------
 # B3LYP/6-311++G(d,p) empiricaldispersion=gd3bj scf=xqc pop=npa geom=c
 heck
 ----------------------------------------------------------------------

 -----------------------------------
 CID_59462858_JID_4050_Energie_anion
 -----------------------------------
 Structure from the checkpoint file:  "JID_4050.chk"
 Charge = -1 Multiplicity = 2

                         Standard orientation:
 ---------------------------------------------------------------------
 Center     Atomic      Atomic             Coordinates (Angstroms)
 Number     Number       Type             X           Y           Z
 ---------------------------------------------------------------------
      1          6           0       -3.704173   -0.643688   -1.278385
      2          6           0       -3.460529    0.177211   -0.000056
      3          6           0       -3.704203   -0.643870    1.278208
      4          6           0       -2.093129    0.862696   -0.000023
      5          8           0       -1.999094    2.079464    0.000138
      6          6           0       -0.868289    0.032052   -0.000206
      7          6           0       -0.611226   -1.323857    0.000376
      8          6           0        0.798965   -1.473152    0.000256
      9          6           0        1.312858   -0.198810   -0.000059
     10          8           0        0.312596    0.715192   -0.000232
     11          6           0        2.689740    0.318146    0.000048
     12          8           0        2.999006    1.488731    0.000436
     13          8           0        3.568712   -0.711194   -0.000273
     14          6           0        4.950536   -0.319531   -0.000203
     15          1           0       -3.054350   -1.521831   -1.338397
     16          1           0       -3.533789   -0.037893   -2.174605
     17          1           0       -4.741601   -0.995042   -1.300366
     18          1           0       -4.159843    1.020164    0.000012
     19          1           0       -3.056072   -1.523338    1.336944
     20          1           0       -3.531579   -0.038903    2.174560
     21          1           0       -4.742298   -0.993163    1.301219
     22          1           0       -1.342445   -2.117180    0.000354
     23          1           0        1.372178   -2.388054    0.000475
     24          1           0        5.179437    0.274888   -0.888475
     25          1           0        5.180559    0.270433    0.890780
     26          1           0        5.516751   -1.250803   -0.002802
 ---------------------------------------------------------------------

 SCF Done:  E(UB3LYP) =  -689.440446928     A.U. after   22 cycles

 The electronic state is 2-A.
 Alpha  occ. eigenvalues --  -19.03026 -19.01800 -18.95249 -18.92614 -10.14109
 Alpha  occ. eigenvalues --  -10.11423 -10.07628 -10.06740 -10.06412 -10.05208
 Alpha  occ. eigenvalues --  -10.04994 -10.04992 -10.03038 -10.02768  -0.97019
 Alpha  occ. eigenvalues --   -0.95506  -0.87365  -0.86675  -0.67940  -0.65788
 Alpha  occ. eigenvalues --   -0.63317  -0.59304  -0.57588  -0.51276  -0.47925
 Alpha  occ. eigenvalues --   -0.45893  -0.43040  -0.40678  -0.38201  -0.36226
 Alpha  occ. eigenvalues --   -0.33827  -0.33548  -0.32104  -0.31667  -0.30473
 Alpha  occ. eigenvalues --   -0.30036  -0.28860  -0.27986  -0.27421  -0.26971
 Alpha  occ. eigenvalues --   -0.26349  -0.24004  -0.23859  -0.23384  -0.21804
 Alpha  occ. eigenvalues --   -0.21057  -0.20653  -0.17795  -0.14374  -0.13617
 Alpha  occ. eigenvalues --   -0.09505  -0.08848   0.03416
 Alpha virt. eigenvalues --    0.07823   0.08002   0.09891   0.09985   0.11169
 Alpha virt. eigenvalues --    0.11824   0.12209   0.12316   0.12334   0.13216
 Alpha virt. eigenvalues --    0.13979   0.14105   0.14878   0.16556   0.17442

  Beta  occ. eigenvalues --  -19.02945 -19.01429 -18.94972 -18.92092 -10.13946
  Beta  occ. eigenvalues --  -10.11428 -10.07388 -10.06516 -10.06242 -10.05229
  Beta  occ. eigenvalues --  -10.04977 -10.04976 -10.03055 -10.02714  -0.96704
  Beta  occ. eigenvalues --   -0.94977  -0.86929  -0.85762  -0.67785  -0.65526
  Beta  occ. eigenvalues --   -0.62931  -0.59002  -0.57544  -0.50685  -0.47608
  Beta  occ. eigenvalues --   -0.45767  -0.42745  -0.40450  -0.37959  -0.35873
  Beta  occ. eigenvalues --   -0.33693  -0.33403  -0.31834  -0.30595  -0.30231
  Beta  occ. eigenvalues --   -0.29499  -0.28557  -0.27870  -0.27269  -0.26798
  Beta  occ. eigenvalues --   -0.25351  -0.23639  -0.23606  -0.23151  -0.21577
  Beta  occ. eigenvalues --   -0.20864  -0.18590  -0.16803  -0.13333  -0.13267
  Beta  occ. eigenvalues --   -0.08369  -0.07652
  Beta virt. eigenvalues --    0.07807   0.07969   0.09670   0.09860   0.10050
  Beta virt. eigenvalues --    0.11141   0.11801   0.12222   0.12288   0.13195
  Beta virt. eigenvalues --    0.13880   0.14001   0.14485   0.14860   0.16549

 Mulliken charges and spin densities:
               1          2
     1  C   -0.588563   0.016931
     2  C    0.492670  -0.025588
     3  C   -0.588759   0.016882
     4  C   -0.432238   0.098500
     5  O   -0.376597   0.189437
     6  C    0.178786   0.165720
     7  C   -0.434806   0.053140
     8  C   -0.131288   0.014297
     9  C   -0.414988   0.200169
    10  O   -0.056517   0.084083
    11  C    0.435256   0.063820
    12  O   -0.344951   0.095434
    13  O   -0.132054   0.014936
    14  C   -0.219557  -0.002876
    15  H    0.126091  -0.005006
    16  H    0.147897  -0.001608
    17  H    0.094632   0.012713
    18  H    0.191801  -0.002720
    19  H    0.126088  -0.004989
    20  H    0.148018  -0.001632
    21  H    0.094691   0.012717
    22  H    0.099351  -0.000586
    23  H    0.151068   0.001323
    24  H    0.157529   0.002636
    25  H    0.157311   0.002689
    26  H    0.119128  -0.000423
 Sum of Mulliken charges =  -1.00000   1.00000

 Dipole moment (field-independent basis, Debye):
    X=              0.1680    Y=             -6.1289    Z=             -0.0010  Tot=              6.1312
 Quadrupole moment (field-independent basis, Debye-Ang):
   XX=           -106.8391   YY=           -106.8433   ZZ=            -89.1059
   XY=              0.2474   XZ=             -0.0041   YZ=             -0.0034

 Summary of Natural Population Analysis:

                                       Natural Population
                Natural  -----------------------------------------------
    Atom  No    Charge         Core      Valence    Rydberg      Total
 -----------------------------------------------------------------------
      C    1   -0.27986      0.99966     2.27554    0.00467     3.27986
      C    2   -0.14600      0.99959     2.13787    0.00854     3.14600
      C    3   -0.27985      0.99966     2.27553    0.00467     3.27985
      C    4    0.27689      0.99959     1.70182    0.02170     2.72311
      O    5   -0.23757      0.99988     3.23040    0.00728     4.23757
      C    6    0.14376      0.99944     1.84273    0.01407     2.85624
      C    7   -0.14373      0.99954     2.13668    0.00752     3.14373
      C    8   -0.14544      0.99954     2.13750    0.00840     3.14544
      C    9    0.13872      0.99943     1.84782    0.01403     2.86128
      O   10   -0.17598      0.99985     3.16683    0.00931     4.17598
      C   11    0.39546      0.99964     1.58188    0.02301     2.60454
      O   12   -0.28450      0.99987     3.27822    0.00640     4.28450
      O   13   -0.28001      0.99987     3.27181    0.00833     4.28001
      C   14   -0.10619      0.99962     2.09773    0.00884     3.10619
      H   15    0.09696      0.00000     0.40200    0.00104     0.40304
      H   16    0.10058      0.00000     0.39862    0.00080     0.39942
      H   17    0.08839      0.00000     0.41056    0.00105     0.41161
      H   18    0.09653      0.00000     0.40063    0.00284     0.40347
      H   19    0.09693      0.00000     0.40203    0.00104     0.40307
      H   20    0.10059      0.00000     0.39861    0.00080     0.39941
      H   21    0.08839      0.00000     0.41055    0.00105     0.41161
      H   22    0.09671      0.00000     0.40232    0.00097     0.40329
      H   23    0.10278      0.00000     0.39630    0.00093     0.39722
      H   24    0.08724      0.00000     0.41145    0.00131     0.41276
      H   25    0.08716      0.00000     0.41153    0.00131     0.41284
      H   26    0.08205      0.00000     0.41708    0.00087     0.41795
 =======================================================================
   * Total *    0.00000     13.99516    37.84405    0.16079    52.00000

 Normal termination of Gaussian 16 at Thu Dec 10 09:31:29 2020.
