 Gaussian 16, Revision A.03,

 -----------------------------------------------------------
 # opt freq B3LYP/6-31G(d) empiricaldispersion=gd3bj scf=xqc
 -----------------------------------------------------------

 -------------------------------
 CID_140315904_JID_5486_neutraal
 -------------------------------
 Symbolic Z-matrix:
 Charge =  0 Multiplicity = 1

 SCF Done:  E(RB3LYP) =  -659.121740558     A.U. after   14 cycles
 SCF Done:  E(RB3LYP) =  -659.124521069     A.U. after   11 cycles
 SCF Done:  E(RB3LYP) =  -659.125028288     A.U. after   11 cycles
 SCF Done:  E(RB3LYP) =  -659.125053073     A.U. after   11 cycles
 SCF Done:  E(RB3LYP) =  -659.125210643     A.U. after   10 cycles
 SCF Done:  E(RB3LYP) =  -659.125262472     A.U. after   10 cycles
 SCF Done:  E(RB3LYP) =  -659.125285457     A.U. after   10 cycles
 SCF Done:  E(RB3LYP) =  -659.125290001     A.U. after    9 cycles
 SCF Done:  E(RB3LYP) =  -659.125290790     A.U. after    8 cycles
 SCF Done:  E(RB3LYP) =  -659.125290991     A.U. after    7 cycles
 SCF Done:  E(RB3LYP) =  -659.125291074     A.U. after    7 cycles
 SCF Done:  E(RB3LYP) =  -659.125291196     A.U. after    8 cycles
 SCF Done:  E(RB3LYP) =  -659.125291258     A.U. after    7 cycles
 SCF Done:  E(RB3LYP) =  -659.125291278     A.U. after    7 cycles
 Optimization completed.
    -- Stationary point found.
 Normal termination of Gaussian 16 at Thu Dec 10 16:24:37 2020.

 --------------------------------------------------------------------
 #N Geom=AllCheck Guess=TCheck SCRF=Check GenChk RB3LYP/6-31G(d) Freq
 --------------------------------------------------------------------

 Structure from the checkpoint file:  "JID_5486.chk"
 -------------------------------
 CID_140315904_JID_5486_neutraal
 -------------------------------
 Charge =  0 Multiplicity = 1

 SCF Done:  E(RB3LYP) =  -659.125291278     A.U. after    1 cycles

  Exact polarizability: 161.312  -4.203 148.275  -9.315  -1.918 109.393
 Approx polarizability: 209.511  -1.948 214.285 -19.924  -5.093 163.914

                      1                      2                      3
                      A                      A                      A
 Frequencies --     20.8557                34.4329                47.3042
 Red. masses --      3.1808                 4.5944                 2.9121
 Frc consts  --      0.0008                 0.0032                 0.0038
 IR Inten    --      0.0747                 0.2170                 0.0182

                      4                      5                      6
                      A                      A                      A
 Frequencies --     53.9247                61.2787                91.8207
 Red. masses --      3.5154                 4.1035                 3.6161
 Frc consts  --      0.0060                 0.0091                 0.0180
 IR Inten    --      0.3001                 0.3757                 2.3344

                      7                      8                      9
                      A                      A                      A
 Frequencies --    117.0745               131.6222               177.8124
 Red. masses --      4.1047                 3.2733                 2.5206
 Frc consts  --      0.0331                 0.0334                 0.0470
 IR Inten    --      0.7519                 0.8456                 6.5659

                     10                     11                     12
                      A                      A                      A
 Frequencies --    203.2655               231.6053               253.7580
 Red. masses --      2.7298                 1.0458                 1.5350
 Frc consts  --      0.0665                 0.0331                 0.0582
 IR Inten    --      1.9046                 0.0226                 7.2151

                     13                     14                     15
                      A                      A                      A
 Frequencies --    268.8001               295.3193               320.6374
 Red. masses --      1.3269                 2.1734                 1.9828
 Frc consts  --      0.0565                 0.1117                 0.1201
 IR Inten    --     12.3118                12.7458                31.9958

                     16                     17                     18
                      A                      A                      A
 Frequencies --    322.4666               352.6999               367.7204
 Red. masses --      1.6371                 2.3891                 2.2707
 Frc consts  --      0.1003                 0.1751                 0.1809
 IR Inten    --     57.1251                 0.2784                 1.1176

                     19                     20                     21
                      A                      A                      A
 Frequencies --    397.1158               430.9003               482.9069
 Red. masses --      2.4592                 2.4427                 2.2995
 Frc consts  --      0.2285                 0.2672                 0.3159
 IR Inten    --      3.6126                 0.7406                 2.4799

                     22                     23                     24
                      A                      A                      A
 Frequencies --    496.5147               559.5955               610.1226
 Red. masses --      2.6675                 2.6073                 3.1713
 Frc consts  --      0.3875                 0.4811                 0.6955
 IR Inten    --      0.3270                 1.2230                 0.1280

                     25                     26                     27
                      A                      A                      A
 Frequencies --    668.0039               688.1793               716.1035
 Red. masses --      3.2528                 2.3899                 3.0964
 Frc consts  --      0.8552                 0.6669                 0.9355
 IR Inten    --      0.2126                 1.4388                 3.6925

                     28                     29                     30
                      A                      A                      A
 Frequencies --    736.9663               769.2901               800.5114
 Red. masses --      1.6986                 2.2828                 1.2360
 Frc consts  --      0.5435                 0.7960                 0.4667
 IR Inten    --      6.0305                 4.1778                35.2762

                     31                     32                     33
                      A                      A                      A
 Frequencies --    841.4755               846.5514               848.3318
 Red. masses --      1.4451                 2.1540                 1.9297
 Frc consts  --      0.6029                 0.9095                 0.8182
 IR Inten    --      0.5552                 4.3898                 0.8926

                     34                     35                     36
                      A                      A                      A
 Frequencies --    886.3474               923.6510               944.1710
 Red. masses --      2.6968                 1.9571                 1.1679
 Frc consts  --      1.2483                 0.9838                 0.6134
 IR Inten    --      0.0649                17.1608                 1.1929

                     37                     38                     39
                      A                      A                      A
 Frequencies --    949.8851               971.7817               983.2616
 Red. masses --      2.1567                 1.5480                 3.4063
 Frc consts  --      1.1465                 0.8613                 1.9403
 IR Inten    --      0.9471                 0.0073                10.3685

                     40                     41                     42
                      A                      A                      A
 Frequencies --    988.1369              1009.8564              1019.2578
 Red. masses --      3.0811                 2.0112                 1.6953
 Frc consts  --      1.7725                 1.2084                 1.0377
 IR Inten    --      2.5673                19.0098                 1.4695

                     43                     44                     45
                      A                      A                      A
 Frequencies --   1040.2167              1056.2152              1084.5680
 Red. masses --      1.3974                 1.7293                 1.8826
 Frc consts  --      0.8909                 1.1367                 1.3047
 IR Inten    --     37.9551                 1.2391                20.5357

                     46                     47                     48
                      A                      A                      A
 Frequencies --   1095.9614              1116.5877              1125.0886
 Red. masses --      2.1720                 2.2128                 2.1133
 Frc consts  --      1.5371                 1.6254                 1.5761
 IR Inten    --     77.7181                 9.8674                 0.5795

                     49                     50                     51
                      A                      A                      A
 Frequencies --   1132.2690              1160.4627              1181.5696
 Red. masses --      2.2294                 1.3437                 1.2449
 Frc consts  --      1.6840                 1.0662                 1.0240
 IR Inten    --      1.9739                10.5298                 6.4173

                     52                     53                     54
                      A                      A                      A
 Frequencies --   1190.7697              1227.0310              1235.8292
 Red. masses --      1.8163                 1.3875                 2.0473
 Frc consts  --      1.5174                 1.2308                 1.8422
 IR Inten    --      1.6051                 4.9117                 7.2987

                     55                     56                     57
                      A                      A                      A
 Frequencies --   1245.5514              1273.0903              1274.9029
 Red. masses --      1.3115                 2.8058                 1.9668
 Frc consts  --      1.1988                 2.6793                 1.8835
 IR Inten    --     12.2621                 7.1047                 1.7377

                     58                     59                     60
                      A                      A                      A
 Frequencies --   1310.5522              1344.7406              1349.7044
 Red. masses --      1.2531                 1.1568                 1.3254
 Frc consts  --      1.2681                 1.2325                 1.4226
 IR Inten    --      2.6914                 1.9708                 1.7908

                     61                     62                     63
                      A                      A                      A
 Frequencies --   1360.4809              1375.6418              1382.3824
 Red. masses --      1.6897                 1.5165                 1.3581
 Frc consts  --      1.8427                 1.6908                 1.5291
 IR Inten    --     12.5527                 2.9604                 8.8375

                     64                     65                     66
                      A                      A                      A
 Frequencies --   1399.6601              1407.6020              1414.6263
 Red. masses --      1.5315                 1.1999                 1.3728
 Frc consts  --      1.7677                 1.4007                 1.6186
 IR Inten    --      1.5658                24.6107                 2.3532

                     67                     68                     69
                      A                      A                      A
 Frequencies --   1421.6321              1422.5880              1424.8584
 Red. masses --      2.0663                 1.2266                 1.4426
 Frc consts  --      2.4605                 1.4625                 1.7255
 IR Inten    --      3.5180                 2.8065                 1.3076

                     70                     71                     72
                      A                      A                      A
 Frequencies --   1442.3186              1446.4013              1501.4351
 Red. masses --      1.2973                 1.2947                 1.0871
 Frc consts  --      1.5900                 1.5958                 1.4438
 IR Inten    --     39.4333                 4.1721                 6.0698

                     73                     74                     75
                      A                      A                      A
 Frequencies --   1507.0280              1517.2127              1520.2168
 Red. masses --      1.1015                 1.0423                 1.0812
 Frc consts  --      1.4740                 1.4136                 1.4722
 IR Inten    --      1.9831                 1.4966                 7.4810

                     76                     77                     78
                      A                      A                      A
 Frequencies --   1522.6505              1524.8514              1531.4383
 Red. masses --      1.0534                 1.0893                 1.0442
 Frc consts  --      1.4389                 1.4923                 1.4429
 IR Inten    --      0.7694                 4.3290                 5.9764

                     79                     80                     81
                      A                      A                      A
 Frequencies --   1539.9932              1542.2280              1544.0590
 Red. masses --      1.0678                 1.0808                 1.0912
 Frc consts  --      1.4920                 1.5145                 1.5329
 IR Inten    --      5.6928                 6.9812                 2.8935

                     82                     83                     84
                      A                      A                      A
 Frequencies --   1614.3089              1668.9188              2999.9626
 Red. masses --      7.4497                 6.3992                 1.0718
 Frc consts  --     11.4383                10.5014                 5.6832
 IR Inten    --     17.1484                 5.4530                47.2611

                     85                     86                     87
                      A                      A                      A
 Frequencies --   3025.7980              3033.5419              3038.7351
 Red. masses --      1.0697                 1.0688                 1.0625
 Frc consts  --      5.7705                 5.7949                 5.7807
 IR Inten    --     22.2431                16.5822                50.4170

                     88                     89                     90
                      A                      A                      A
 Frequencies --   3045.6481              3049.2892              3049.9333
 Red. masses --      1.0620                 1.0344                 1.0842
 Frc consts  --      5.8039                 5.6665                 5.9422
 IR Inten    --     32.0862                26.1358                15.7666

                     91                     92                     93
                      A                      A                      A
 Frequencies --   3053.1272              3053.7112              3073.6947
 Red. masses --      1.0486                 1.0502                 1.0973
 Frc consts  --      5.7589                 5.7699                 6.1078
 IR Inten    --     29.9831                11.8052                15.5727

                     94                     95                     96
                      A                      A                      A
 Frequencies --   3081.2263              3088.6113              3097.4745
 Red. masses --      1.0987                 1.0958                 1.0987
 Frc consts  --      6.1458                 6.1590                 6.2110
 IR Inten    --     45.5182                67.9459                74.0139

                     97                     98                     99
                      A                      A                      A
 Frequencies --   3100.7713              3102.4796              3118.3724
 Red. masses --      1.0965                 1.0936                 1.1030
 Frc consts  --      6.2114                 6.2021                 6.3196
 IR Inten    --     26.8115                32.1742                 3.6784

                    100                    101                    102
                      A                      A                      A
 Frequencies --   3123.1662              3125.3063              3129.4844
 Red. masses --      1.1027                 1.1033                 1.1024
 Frc consts  --      6.3374                 6.3492                 6.3612
 IR Inten    --     61.3392                23.2886                39.7146

                    103                    104                    105
                      A                      A                      A
 Frequencies --   3257.2451              3270.3194              3752.9626
 Red. masses --      1.0928                 1.1007                 1.0659
 Frc consts  --      6.8313                 6.9361                 8.8455
 IR Inten    --      8.8723                 3.0211                 6.4016

 - Thermochemistry -
 -------------------
 Temperature   298.150 Kelvin.  Pressure   1.00000 Atm.
 Atom     1 has atomic number  6 and mass  12.00000

 Molecular mass:   210.16198 amu.
 Principal axes and moments of inertia in atomic units:
                           1         2         3
     Eigenvalues --  1995.699966006.356117212.23683
           X            0.99970  -0.02438  -0.00199
           Y            0.02437   0.99970  -0.00347
           Z            0.00207   0.00342   0.99999
 This molecule is an asymmetric top.
 Rotational symmetry number  1.
 Warning -- assumption of classical behavior for rotation
           may cause significant error
 Rotational temperatures (Kelvin)      0.04340     0.01442     0.01201
 Rotational constants (GHZ):           0.90431     0.30047     0.25023
 Zero-point vibrational energy     873691.5 (Joules/Mol)
                                  208.81729 (Kcal/Mol)
 Warning -- explicit consideration of  24 degrees of freedom as
           vibrations may cause significant error
 Vibrational temperatures:     30.01    49.54    68.06    77.59    88.17
          (Kelvin)            132.11   168.44   189.37   255.83   292.45
                              333.23   365.10   386.74   424.90   461.33
                              463.96   507.46   529.07   571.36   619.97
                              694.80   714.37   805.13   877.83   961.11
                              990.14  1030.31  1060.33  1106.84  1151.76
                             1210.70  1218.00  1220.56  1275.26  1328.93
                             1358.45  1366.67  1398.18  1414.69  1421.71
                             1452.96  1466.48  1496.64  1519.66  1560.45
                             1576.84  1606.52  1618.75  1629.08  1669.65
                             1700.02  1713.25  1765.42  1778.08  1792.07
                             1831.69  1834.30  1885.59  1934.78  1941.92
                             1957.43  1979.24  1988.94  2013.80  2025.23
                             2035.33  2045.41  2046.79  2050.05  2075.17
                             2081.05  2160.23  2168.28  2182.93  2187.25
                             2190.75  2193.92  2203.40  2215.71  2218.92
                             2221.56  2322.63  2401.20  4316.28  4353.45
                             4364.59  4372.06  4382.01  4387.25  4388.17
                             4392.77  4393.61  4422.36  4433.20  4443.82
                             4456.57  4461.32  4463.78  4486.64  4493.54
                             4496.62  4502.63  4686.45  4705.26  5399.68

 Zero-point correction=                           0.332772 (Hartree/Particle)
 Thermal correction to Energy=                    0.349553
 Thermal correction to Enthalpy=                  0.350498
 Thermal correction to Gibbs Free Energy=         0.286381
 Sum of electronic and zero-point Energies=           -658.792520
 Sum of electronic and thermal Energies=              -658.775738
 Sum of electronic and thermal Enthalpies=            -658.774794
 Sum of electronic and thermal Free Energies=         -658.838911

                     E (Thermal)             CV                S
                      KCal/Mol        Cal/Mol-Kelvin    Cal/Mol-Kelvin
 Total                  219.348             62.289            134.945
 Electronic               0.000              0.000              0.000
 Translational            0.889              2.981             41.932
 Rotational               0.889              2.981             32.825
 Vibrational            217.571             56.327             60.189
 Vibration     1          0.593              1.986              6.551
 Vibration     2          0.594              1.983              5.556
 Vibration     3          0.595              1.979              4.927
 Vibration     4          0.596              1.976              4.668
 Vibration     5          0.597              1.973              4.416
 Vibration     6          0.602              1.955              3.621
 Vibration     7          0.608              1.935              3.148
 Vibration     8          0.612              1.922              2.922
 Vibration     9          0.628              1.870              2.351
 Vibration    10          0.639              1.835              2.103
 Vibration    11          0.653              1.793              1.866
 Vibration    12          0.665              1.756              1.704
 Vibration    13          0.673              1.731              1.604
 Vibration    14          0.690              1.682              1.443
 Vibration    15          0.706              1.634              1.307
 Vibration    16          0.707              1.630              1.298
 Vibration    17          0.729              1.570              1.154
 Vibration    18          0.740              1.539              1.089
 Vibration    19          0.764              1.476              0.973
 Vibration    20          0.792              1.403              0.856
 Vibration    21          0.839              1.288              0.702
 Vibration    22          0.852              1.258              0.667
 Vibration    23          0.915              1.119              0.525
 Vibration    24          0.969              1.010              0.433

 Optimization completed.
    -- Stationary point found.
 Normal termination of Gaussian 16 at Thu Dec 10 16:37:57 2020.

 ----------------------------------------------------------------------
 # B3LYP/6-311++G(d,p) empiricaldispersion=gd3bj scf=xqc pop=npa geom=c
 heck
 ----------------------------------------------------------------------

 ---------------------------------------
 CID_140315904_JID_5486_Energie_neutraal
 ---------------------------------------
 Structure from the checkpoint file:  "JID_5486.chk"
 Charge =  0 Multiplicity = 1

 SCF Done:  E(RB3LYP) =  -659.318142127     A.U. after   14 cycles
 Normal termination of Gaussian 16 at Thu Dec 10 16:44:53 2020.

 ----------------------------------------------------------------------
 # B3LYP/6-311++G(d,p) empiricaldispersion=gd3bj scf=xqc pop=npa geom=c
 heck
 ----------------------------------------------------------------------

 -------------------------------------
 CID_140315904_JID_5486_Energie_kation
 -------------------------------------
 Structure from the checkpoint file:  "JID_5486.chk"
 Charge =  1 Multiplicity = 2

 SCF Done:  E(UB3LYP) =  -659.030632362     A.U. after   23 cycles
 Normal termination of Gaussian 16 at Thu Dec 10 17:01:03 2020.
 Gaussian 16:  ES64L-G16RevA.03 25-Dec-2016

 ----------------------------------------------------------------------
 # B3LYP/6-311++G(d,p) empiricaldispersion=gd3bj scf=xqc pop=npa geom=c
 heck
 ----------------------------------------------------------------------

 ------------------------------------
 CID_140315904_JID_5486_Energie_anion
 ------------------------------------
 Structure from the checkpoint file:  "JID_5486.chk"
 Charge = -1 Multiplicity = 2

                         Standard orientation:
 ---------------------------------------------------------------------
 Center     Atomic      Atomic             Coordinates (Angstroms)
 Number     Number       Type             X           Y           Z
 ---------------------------------------------------------------------
      1          6           0        3.214016   -1.929454    1.277639
      2          6           0        3.119045   -1.357991   -0.149038
      3          6           0        2.240234   -2.252242   -1.043712
      4          6           0        2.621562    0.051637   -0.140929
      5          6           0        3.144757    1.249959   -0.523953
      6          6           0        2.141233    2.244650   -0.261783
      7          6           0        1.066758    1.591991    0.264842
      8          8           0        1.351524    0.248798    0.345173
      9          6           0       -0.299122    2.012102    0.687755
     10          6           0       -1.383487    1.809204   -0.394700
     11          6           0       -1.531246    0.367617   -0.903497
     12          6           0       -1.835599   -0.682064    0.178192
     13          6           0       -3.090136   -0.413137    1.023392
     14          6           0       -4.378187   -0.283881    0.206707
     15          8           0       -4.665374   -1.442896   -0.570035
     16          1           0        2.224463   -1.953428    1.746535
     17          1           0        3.870660   -1.316909    1.904024
     18          1           0        3.607694   -2.951907    1.258759
     19          1           0        4.128901   -1.323216   -0.577651
     20          1           0        1.216423   -2.293353   -0.656161
     21          1           0        2.199919   -1.865872   -2.067553
     22          1           0        2.634181   -3.274283   -1.074709
     23          1           0        4.130060    1.408539   -0.940232
     24          1           0        2.211948    3.308465   -0.442617
     25          1           0       -0.575956    1.468665    1.599451
     26          1           0       -0.264202    3.074221    0.955081
     27          1           0       -2.339921    2.164396    0.010229
     28          1           0       -1.146866    2.458602   -1.246696
     29          1           0       -2.321466    0.358561   -1.667588
     30          1           0       -0.610189    0.072883   -1.419337
     31          1           0       -1.939313   -1.663714   -0.304980
     32          1           0       -0.968959   -0.775821    0.840798
     33          1           0       -3.214403   -1.233047    1.741511
     34          1           0       -2.961726    0.505147    1.612972
     35          1           0       -5.234064   -0.163743    0.878409
     36          1           0       -4.340056    0.614199   -0.430384
     37          1           0       -3.975285   -1.515958   -1.246440
 ---------------------------------------------------------------------

 SCF Done:  E(UB3LYP) =  -659.305267689     A.U. after   33 cycles
 SCF Done:  E(UB3LYP) =  -659.305267689     a.u. after    1 cycles

 The electronic state is 2-A.
 Alpha  occ. eigenvalues --  -19.08294 -19.03171 -10.12443 -10.12324 -10.12264
 Alpha  occ. eigenvalues --  -10.09312 -10.08380 -10.07442 -10.07407 -10.07001
 Alpha  occ. eigenvalues --  -10.06925 -10.06909 -10.06844 -10.06811 -10.06550
 Alpha  occ. eigenvalues --   -1.00759  -0.93202  -0.72887  -0.71529  -0.70040
 Alpha  occ. eigenvalues --   -0.68071  -0.63959  -0.60459  -0.59292  -0.56686
 Alpha  occ. eigenvalues --   -0.52264  -0.50742  -0.49557  -0.45973  -0.45005
 Alpha  occ. eigenvalues --   -0.42119  -0.39977  -0.38575  -0.37626  -0.35921
 Alpha  occ. eigenvalues --   -0.35796  -0.35024  -0.34204  -0.32849  -0.32270
 Alpha  occ. eigenvalues --   -0.31402  -0.30789  -0.30387  -0.29283  -0.28831
 Alpha  occ. eigenvalues --   -0.27825  -0.27548  -0.26638  -0.25384  -0.25284
 Alpha  occ. eigenvalues --   -0.24778  -0.24195  -0.23339  -0.22688  -0.22312
 Alpha  occ. eigenvalues --   -0.18525  -0.18218  -0.11964   0.04123
 Alpha virt. eigenvalues --    0.05881   0.06486   0.06957   0.07741   0.07953
 Alpha virt. eigenvalues --    0.08456   0.09037   0.09595   0.10006   0.10183
 Alpha virt. eigenvalues --    0.10619   0.10861   0.11494   0.11797   0.12314

  Beta  occ. eigenvalues --  -19.08280 -19.03149 -10.12442 -10.12307 -10.12261
  Beta  occ. eigenvalues --  -10.09302 -10.08362 -10.07433 -10.07388 -10.06989
  Beta  occ. eigenvalues --  -10.06917 -10.06890 -10.06829 -10.06789 -10.06522
  Beta  occ. eigenvalues --   -1.00736  -0.93154  -0.72859  -0.71499  -0.70017
  Beta  occ. eigenvalues --   -0.68041  -0.63924  -0.60419  -0.59242  -0.56639
  Beta  occ. eigenvalues --   -0.52214  -0.50706  -0.49516  -0.45922  -0.44970
  Beta  occ. eigenvalues --   -0.42075  -0.39943  -0.38535  -0.37595  -0.35879
  Beta  occ. eigenvalues --   -0.35751  -0.34998  -0.34167  -0.32818  -0.32239
  Beta  occ. eigenvalues --   -0.31370  -0.30761  -0.30365  -0.29257  -0.28807
  Beta  occ. eigenvalues --   -0.27793  -0.27518  -0.26614  -0.25358  -0.25255
  Beta  occ. eigenvalues --   -0.24748  -0.24161  -0.23308  -0.22654  -0.22288
  Beta  occ. eigenvalues --   -0.18493  -0.18191  -0.11939
  Beta virt. eigenvalues --    0.06101   0.06700   0.07222   0.07353   0.08146
  Beta virt. eigenvalues --    0.08391   0.08738   0.09417   0.09897   0.10241
  Beta virt. eigenvalues --    0.10380   0.10908   0.11216   0.11711   0.12026

 Mulliken charges and spin densities:
               1          2
     1  C    0.454656  -1.062703
     2  C   -1.285219   1.292224
     3  C    0.722228  -1.406432
     4  C    0.994294  -0.892754
     5  C   -0.324752   0.054739
     6  C    0.228363  -0.512371
     7  C   -0.053673   0.346884
     8  O    0.052488   0.031916
     9  C    0.117542  -0.535559
    10  C    0.543841  -1.033460
    11  C    0.092596   0.071529
    12  C   -0.049914  -0.444522
    13  C   -0.482511   0.273259
    14  C    0.370426  -0.910829
    15  O   -0.262817   0.025335
    16  H    0.039783   0.118356
    17  H    0.023793   0.102216
    18  H   -0.246411   0.396503
    19  H   -0.324309   0.522276
    20  H   -0.112872   0.294181
    21  H   -0.038165   0.171599
    22  H   -0.226440   0.374164
    23  H   -0.412791   0.575195
    24  H   -0.426373   0.593204
    25  H   -0.052794   0.212690
    26  H   -0.321787   0.523301
    27  H   -0.054252   0.208235
    28  H   -0.123276   0.286480
    29  H   -0.353687   0.526907
    30  H    0.189217  -0.033667
    31  H    0.092810   0.052362
    32  H    0.121871   0.020756
    33  H    0.036119   0.134278
    34  H    0.039878   0.083101
    35  H    0.001347   0.163677
    36  H   -0.011282   0.169578
    37  H    0.042072   0.207355
 Sum of Mulliken charges =  -1.00000   1.00000

 Dipole moment (field-independent basis, Debye):
    X=             -1.0483    Y=              0.3480    Z=              1.8255  Tot=              2.1337
 Quadrupole moment (field-independent basis, Debye-Ang):
   XX=           -181.7830   YY=           -152.5385   ZZ=           -127.2823
   XY=              1.0323   XZ=             -2.8360   YZ=             -1.6676

 Summary of Natural Population Analysis:

                                       Natural Population
                Natural  -----------------------------------------------
    Atom  No    Charge         Core      Valence    Rydberg      Total
 -----------------------------------------------------------------------
      C    1   -0.27857      0.99965     2.27420    0.00472     3.27857
      C    2   -0.13378      0.99957     2.12373    0.01048     3.13378
      C    3   -0.28075      0.99965     2.27458    0.00652     3.28075
      C    4    0.15671      0.99944     1.82719    0.01666     2.84329
      C    5   -0.14815      0.99948     2.14020    0.00847     3.14815
      C    6   -0.14753      0.99948     2.13975    0.00830     3.14753
      C    7    0.15071      0.99946     1.83431    0.01552     2.84929
      O    8   -0.24895      0.99985     3.24073    0.00837     4.24895
      C    9   -0.21448      0.99959     2.20527    0.00963     3.21448
      C   10   -0.18468      0.99962     2.17619    0.00887     3.18468
      C   11   -0.19584      0.99962     2.18656    0.00966     3.19584
      C   12   -0.19878      0.99962     2.19075    0.00841     3.19878
      C   13   -0.20394      0.99962     2.19726    0.00705     3.20394
      C   14   -0.01036      0.99960     1.99884    0.01192     3.01036
      O   15   -0.37111      0.99990     3.36432    0.00689     4.37111
      H   16    0.10008      0.00000     0.39861    0.00131     0.39992
      H   17    0.10011      0.00000     0.39883    0.00106     0.39989
      H   18    0.09820      0.00000     0.40073    0.00107     0.40180
      H   19    0.10304      0.00000     0.39478    0.00218     0.39696
      H   20    0.10064      0.00000     0.39799    0.00137     0.39936
      H   21    0.10152      0.00000     0.39727    0.00120     0.39848
      H   22    0.09855      0.00000     0.40036    0.00108     0.40145
      H   23    0.10789      0.00000     0.39105    0.00106     0.39211
      H   24    0.10830      0.00000     0.39056    0.00114     0.39170
      H   25    0.10426      0.00000     0.39437    0.00137     0.39574
      H   26    0.11034      0.00000     0.38829    0.00136     0.38966
      H   27    0.09448      0.00000     0.40408    0.00145     0.40552
      H   28    0.09957      0.00000     0.39900    0.00143     0.40043
      H   29    0.09385      0.00000     0.40472    0.00143     0.40615
      H   30    0.10368      0.00000     0.39479    0.00153     0.39632
      H   31    0.09562      0.00000     0.40295    0.00143     0.40438
      H   32    0.10530      0.00000     0.39282    0.00188     0.39470
      H   33    0.09830      0.00000     0.40054    0.00116     0.40170
      H   34    0.09713      0.00000     0.40154    0.00133     0.40287
      H   35    0.08383      0.00000     0.41487    0.00130     0.41617
      H   36    0.07633      0.00000     0.42216    0.00150     0.42367
      H   37    0.22848      0.00000     0.26827    0.00326     0.27152
 =======================================================================
   * Total *   -0.00000     14.99416    42.83246    0.17338    58.00000

 Normal termination of Gaussian 16 at Thu Dec 10 17:25:12 2020.
