 Gaussian 16, Revision A.03,

 -----------------------------------------------------------
 # opt freq B3LYP/6-31G(d) empiricaldispersion=gd3bj scf=xqc
 -----------------------------------------------------------

 ------------------------------
 CID_62251426_JID_6132_neutraal
 ------------------------------
 Symbolic Z-matrix:
 Charge =  0 Multiplicity = 1

 SCF Done:  E(RB3LYP) =  -689.595441203     A.U. after   14 cycles
 SCF Done:  E(RB3LYP) =  -689.600769173     A.U. after   12 cycles
 SCF Done:  E(RB3LYP) =  -689.602889660     A.U. after   11 cycles
 SCF Done:  E(RB3LYP) =  -689.603785176     A.U. after   12 cycles
 SCF Done:  E(RB3LYP) =  -689.603943519     A.U. after   11 cycles
 SCF Done:  E(RB3LYP) =  -689.603990505     A.U. after   10 cycles
 SCF Done:  E(RB3LYP) =  -689.604005412     A.U. after   10 cycles
 SCF Done:  E(RB3LYP) =  -689.604011872     A.U. after    9 cycles
 SCF Done:  E(RB3LYP) =  -689.604015514     A.U. after    9 cycles
 SCF Done:  E(RB3LYP) =  -689.604016736     A.U. after    8 cycles
 SCF Done:  E(RB3LYP) =  -689.604017282     A.U. after    8 cycles
 SCF Done:  E(RB3LYP) =  -689.604017384     A.U. after    7 cycles
 Optimization completed.
    -- Stationary point found.
 Normal termination of Gaussian 16 at Thu Dec 10 21:13:57 2020.

 --------------------------------------------------------------------
 #N Geom=AllCheck Guess=TCheck SCRF=Check GenChk RB3LYP/6-31G(d) Freq
 --------------------------------------------------------------------

 Structure from the checkpoint file:  "JID_6132.chk"
 ------------------------------
 CID_62251426_JID_6132_neutraal
 ------------------------------
 Charge =  0 Multiplicity = 1

 SCF Done:  E(RB3LYP) =  -689.604017384     A.U. after    1 cycles

  Exact polarizability: 181.589  -6.446 169.306  -5.634  -6.263 111.892
 Approx polarizability: 239.532 -10.831 257.356 -11.837 -19.582 167.123

                      1                      2                      3
                      A                      A                      A
 Frequencies --     23.2144                36.7369                50.7099
 Red. masses --      3.0471                 2.8737                 2.8324
 Frc consts  --      0.0010                 0.0023                 0.0043
 IR Inten    --      0.0571                 0.0137                 0.1256

                      4                      5                      6
                      A                      A                      A
 Frequencies --     71.0206                98.7129               145.9621
 Red. masses --      3.7385                 3.5189                 3.4675
 Frc consts  --      0.0111                 0.0202                 0.0435
 IR Inten    --      0.4030                 0.2153                 2.4513

                      7                      8                      9
                      A                      A                      A
 Frequencies --    151.5233               169.7616               203.2613
 Red. masses --      2.4024                 1.5699                 1.7791
 Frc consts  --      0.0325                 0.0267                 0.0433
 IR Inten    --      4.4011                 8.5642                 7.1657

                     10                     11                     12
                      A                      A                      A
 Frequencies --    226.7579               230.0325               236.3568
 Red. masses --      2.6647                 1.1738                 1.3773
 Frc consts  --      0.0807                 0.0366                 0.0453
 IR Inten    --      2.1116                 1.2183                 0.9624

                     13                     14                     15
                      A                      A                      A
 Frequencies --    247.5696               256.4515               272.9577
 Red. masses --      2.2167                 1.4566                 1.2785
 Frc consts  --      0.0800                 0.0564                 0.0561
 IR Inten    --      5.9651                 1.7281                 1.4173

                     16                     17                     18
                      A                      A                      A
 Frequencies --    288.6616               293.9910               317.7945
 Red. masses --      2.9188                 1.8295                 1.8457
 Frc consts  --      0.1433                 0.0932                 0.1098
 IR Inten    --      0.2306                 0.5272                 0.6396

                     19                     20                     21
                      A                      A                      A
 Frequencies --    320.5060               332.4024               387.7479
 Red. masses --      1.3568                 2.4204                 2.3857
 Frc consts  --      0.0821                 0.1576                 0.2113
 IR Inten    --      0.4629                 3.4857                 0.1793

                     22                     23                     24
                      A                      A                      A
 Frequencies --    392.7596               404.8538               422.4201
 Red. masses --      2.4711                 2.5864                 1.9883
 Frc consts  --      0.2246                 0.2498                 0.2090
 IR Inten    --     20.9119                 0.6296                 0.2442

                     25                     26                     27
                      A                      A                      A
 Frequencies --    437.9420               495.2717               533.5838
 Red. masses --      3.0420                 1.4158                 3.8070
 Frc consts  --      0.3438                 0.2046                 0.6386
 IR Inten    --     18.9536               184.7928                 3.9793

                     28                     29                     30
                      A                      A                      A
 Frequencies --    554.0834               629.3784               699.2213
 Red. masses --      3.0554                 3.9082                 5.2973
 Frc consts  --      0.5527                 0.9121                 1.5259
 IR Inten    --      4.1622                 9.6952                13.1278

                     31                     32                     33
                      A                      A                      A
 Frequencies --    713.0981               727.6307               801.8362
 Red. masses --      5.7533                 3.4431                 3.0071
 Frc consts  --      1.7237                 1.0740                 1.1391
 IR Inten    --      3.2014                 6.9566                 0.5840

                     34                     35                     36
                      A                      A                      A
 Frequencies --    813.4160               845.5853               860.4170
 Red. masses --      2.9832                 2.2292                 2.4328
 Frc consts  --      1.1629                 0.9391                 1.0611
 IR Inten    --      2.1084                 3.8940                18.5713

                     37                     38                     39
                      A                      A                      A
 Frequencies --    898.0467               938.4491               946.4450
 Red. masses --      1.8733                 1.8719                 1.4196
 Frc consts  --      0.8902                 0.9713                 0.7492
 IR Inten    --     25.8018                35.2141                 6.3647

                     40                     41                     42
                      A                      A                      A
 Frequencies --    946.7886               956.4133               962.0055
 Red. masses --      1.5942                 1.7339                 1.8806
 Frc consts  --      0.8420                 0.9345                 1.0254
 IR Inten    --      4.1327                11.7117                 3.4842

                     43                     44                     45
                      A                      A                      A
 Frequencies --    977.5203               980.3541              1001.0446
 Red. masses --      1.2032                 1.5748                 2.4791
 Frc consts  --      0.6774                 0.8918                 1.4637
 IR Inten    --      0.1576                 1.8135                51.9982

                     46                     47                     48
                      A                      A                      A
 Frequencies --   1005.5336              1054.2913              1060.6052
 Red. masses --      7.6657                 1.6031                 1.4030
 Frc consts  --      4.5666                 1.0499                 0.9298
 IR Inten    --      6.6278                 3.5983                 0.5370

                     49                     50                     51
                      A                      A                      A
 Frequencies --   1084.3920              1136.7865              1153.3948
 Red. masses --      2.0706                 1.9925                 2.1460
 Frc consts  --      1.4346                 1.5171                 1.6820
 IR Inten    --      1.8320                 3.7218                 4.7323

                     52                     53                     54
                      A                      A                      A
 Frequencies --   1185.8851              1204.2698              1222.2078
 Red. masses --      1.5972                 1.7239                 2.5174
 Frc consts  --      1.3234                 1.4731                 2.2156
 IR Inten    --     10.8716                15.8155                61.2161

                     55                     56                     57
                      A                      A                      A
 Frequencies --   1242.7557              1255.7337              1259.7153
 Red. masses --      2.6845                 2.7512                 1.6198
 Frc consts  --      2.4428                 2.5561                 1.5144
 IR Inten    --      1.7009                10.7092                 1.7100

                     58                     59                     60
                      A                      A                      A
 Frequencies --   1295.9692              1306.1252              1320.4607
 Red. masses --      2.2025                 3.4539                 1.3359
 Frc consts  --      2.1794                 3.4716                 1.3723
 IR Inten    --     16.8802                 6.0888                 7.1923

                     61                     62                     63
                      A                      A                      A
 Frequencies --   1375.0338              1380.9964              1387.7736
 Red. masses --      1.2079                 1.4622                 1.4785
 Frc consts  --      1.3456                 1.6430                 1.6777
 IR Inten    --      2.5266                 2.4724                10.4250

                     64                     65                     66
                      A                      A                      A
 Frequencies --   1405.1125              1415.9472              1419.3706
 Red. masses --      2.2970                 1.2159                 1.3104
 Frc consts  --      2.6720                 1.4363                 1.5554
 IR Inten    --     57.9160                 4.8410                 7.2531

                     67                     68                     69
                      A                      A                      A
 Frequencies --   1431.2614              1441.9103              1449.9998
 Red. masses --      1.2802                 2.1607                 1.2446
 Frc consts  --      1.5451                 2.6468                 1.5418
 IR Inten    --      2.8148                48.4471                 3.4634

                     70                     71                     72
                      A                      A                      A
 Frequencies --   1455.9308              1483.4625              1504.1778
 Red. masses --      1.4303                 2.5434                 1.1803
 Frc consts  --      1.7863                 3.2977                 1.5734
 IR Inten    --      8.1041                33.2876                 4.2963

                     73                     74                     75
                      A                      A                      A
 Frequencies --   1507.2124              1516.3897              1518.2276
 Red. masses --      1.0482                 1.1530                 2.1285
 Frc consts  --      1.4029                 1.5621                 2.8907
 IR Inten    --      0.0080                13.5596               136.8249

                     76                     77                     78
                      A                      A                      A
 Frequencies --   1523.5894              1524.1825              1524.8803
 Red. masses --      1.0524                 1.0543                 1.1163
 Frc consts  --      1.4393                 1.4430                 1.5293
 IR Inten    --      1.4142                 2.0486                19.8397

                     79                     80                     81
                      A                      A                      A
 Frequencies --   1529.9642              1534.6341              1536.1852
 Red. masses --      1.0615                 1.0527                 1.0488
 Frc consts  --      1.4639                 1.4608                 1.4583
 IR Inten    --      7.5936                 2.2892                 8.0766

                     82                     83                     84
                      A                      A                      A
 Frequencies --   1537.9436              1556.6621              1612.0702
 Red. masses --      1.0512                 1.0920                 5.5306
 Frc consts  --      1.4649                 1.5591                 8.4682
 IR Inten    --      4.2152                10.7451               161.6354

                     85                     86                     87
                      A                      A                      A
 Frequencies --   1641.6793              1748.8799              3036.1807
 Red. masses --      6.3139                 1.0626                 1.0704
 Frc consts  --     10.0259                 1.9149                 5.8136
 IR Inten    --    512.9548                27.8726                 9.4904

                     88                     89                     90
                      A                      A                      A
 Frequencies --   3037.1594              3043.7593              3044.5852
 Red. masses --      1.0463                 1.0354                 1.0386
 Frc consts  --      5.6867                 5.6517                 5.6723
 IR Inten    --     27.3710                16.9643                27.3153

                     91                     92                     93
                      A                      A                      A
 Frequencies --   3046.4279              3052.5311              3057.3927
 Red. masses --      1.0363                 1.0375                 1.0604
 Frc consts  --      5.6666                 5.6957                 5.8399
 IR Inten    --     35.4367                28.1415                23.4821

                     94                     95                     96
                      A                      A                      A
 Frequencies --   3100.4890              3105.5851              3107.8560
 Red. masses --      1.1018                 1.1023                 1.1032
 Frc consts  --      6.2402                 6.2637                 6.2780
 IR Inten    --      9.0215                14.8439                 1.8544

                     97                     98                     99
                      A                      A                      A
 Frequencies --   3110.2642              3110.3088              3113.1113
 Red. masses --      1.1022                 1.1023                 1.1024
 Frc consts  --      6.2819                 6.2829                 6.2948
 IR Inten    --     43.9379                23.0134                48.7174

                    100                    101                    102
                      A                      A                      A
 Frequencies --   3115.0377              3118.7559              3123.8629
 Red. masses --      1.1021                 1.1012                 1.1008
 Frc consts  --      6.3010                 6.3109                 6.3292
 IR Inten    --     43.2133                73.1605                41.7546

                    103                    104                    105
                      A                      A                      A
 Frequencies --   3147.2189              3150.6895              3226.1260
 Red. masses --      1.1005                 1.0998                 1.0906
 Frc consts  --      6.4221                 6.4322                 6.6875
 IR Inten    --      1.4582                27.3937                 7.1883

                    106                    107                    108
                      A                      A                      A
 Frequencies --   3430.8368              3504.5405              3615.6236
 Red. masses --      1.0488                 1.0926                 1.0777
 Frc consts  --      7.2734                 7.9062                 8.3003
 IR Inten    --      3.9333                 0.5865                42.9042

 - Thermochemistry -
 -------------------
 Temperature   298.150 Kelvin.  Pressure   1.00000 Atm.
 Atom     1 has atomic number  6 and mass  12.00000

 Molecular mass:   222.18445 amu.
 Principal axes and moments of inertia in atomic units:
                           1         2         3
     Eigenvalues --  3076.473394741.231306971.46602
           X            0.99988   0.01567  -0.00003
           Y           -0.01567   0.99987   0.00438
           Z            0.00010  -0.00438   0.99999
 This molecule is an asymmetric top.
 Rotational symmetry number  1.
 Warning -- assumption of classical behavior for rotation
           may cause significant error
 Rotational temperatures (Kelvin)      0.02815     0.01827     0.01242
 Rotational constants (GHZ):           0.58663     0.38065     0.25888
 Zero-point vibrational energy     887932.0 (Joules/Mol)
                                  212.22085 (Kcal/Mol)
 Warning -- explicit consideration of  28 degrees of freedom as
           vibrations may cause significant error
 Vibrational temperatures:     33.40    52.86    72.96   102.18   142.03
          (Kelvin)            210.01   218.01   244.25   292.45   326.25
                              330.97   340.06   356.20   368.98   392.73
                              415.32   422.99   457.24   461.14   478.25
                              557.88   565.09   582.49   607.77   630.10
                              712.59   767.71   797.20   905.54  1006.02
                             1025.99  1046.90  1153.66  1170.32  1216.61
                             1237.95  1292.09  1350.22  1361.72  1362.22
                             1376.07  1384.11  1406.43  1410.51  1440.28
                             1446.74  1516.89  1525.97  1560.20  1635.58
                             1659.48  1706.22  1732.68  1758.48  1788.05
                             1806.72  1812.45  1864.61  1879.22  1899.85
                             1978.37  1986.95  1996.70  2021.64  2037.23
                             2042.16  2059.27  2074.59  2086.23  2094.76
                             2134.37  2164.18  2168.54  2181.75  2184.39
                             2192.11  2192.96  2193.96  2201.28  2208.00
                             2210.23  2212.76  2239.69  2319.41  2362.01
                             2516.25  4368.39  4369.79  4379.29  4380.48
                             4383.13  4391.91  4398.91  4460.91  4468.24
                             4471.51  4474.98  4475.04  4479.07  4481.84
                             4487.19  4494.54  4528.15  4533.14  4641.68
                             4936.21  5042.25  5202.08

 Zero-point correction=                           0.338195 (Hartree/Particle)
 Thermal correction to Energy=                    0.356287
 Thermal correction to Enthalpy=                  0.357231
 Thermal correction to Gibbs Free Energy=         0.292089
 Sum of electronic and zero-point Energies=           -689.265822
 Sum of electronic and thermal Energies=              -689.247731
 Sum of electronic and thermal Enthalpies=            -689.246786
 Sum of electronic and thermal Free Energies=         -689.311928

                     E (Thermal)             CV                S
                      KCal/Mol        Cal/Mol-Kelvin    Cal/Mol-Kelvin
 Total                  223.573             68.085            137.103
 Electronic               0.000              0.000              0.000
 Translational            0.889              2.981             42.098
 Rotational               0.889              2.981             32.986
 Vibrational            221.796             62.123             62.019
 Vibration     1          0.593              1.985              6.338
 Vibration     2          0.594              1.982              5.428
 Vibration     3          0.595              1.977              4.790
 Vibration     4          0.598              1.968              4.125
 Vibration     5          0.604              1.950              3.480
 Vibration     6          0.617              1.907              2.724
 Vibration     7          0.619              1.901              2.653
 Vibration     8          0.625              1.880              2.438
 Vibration     9          0.639              1.835              2.103
 Vibration    10          0.650              1.800              1.904
 Vibration    11          0.652              1.795              1.879
 Vibration    12          0.655              1.785              1.830
 Vibration    13          0.661              1.767              1.748
 Vibration    14          0.666              1.752              1.686
 Vibration    15          0.676              1.723              1.577
 Vibration    16          0.685              1.695              1.482
 Vibration    17          0.689              1.685              1.451
 Vibration    18          0.704              1.640              1.321
 Vibration    19          0.706              1.634              1.308
 Vibration    20          0.714              1.611              1.248
 Vibration    21          0.756              1.496              1.009
 Vibration    22          0.760              1.486              0.990
 Vibration    23          0.770              1.460              0.945
 Vibration    24          0.785              1.421              0.884
 Vibration    25          0.798              1.387              0.833
 Vibration    26          0.851              1.261              0.670
 Vibration    27          0.889              1.176              0.579
 Vibration    28          0.909              1.131              0.536

 Optimization completed.
    -- Stationary point found.
 Normal termination of Gaussian 16 at Thu Dec 10 21:27:02 2020.

 ----------------------------------------------------------------------
 # B3LYP/6-311++G(d,p) empiricaldispersion=gd3bj scf=xqc pop=npa geom=c
 heck
 ----------------------------------------------------------------------

 --------------------------------------
 CID_62251426_JID_6132_Energie_neutraal
 --------------------------------------
 Structure from the checkpoint file:  "JID_6132.chk"
 Charge =  0 Multiplicity = 1

 SCF Done:  E(RB3LYP) =  -689.798862526     A.U. after   15 cycles
 Normal termination of Gaussian 16 at Thu Dec 10 21:33:05 2020.

 ----------------------------------------------------------------------
 # B3LYP/6-311++G(d,p) empiricaldispersion=gd3bj scf=xqc pop=npa geom=c
 heck
 ----------------------------------------------------------------------

 ------------------------------------
 CID_62251426_JID_6132_Energie_kation
 ------------------------------------
 Structure from the checkpoint file:  "JID_6132.chk"
 Charge =  1 Multiplicity = 2

 SCF Done:  E(UB3LYP) =  -689.495230231     A.U. after   26 cycles
 Normal termination of Gaussian 16 at Thu Dec 10 21:47:57 2020.
 Gaussian 16:  ES64L-G16RevA.03 25-Dec-2016

 ----------------------------------------------------------------------
 # B3LYP/6-311++G(d,p) empiricaldispersion=gd3bj scf=xqc pop=npa geom=c
 heck
 ----------------------------------------------------------------------

 -----------------------------------
 CID_62251426_JID_6132_Energie_anion
 -----------------------------------
 Structure from the checkpoint file:  "JID_6132.chk"
 Charge = -1 Multiplicity = 2

                         Standard orientation:
 ---------------------------------------------------------------------
 Center     Atomic      Atomic             Coordinates (Angstroms)
 Number     Number       Type             X           Y           Z
 ---------------------------------------------------------------------
      1          6           0       -2.354253   -1.870391   -1.341835
      2          6           0       -3.020196   -1.047962   -0.232624
      3          6           0       -4.322231   -1.705794    0.235621
      4          6           0       -2.066547   -0.835838    0.964717
      5          6           0       -0.828495   -0.071738    0.577891
      6          7           0        0.314101   -0.748118    0.486407
      7          6           0        1.416124   -0.061134    0.094987
      8          6           0        1.349702    1.289216   -0.195671
      9          6           0        0.087565    1.911194   -0.074406
     10          7           0       -1.000375    1.237404    0.315425
     11          7           0       -0.069990    3.241712   -0.373069
     12          7           0       -1.248912    3.941380   -0.036332
     13          6           0        2.695504   -0.889709   -0.001093
     14          6           0        2.977604   -1.504545    1.385689
     15          6           0        2.453787   -2.021286   -1.022552
     16          6           0        3.904609   -0.054044   -0.443492
     17          1           0       -2.081692   -2.867800   -0.974448
     18          1           0       -1.438529   -1.393296   -1.705235
     19          1           0       -3.032770   -1.998642   -2.193180
     20          1           0       -3.255934   -0.052470   -0.633060
     21          1           0       -4.126494   -2.699127    0.659485
     22          1           0       -4.819460   -1.105195    1.006377
     23          1           0       -5.022249   -1.832494   -0.598440
     24          1           0       -2.597814   -0.276654    1.744185
     25          1           0       -1.765221   -1.804433    1.376551
     26          1           0        2.215526    1.858024   -0.512328
     27          1           0        0.755696    3.823729   -0.358180
     28          1           0       -1.940732    3.716523   -0.751870
     29          1           0       -1.617019    3.521792    0.820523
     30          1           0        2.118748   -2.088623    1.724856
     31          1           0        3.855822   -2.158689    1.336852
     32          1           0        3.175770   -0.722269    2.127798
     33          1           0        2.270781   -1.612354   -2.023177
     34          1           0        3.331844   -2.675273   -1.076428
     35          1           0        1.584954   -2.616887   -0.732163
     36          1           0        3.752915    0.386061   -1.435728
     37          1           0        4.119430    0.755056    0.264056
     38          1           0        4.793626   -0.691439   -0.496847
 ---------------------------------------------------------------------

 SCF Done:  E(UB3LYP) =  -689.786111738     A.U. after   33 cycles
 SCF Done:  E(UB3LYP) =  -689.786111738     a.u. after    1 cycles

 The electronic state is 2-A.
 Alpha  occ. eigenvalues --  -14.26263 -14.24139 -14.20785 -14.20111 -10.15970
 Alpha  occ. eigenvalues --  -10.14387 -10.12299 -10.09555 -10.08424 -10.07906
 Alpha  occ. eigenvalues --  -10.07280 -10.07098 -10.06334 -10.06303 -10.06283
 Alpha  occ. eigenvalues --  -10.06279  -0.91671  -0.87432  -0.78987  -0.74243
 Alpha  occ. eigenvalues --   -0.71553  -0.70998  -0.66134  -0.61571  -0.59405
 Alpha  occ. eigenvalues --   -0.59130  -0.59025  -0.54954  -0.53819  -0.48171
 Alpha  occ. eigenvalues --   -0.45652  -0.44038  -0.42503  -0.41181  -0.38791
 Alpha  occ. eigenvalues --   -0.37579  -0.36907  -0.36011  -0.35446  -0.34611
 Alpha  occ. eigenvalues --   -0.34379  -0.32903  -0.31900  -0.29762  -0.29672
 Alpha  occ. eigenvalues --   -0.29476  -0.29002  -0.28185  -0.27126  -0.25519
 Alpha  occ. eigenvalues --   -0.25164  -0.24671  -0.24335  -0.23847  -0.23595
 Alpha  occ. eigenvalues --   -0.22410  -0.20182  -0.18961  -0.18194  -0.15602
 Alpha  occ. eigenvalues --   -0.13752   0.04186
 Alpha virt. eigenvalues --    0.05837   0.06583   0.06763   0.07424   0.07909
 Alpha virt. eigenvalues --    0.07919   0.08438   0.08941   0.09328   0.09834
 Alpha virt. eigenvalues --    0.10027   0.10751   0.10915   0.11111   0.11719

  Beta  occ. eigenvalues --  -14.26232 -14.24116 -14.20770 -14.20108 -10.15972
  Beta  occ. eigenvalues --  -10.14387 -10.12300 -10.09553 -10.08418 -10.07884
  Beta  occ. eigenvalues --  -10.07272 -10.07079 -10.06319 -10.06286 -10.06266
  Beta  occ. eigenvalues --  -10.06245  -0.91640  -0.87415  -0.78972  -0.74219
  Beta  occ. eigenvalues --   -0.71536  -0.70957  -0.66095  -0.61541  -0.59371
  Beta  occ. eigenvalues --   -0.59097  -0.58973  -0.54925  -0.53783  -0.48135
  Beta  occ. eigenvalues --   -0.45618  -0.44005  -0.42459  -0.41148  -0.38739
  Beta  occ. eigenvalues --   -0.37532  -0.36874  -0.35984  -0.35414  -0.34587
  Beta  occ. eigenvalues --   -0.34354  -0.32875  -0.31880  -0.29742  -0.29652
  Beta  occ. eigenvalues --   -0.29458  -0.28975  -0.28165  -0.27100  -0.25500
  Beta  occ. eigenvalues --   -0.25143  -0.24649  -0.24311  -0.23822  -0.23570
  Beta  occ. eigenvalues --   -0.22392  -0.20163  -0.18939  -0.18176  -0.15588
  Beta  occ. eigenvalues --   -0.13725
  Beta virt. eigenvalues --    0.05998   0.06602   0.06786   0.07250   0.07785
  Beta virt. eigenvalues --    0.08148   0.08401   0.08673   0.09131   0.09626
  Beta virt. eigenvalues --    0.10130   0.10291   0.10927   0.11222   0.11283

 Mulliken charges and spin densities:
               1          2
     1  C   -0.099917  -0.588126
     2  C   -0.572012   1.159683
     3  C   -0.026597  -0.608002
     4  C    1.151154  -1.457435
     5  C   -0.725952  -0.017780
     6  N    0.206869   0.049515
     7  C    2.640543  -2.674800
     8  C   -1.381216   1.080005
     9  C   -0.127090   0.068992
    10  N    0.029204   0.005332
    11  N   -0.122077  -0.028027
    12  N   -0.274502   0.000412
    13  C   -1.639443   2.044955
    14  C   -0.036816  -0.621104
    15  C    0.021682  -0.713853
    16  C    1.122854  -1.590300
    17  H    0.065030   0.059966
    18  H    0.078274   0.099110
    19  H   -0.119737   0.252036
    20  H    0.073824   0.102649
    21  H    0.017236   0.113116
    22  H   -0.071988   0.198421
    23  H   -0.110456   0.246042
    24  H    0.032445   0.129060
    25  H    0.159030   0.005245
    26  H   -0.787042   1.027157
    27  H   -0.254225   0.556468
    28  H    0.064701   0.191190
    29  H    0.085080   0.158971
    30  H    0.091982   0.071749
    31  H    0.021304   0.130276
    32  H   -0.060329   0.200967
    33  H   -0.039382   0.175266
    34  H    0.015617   0.132052
    35  H    0.117078   0.047627
    36  H   -0.166395   0.301780
    37  H   -0.248456   0.389063
    38  H   -0.130277   0.302321
 Sum of Mulliken charges =  -1.00000   1.00000

 Dipole moment (field-independent basis, Debye):
    X=             -2.7099    Y=             -3.8415    Z=              1.2277  Tot=              4.8588
 Quadrupole moment (field-independent basis, Debye-Ang):
   XX=           -176.6421   YY=           -162.5295   ZZ=           -131.9234
   XY=             -8.6761   XZ=              0.4754   YZ=              0.3195

 Summary of Natural Population Analysis:

                                       Natural Population
                Natural  -----------------------------------------------
    Atom  No    Charge         Core      Valence    Rydberg      Total
 -----------------------------------------------------------------------
      C    1   -0.28475      0.99965     2.28004    0.00506     3.28475
      C    2   -0.11225      0.99961     2.10258    0.01007     3.11225
      C    3   -0.28133      0.99965     2.27693    0.00475     3.28133
      C    4   -0.20377      0.99957     2.19493    0.00927     3.20377
      C    5    0.23507      0.99960     1.74604    0.01930     2.76493
      N    6   -0.28117      0.99964     2.77116    0.01036     3.78117
      C    7    0.13808      0.99949     1.84598    0.01646     2.86192
      C    8   -0.16039      0.99944     2.15183    0.00912     3.16039
      C    9    0.21396      0.99953     1.77118    0.01533     2.78604
      N   10   -0.29263      0.99964     2.78155    0.01144     3.79263
      N   11   -0.21730      0.99965     2.70429    0.01336     3.71730
      N   12   -0.31395      0.99978     2.80363    0.01054     3.81395
      C   13   -0.06190      0.99955     2.04935    0.01300     3.06190
      C   14   -0.27963      0.99963     2.27417    0.00583     3.27963
      C   15   -0.27962      0.99963     2.27415    0.00585     3.27962
      C   16   -0.28763      0.99964     2.28002    0.00797     3.28763
      H   17    0.09571      0.00000     0.40330    0.00099     0.40429
      H   18    0.10459      0.00000     0.39434    0.00106     0.39541
      H   19    0.09664      0.00000     0.40243    0.00094     0.40336
      H   20    0.09791      0.00000     0.39963    0.00247     0.40209
      H   21    0.09438      0.00000     0.40460    0.00101     0.40562
      H   22    0.09823      0.00000     0.40073    0.00103     0.40177
      H   23    0.09830      0.00000     0.40069    0.00101     0.40170
      H   24    0.10569      0.00000     0.39309    0.00122     0.39431
      H   25    0.10402      0.00000     0.39477    0.00120     0.39598
      H   26    0.11467      0.00000     0.38265    0.00269     0.38533
      H   27    0.19129      0.00000     0.30227    0.00644     0.30871
      H   28    0.17361      0.00000     0.32391    0.00248     0.32639
      H   29    0.17608      0.00000     0.32140    0.00252     0.32392
      H   30    0.10853      0.00000     0.39039    0.00108     0.39147
      H   31    0.09664      0.00000     0.40247    0.00088     0.40336
      H   32    0.10015      0.00000     0.39893    0.00091     0.39985
      H   33    0.10008      0.00000     0.39897    0.00096     0.39992
      H   34    0.09666      0.00000     0.40246    0.00088     0.40334
      H   35    0.10878      0.00000     0.39007    0.00115     0.39122
      H   36    0.10263      0.00000     0.39600    0.00137     0.39737
      H   37    0.10344      0.00000     0.39503    0.00153     0.39656
      H   38    0.10118      0.00000     0.39779    0.00103     0.39882
 =======================================================================
   * Total *   -0.00000     15.99369    44.80373    0.20258    61.00000

 Normal termination of Gaussian 16 at Thu Dec 10 22:07:32 2020.
