 Gaussian 16, Revision A.03,

 -----------------------------------------------------------
 # opt freq B3LYP/6-31G(d) empiricaldispersion=gd3bj scf=xqc
 -----------------------------------------------------------

 -------------------------------
 CID_79248560_JID_10986_neutraal
 -------------------------------
 Symbolic Z-matrix:
 Charge =  0 Multiplicity = 1

 SCF Done:  E(RB3LYP) =  -902.847006549     A.U. after   15 cycles
 SCF Done:  E(RB3LYP) =  -902.852537776     A.U. after   12 cycles
 SCF Done:  E(RB3LYP) =  -902.852977324     A.U. after   12 cycles
 SCF Done:  E(RB3LYP) =  -902.852994386     A.U. after   12 cycles
 SCF Done:  E(RB3LYP) =  -902.853273733     A.U. after   11 cycles
 SCF Done:  E(RB3LYP) =  -902.853443077     A.U. after   12 cycles
 SCF Done:  E(RB3LYP) =  -902.853631332     A.U. after   13 cycles
 SCF Done:  E(RB3LYP) =  -902.853812968     A.U. after   11 cycles
 SCF Done:  E(RB3LYP) =  -902.853918767     A.U. after   12 cycles
 SCF Done:  E(RB3LYP) =  -902.853976616     A.U. after   10 cycles
 SCF Done:  E(RB3LYP) =  -902.854205898     A.U. after   10 cycles
 SCF Done:  E(RB3LYP) =  -902.854211523     A.U. after   10 cycles
 SCF Done:  E(RB3LYP) =  -902.854211848     A.U. after    8 cycles
 SCF Done:  E(RB3LYP) =  -902.854211855     A.U. after    7 cycles
 SCF Done:  E(RB3LYP) =  -902.854211889     A.U. after    6 cycles
 Optimization completed.
    -- Stationary point found.
 Normal termination of Gaussian 16 at Sat Dec 12 16:41:32 2020.

 --------------------------------------------------------------------
 #N Geom=AllCheck Guess=TCheck SCRF=Check GenChk RB3LYP/6-31G(d) Freq
 --------------------------------------------------------------------

 Structure from the checkpoint file:  "JID_10986.chk"
 -------------------------------
 CID_79248560_JID_10986_neutraal
 -------------------------------
 Charge =  0 Multiplicity = 1

 SCF Done:  E(RB3LYP) =  -902.854211889     A.U. after    1 cycles

  Exact polarizability: 205.454  13.372 182.248  15.827 -11.775 144.725
 Approx polarizability: 267.973  17.166 281.519  24.045 -25.858 229.268

                      1                      2                      3
                      A                      A                      A
 Frequencies --     29.6137                34.0089                40.4779
 Red. masses --      5.4214                 8.7907                 6.4743
 Frc consts  --      0.0028                 0.0060                 0.0062
 IR Inten    --      0.3317                 0.4956                 1.0260

                      4                      5                      6
                      A                      A                      A
 Frequencies --     62.1179                76.3290                97.6848
 Red. masses --      3.4909                 3.3337                 3.8210
 Frc consts  --      0.0079                 0.0114                 0.0215
 IR Inten    --      0.2775                 3.1752                 1.0930

                      7                      8                      9
                      A                      A                      A
 Frequencies --    132.3282               161.0046               174.3072
 Red. masses --      2.7431                 3.5932                 3.4095
 Frc consts  --      0.0283                 0.0549                 0.0610
 IR Inten    --      0.3987                 0.3115                 0.5295

                     10                     11                     12
                      A                      A                      A
 Frequencies --    221.8955               233.1177               247.6113
 Red. masses --      3.2532                 2.4768                 3.4585
 Frc consts  --      0.0944                 0.0793                 0.1249
 IR Inten    --      0.2362                 1.1667                 1.1017

                     13                     14                     15
                      A                      A                      A
 Frequencies --    255.6433               279.4536               290.5271
 Red. masses --      1.3203                 3.4067                 2.0603
 Frc consts  --      0.0508                 0.1567                 0.1025
 IR Inten    --      0.5066                 1.6008                 0.3571

                     16                     17                     18
                      A                      A                      A
 Frequencies --    324.4686               349.9941               358.4076
 Red. masses --      2.5287                 4.3062                 2.9141
 Frc consts  --      0.1569                 0.3108                 0.2206
 IR Inten    --      0.1526                 0.7120                 3.5548

                     19                     20                     21
                      A                      A                      A
 Frequencies --    406.6789               419.8458               446.8311
 Red. masses --      5.1476                 4.1828                 3.1622
 Frc consts  --      0.5016                 0.4344                 0.3720
 IR Inten    --      1.9499                 1.3198                 1.0186

                     22                     23                     24
                      A                      A                      A
 Frequencies --    456.0621               487.3697               523.4001
 Red. masses --      3.8459                 3.2941                 3.0319
 Frc consts  --      0.4713                 0.4610                 0.4894
 IR Inten    --      0.3717                10.4352                 8.4334

                     25                     26                     27
                      A                      A                      A
 Frequencies --    569.2281               574.4403               594.0809
 Red. masses --      2.6198                 3.7218                 2.7077
 Frc consts  --      0.5001                 0.7236                 0.5631
 IR Inten    --     15.4306                 3.0242                 7.0929

                     28                     29                     30
                      A                      A                      A
 Frequencies --    606.6732               629.0935               657.1874
 Red. masses --      1.3226                 2.9856                 3.6623
 Frc consts  --      0.2868                 0.6962                 0.9319
 IR Inten    --     69.6643                23.4856                17.7013

                     31                     32                     33
                      A                      A                      A
 Frequencies --    680.3422               715.3943               725.4426
 Red. masses --      3.8253                 3.4476                 4.4887
 Frc consts  --      1.0432                 1.0396                 1.3918
 IR Inten    --      9.0899                 5.8152                 4.9567

                     34                     35                     36
                      A                      A                      A
 Frequencies --    758.9666               784.4322               816.5767
 Red. masses --      4.3384                 3.0773                 1.5160
 Frc consts  --      1.4724                 1.1157                 0.5956
 IR Inten    --     21.7562                 4.0301                17.7824

                     37                     38                     39
                      A                      A                      A
 Frequencies --    820.3676               849.7936               892.6803
 Red. masses --      2.6986                 2.9277                 1.6253
 Frc consts  --      1.0701                 1.2457                 0.7631
 IR Inten    --     12.9250                 2.9900                 0.6833

                     40                     41                     42
                      A                      A                      A
 Frequencies --    904.8005               908.5891               924.0494
 Red. masses --      2.2767                 2.8708                 1.5382
 Frc consts  --      1.0981                 1.3963                 0.7738
 IR Inten    --      4.8790                12.5610                16.4873

                     43                     44                     45
                      A                      A                      A
 Frequencies --    929.1050               937.8719               948.9179
 Red. masses --      2.1063                 1.5477                 1.9544
 Frc consts  --      1.0713                 0.8021                 1.0369
 IR Inten    --      3.4637                 5.2492                 0.5299

                     46                     47                     48
                      A                      A                      A
 Frequencies --    963.3568               968.5651               983.6627
 Red. masses --      2.2137                 2.3176                 1.6438
 Frc consts  --      1.2105                 1.2810                 0.9371
 IR Inten    --      3.5751                12.5105                14.1595

                     49                     50                     51
                      A                      A                      A
 Frequencies --   1027.7594              1057.4406              1078.2780
 Red. masses --      2.4955                 3.3602                 2.2597
 Frc consts  --      1.5530                 2.2137                 1.5479
 IR Inten    --      4.3857                21.9916                13.4208

                     52                     53                     54
                      A                      A                      A
 Frequencies --   1082.3635              1090.5370              1112.2610
 Red. masses --      2.4904                 2.6613                 2.1789
 Frc consts  --      1.7190                 1.8648                 1.5882
 IR Inten    --     12.1567                88.1258                 2.8137

                     55                     56                     57
                      A                      A                      A
 Frequencies --   1136.1642              1155.4786              1163.5149
 Red. masses --      2.0471                 2.8931                 2.0310
 Frc consts  --      1.5569                 2.2758                 1.6199
 IR Inten    --     69.8886                21.7741                16.4772

                     58                     59                     60
                      A                      A                      A
 Frequencies --   1182.0892              1186.8704              1188.9189
 Red. masses --      1.3703                 1.2728                 1.6796
 Frc consts  --      1.1281                 1.0564                 1.3988
 IR Inten    --     15.5676                 1.0352                 5.4979

                     61                     62                     63
                      A                      A                      A
 Frequencies --   1196.9352              1223.2974              1226.2942
 Red. masses --      1.7913                 1.3841                 1.7855
 Frc consts  --      1.5121                 1.2203                 1.5819
 IR Inten    --    103.0431                 1.9434                19.4333

                     64                     65                     66
                      A                      A                      A
 Frequencies --   1228.4819              1235.8957              1260.4247
 Red. masses --      1.4103                 1.6418                 1.2997
 Frc consts  --      1.2540                 1.4775                 1.2166
 IR Inten    --      4.4801                 2.4093                43.9363

                     67                     68                     69
                      A                      A                      A
 Frequencies --   1274.6007              1305.4946              1309.2814
 Red. masses --      1.5891                 1.5043                 1.4860
 Frc consts  --      1.5210                 1.5105                 1.5008
 IR Inten    --     30.2678                16.7440                 3.7338

                     70                     71                     72
                      A                      A                      A
 Frequencies --   1320.9230              1325.4510              1343.3709
 Red. masses --      2.0292                 1.4960                 1.2391
 Frc consts  --      2.0861                 1.5485                 1.3175
 IR Inten    --    164.4798                53.0218                 5.0004

                     73                     74                     75
                      A                      A                      A
 Frequencies --   1351.6995              1359.9047              1367.0254
 Red. masses --      2.3637                 1.6330                 1.5320
 Frc consts  --      2.5445                 1.7793                 1.6868
 IR Inten    --     21.1582                15.3206                11.5282

                     76                     77                     78
                      A                      A                      A
 Frequencies --   1369.4660              1376.1803              1383.9397
 Red. masses --      1.5079                 1.7947                 1.3546
 Frc consts  --      1.6662                 2.0026                 1.5287
 IR Inten    --     27.1805                20.0163                 5.2883

                     79                     80                     81
                      A                      A                      A
 Frequencies --   1396.4322              1397.7026              1409.2309
 Red. masses --      1.5073                 1.6178                 1.4762
 Frc consts  --      1.7317                 1.8621                 1.7273
 IR Inten    --     12.9094                17.9376                12.5722

                     82                     83                     84
                      A                      A                      A
 Frequencies --   1413.2394              1473.6998              1499.4255
 Red. masses --      1.4230                 3.7172                 1.2292
 Frc consts  --      1.6745                 4.7565                 1.6283
 IR Inten    --     24.5057                18.9884                17.8155

                     85                     86                     87
                      A                      A                      A
 Frequencies --   1510.2865              1518.2697              1520.5787
 Red. masses --      1.1164                 1.0930                 1.0481
 Frc consts  --      1.5003                 1.4844                 1.4278
 IR Inten    --      0.8452                 7.4353                 5.0505

                     88                     89                     90
                      A                      A                      A
 Frequencies --   1525.2195              1533.8099              1536.6798
 Red. masses --      1.0950                 1.0922                 1.0807
 Frc consts  --      1.5008                 1.5138                 1.5036
 IR Inten    --      1.7139                 1.2493                50.8113

                     91                     92                     93
                      A                      A                      A
 Frequencies --   1537.5828              1551.6938              1552.6831
 Red. masses --      1.0931                 1.2960                 1.8218
 Frc consts  --      1.5226                 1.8384                 2.5878
 IR Inten    --      2.3074                25.8733                57.6510

                     94                     95                     96
                      A                      A                      A
 Frequencies --   1631.4823              1675.4401              1845.8249
 Red. masses --      6.6069                 6.4546                 9.4370
 Frc consts  --     10.3613                10.6753                18.9438
 IR Inten    --     25.6317                72.8346               361.5782

                     97                     98                     99
                      A                      A                      A
 Frequencies --   3004.5986              3008.5957              3012.8910
 Red. masses --      1.0826                 1.0703                 1.0733
 Frc consts  --      5.7582                 5.7079                 5.7403
 IR Inten    --     17.9594                29.6720                78.6660

                    100                    101                    102
                      A                      A                      A
 Frequencies --   3020.9932              3032.3884              3050.8411
 Red. masses --      1.0351                 1.0642                 1.0610
 Frc consts  --      5.5660                 5.7656                 5.8187
 IR Inten    --     65.3986                34.3491                31.6863

                    103                    104                    105
                      A                      A                      A
 Frequencies --   3056.4017              3065.9659              3077.4815
 Red. masses --      1.0681                 1.0919                 1.1064
 Frc consts  --      5.8785                 6.0475                 6.1737
 IR Inten    --     31.4766                45.4683                46.4159

                    106                    107                    108
                      A                      A                      A
 Frequencies --   3080.3551              3084.2069              3094.1736
 Red. masses --      1.0983                 1.0615                 1.1030
 Frc consts  --      6.1400                 5.9494                 6.2218
 IR Inten    --     56.2728                34.5204                16.2608

                    109                    110                    111
                      A                      A                      A
 Frequencies --   3101.3495              3106.0747              3114.6129
 Red. masses --      1.0912                 1.0924                 1.0947
 Frc consts  --      6.1838                 6.2092                 6.2567
 IR Inten    --     20.0111                27.0139                12.5824

                    112                    113                    114
                      A                      A                      A
 Frequencies --   3139.1204              3155.3715              3172.6048
 Red. masses --      1.1036                 1.0992                 1.0890
 Frc consts  --      6.4072                 6.4483                 6.4584
 IR Inten    --     37.3593                30.3447                19.6930

                    115                    116                    117
                      A                      A                      A
 Frequencies --   3226.0549              3227.0530              3693.1457
 Red. masses --      1.0904                 1.0907                 1.0642
 Frc consts  --      6.6861                 6.6920                 8.5518
 IR Inten    --      9.2399                 8.7755                54.7519

 - Thermochemistry -
 -------------------
 Temperature   298.150 Kelvin.  Pressure   1.00000 Atm.
 Atom     1 has atomic number  6 and mass  12.00000

 Molecular mass:   275.15214 amu.
 Principal axes and moments of inertia in atomic units:
                           1         2         3
     Eigenvalues --  3579.647038661.190249922.14088
           X            0.99972   0.01560   0.01754
           Y           -0.01531   0.99975  -0.01636
           Z           -0.01779   0.01609   0.99971
 This molecule is an asymmetric top.
 Rotational symmetry number  1.
 Warning -- assumption of classical behavior for rotation
           may cause significant error
 Rotational temperatures (Kelvin)      0.02420     0.01000     0.00873
 Rotational constants (GHZ):           0.50417     0.20837     0.18189
 Zero-point vibrational energy     928461.9 (Joules/Mol)
                                  221.90771 (Kcal/Mol)
 Warning -- explicit consideration of  28 degrees of freedom as
           vibrations may cause significant error
 Vibrational temperatures:     42.61    48.93    58.24    89.37   109.82
          (Kelvin)            140.55   190.39   231.65   250.79   319.26
                              335.40   356.26   367.81   402.07   418.00
                              466.84   503.56   515.67   585.12   604.06
                              642.89   656.17   701.22   753.06   818.99
                              826.49   854.75   872.87   905.13   945.55
                              978.86  1029.29  1043.75  1091.98  1128.62
                             1174.87  1180.33  1222.66  1284.37  1301.81
                             1307.26  1329.50  1336.77  1349.39  1365.28
                             1386.06  1393.55  1415.27  1478.72  1521.42
                             1551.40  1557.28  1569.04  1600.30  1634.69
                             1662.48  1674.04  1700.76  1707.64  1710.59
                             1722.12  1760.05  1764.36  1767.51  1778.18
                             1813.47  1833.87  1878.32  1883.76  1900.51
                             1907.03  1932.81  1944.79  1956.60  1966.84
                             1970.36  1980.02  1991.18  2009.15  2010.98
                             2027.57  2033.34  2120.33  2157.34  2172.97
                             2184.45  2187.77  2194.45  2206.81  2210.94
                             2212.24  2232.54  2233.96  2347.34  2410.58
                             2655.73  4322.95  4328.70  4334.88  4346.54
                             4362.93  4389.48  4397.48  4411.24  4427.81
                             4431.94  4437.49  4451.83  4462.15  4468.95
                             4481.23  4516.49  4539.88  4564.67  4641.57
                             4643.01  5313.61

 Zero-point correction=                           0.353632 (Hartree/Particle)
 Thermal correction to Energy=                    0.371553
 Thermal correction to Enthalpy=                  0.372497
 Thermal correction to Gibbs Free Energy=         0.306485
 Sum of electronic and zero-point Energies=           -902.500579
 Sum of electronic and thermal Energies=              -902.482659
 Sum of electronic and thermal Enthalpies=            -902.481715
 Sum of electronic and thermal Free Energies=         -902.547727

                     E (Thermal)             CV                S
                      KCal/Mol        Cal/Mol-Kelvin    Cal/Mol-Kelvin
 Total                  233.153             70.314            138.935
 Electronic               0.000              0.000              0.000
 Translational            0.889              2.981             42.735
 Rotational               0.889              2.981             34.086
 Vibrational            231.376             64.353             62.115
 Vibration     1          0.593              1.984              5.855
 Vibration     2          0.594              1.983              5.581
 Vibration     3          0.594              1.981              5.236
 Vibration     4          0.597              1.972              4.389
 Vibration     5          0.599              1.965              3.983
 Vibration     6          0.603              1.951              3.500
 Vibration     7          0.612              1.921              2.912
 Vibration     8          0.622              1.890              2.538
 Vibration     9          0.627              1.874              2.389
 Vibration    10          0.648              1.808              1.944
 Vibration    11          0.654              1.790              1.855
 Vibration    12          0.661              1.767              1.748
 Vibration    13          0.666              1.753              1.691
 Vibration    14          0.680              1.712              1.537
 Vibration    15          0.686              1.691              1.471
 Vibration    16          0.709              1.627              1.287
 Vibration    17          0.727              1.575              1.166
 Vibration    18          0.733              1.558              1.129
 Vibration    19          0.771              1.456              0.938
 Vibration    20          0.783              1.427              0.892
 Vibration    21          0.806              1.368              0.805
 Vibration    22          0.814              1.347              0.778
 Vibration    23          0.843              1.278              0.690
 Vibration    24          0.878              1.198              0.602
 Vibration    25          0.925              1.098              0.506
 Vibration    26          0.931              1.087              0.496
 Vibration    27          0.952              1.044              0.460
 Vibration    28          0.965              1.018              0.438

 Optimization completed.
    -- Stationary point found.
 Normal termination of Gaussian 16 at Sat Dec 12 17:04:14 2020.

 ----------------------------------------------------------------------
 # B3LYP/6-311++G(d,p) empiricaldispersion=gd3bj scf=xqc pop=npa geom=c
 heck
 ----------------------------------------------------------------------

 ---------------------------------------
 CID_79248560_JID_10986_Energie_neutraal
 ---------------------------------------
 Structure from the checkpoint file:  "JID_10986.chk"
 Charge =  0 Multiplicity = 1

 SCF Done:  E(RB3LYP) =  -903.105940610     A.U. after   15 cycles
 Normal termination of Gaussian 16 at Sat Dec 12 17:12:44 2020.

 ----------------------------------------------------------------------
 # B3LYP/6-311++G(d,p) empiricaldispersion=gd3bj scf=xqc pop=npa geom=c
 heck
 ----------------------------------------------------------------------

 -------------------------------------
 CID_79248560_JID_10986_Energie_kation
 -------------------------------------
 Structure from the checkpoint file:  "JID_10986.chk"
 Charge =  1 Multiplicity = 2

 SCF Done:  E(UB3LYP) =  -902.837416446     A.U. after   25 cycles
 Normal termination of Gaussian 16 at Sat Dec 12 17:32:23 2020.
 Gaussian 16:  ES64L-G16RevA.03 25-Dec-2016

 ----------------------------------------------------------------------
 # B3LYP/6-311++G(d,p) empiricaldispersion=gd3bj scf=xqc pop=npa geom=c
 heck
 ----------------------------------------------------------------------

 ------------------------------------
 CID_79248560_JID_10986_Energie_anion
 ------------------------------------
 Structure from the checkpoint file:  "JID_10986.chk"
 Charge = -1 Multiplicity = 2

                         Standard orientation:
 ---------------------------------------------------------------------
 Center     Atomic      Atomic             Coordinates (Angstroms)
 Number     Number       Type             X           Y           Z
 ---------------------------------------------------------------------
      1          6           0       -4.919804   -2.305797   -0.265461
      2          8           0       -3.674154   -2.017393    0.342845
      3          6           0       -3.073900   -0.828456    0.031512
      4          6           0       -1.846378   -0.585969    0.651682
      5          6           0       -1.133640    0.589108    0.412348
      6          6           0       -1.659901    1.556322   -0.466650
      7          6           0       -0.921301    2.843724   -0.773927
      8          6           0        0.115901    3.185722    0.297270
      9          6           0        1.005198    1.969282    0.558658
     10          6           0        0.184140    0.808527    1.155396
     11          7           0        0.902517   -0.465193    1.292803
     12          6           0        2.067588   -0.454027    2.180131
     13          6           0        3.299761   -0.433863    1.262150
     14          6           0        2.842786   -1.334530    0.094747
     15          6           0        1.296707   -1.112593    0.031494
     16          6           0        3.534702   -1.049395   -1.214191
     17          8           0        4.155352   -1.849113   -1.878816
     18          8           0        3.386969    0.248158   -1.606818
     19          6           0       -2.891184    1.299165   -1.073960
     20          6           0       -3.605684    0.124432   -0.843813
     21          1           0       -5.219214   -3.285775    0.110570
     22          1           0       -4.835654   -2.347609   -1.359888
     23          1           0       -5.683918   -1.564654    0.005515
     24          1           0       -1.438187   -1.333156    1.322827
     25          1           0       -1.641029    3.663188   -0.892215
     26          1           0       -0.407693    2.749094   -1.743090
     27          1           0       -0.393963    3.476460    1.226591
     28          1           0        0.718025    4.045927   -0.018074
     29          1           0        1.477213    1.654306   -0.380042
     30          1           0        1.815976    2.226111    1.250461
     31          1           0       -0.080848    1.101989    2.182081
     32          1           0        2.077345   -1.366364    2.794740
     33          1           0        2.025475    0.399204    2.863761
     34          1           0        3.490489    0.580192    0.901331
     35          1           0        4.209509   -0.807744    1.742299
     36          1           0        3.057040   -2.380632    0.326013
     37          1           0        1.015576   -0.492611   -0.824348
     38          1           0        0.789458   -2.076329   -0.090852
     39          1           0        3.855919    0.321175   -2.458609
     40          1           0       -3.307571    2.041490   -1.751659
     41          1           0       -4.556844   -0.031026   -1.339036
 ---------------------------------------------------------------------

 SCF Done:  E(UB3LYP) =  -903.095341549     A.U. after   33 cycles
 SCF Done:  E(UB3LYP) =  -903.095341549     a.u. after    1 cycles

 The electronic state is 2-A.
 Alpha  occ. eigenvalues --  -19.07981 -19.06406 -19.03011 -14.21323 -10.21990
 Alpha  occ. eigenvalues --  -10.14076 -10.13527 -10.11512 -10.10988 -10.10950
 Alpha  occ. eigenvalues --  -10.10580 -10.08857 -10.08817 -10.08385 -10.08267
 Alpha  occ. eigenvalues --  -10.08118 -10.08039 -10.07747 -10.07218 -10.07067
 Alpha  occ. eigenvalues --   -1.02147  -0.97991  -0.93317  -0.84957  -0.77334
 Alpha  occ. eigenvalues --   -0.72776  -0.70939  -0.67275  -0.65862  -0.64682
 Alpha  occ. eigenvalues --   -0.63567  -0.60005  -0.56631  -0.54393  -0.52052
 Alpha  occ. eigenvalues --   -0.51472  -0.50427  -0.48814  -0.46107  -0.43883
 Alpha  occ. eigenvalues --   -0.42349  -0.41082  -0.40574  -0.39357  -0.38700
 Alpha  occ. eigenvalues --   -0.38216  -0.37336  -0.36562  -0.35626  -0.35486
 Alpha  occ. eigenvalues --   -0.34430  -0.33688  -0.32967  -0.32442  -0.31653
 Alpha  occ. eigenvalues --   -0.30807  -0.29938  -0.29581  -0.28767  -0.27944
 Alpha  occ. eigenvalues --   -0.27500  -0.27206  -0.26716  -0.25387  -0.24968
 Alpha  occ. eigenvalues --   -0.24581  -0.23895  -0.23732  -0.22280  -0.22084
 Alpha  occ. eigenvalues --   -0.19559  -0.16039  -0.12956  -0.12140   0.03769
 Alpha virt. eigenvalues --    0.05038   0.06063   0.06329   0.07043   0.07287
 Alpha virt. eigenvalues --    0.07727   0.07973   0.08576   0.08761   0.09154
 Alpha virt. eigenvalues --    0.09212   0.09572   0.09977   0.10522   0.10877

  Beta  occ. eigenvalues --  -19.07935 -19.06399 -19.03001 -14.21324 -10.21987
  Beta  occ. eigenvalues --  -10.14077 -10.13490 -10.11508 -10.10979 -10.10936
  Beta  occ. eigenvalues --  -10.10571 -10.08842 -10.08805 -10.08384 -10.08262
  Beta  occ. eigenvalues --  -10.08101 -10.08027 -10.07734 -10.07214 -10.07050
  Beta  occ. eigenvalues --   -1.02091  -0.97976  -0.93269  -0.84949  -0.77316
  Beta  occ. eigenvalues --   -0.72755  -0.70917  -0.67251  -0.65834  -0.64655
  Beta  occ. eigenvalues --   -0.63536  -0.59966  -0.56587  -0.54350  -0.52024
  Beta  occ. eigenvalues --   -0.51431  -0.50364  -0.48785  -0.46068  -0.43857
  Beta  occ. eigenvalues --   -0.42318  -0.41063  -0.40548  -0.39333  -0.38675
  Beta  occ. eigenvalues --   -0.38191  -0.37311  -0.36536  -0.35598  -0.35462
  Beta  occ. eigenvalues --   -0.34400  -0.33667  -0.32947  -0.32408  -0.31629
  Beta  occ. eigenvalues --   -0.30782  -0.29916  -0.29554  -0.28747  -0.27916
  Beta  occ. eigenvalues --   -0.27475  -0.27184  -0.26691  -0.25367  -0.24938
  Beta  occ. eigenvalues --   -0.24554  -0.23874  -0.23703  -0.22258  -0.22062
  Beta  occ. eigenvalues --   -0.19520  -0.15996  -0.12934  -0.12131
  Beta virt. eigenvalues --    0.05697   0.06046   0.06576   0.06752   0.07465
  Beta virt. eigenvalues --    0.07591   0.07865   0.08283   0.08698   0.09068
  Beta virt. eigenvalues --    0.09389   0.09506   0.09726   0.10253   0.10676

 Mulliken charges and spin densities:
               1          2
     1  C    0.587238  -0.902400
     2  O   -0.193649   0.038868
     3  C   -0.689974   0.124041
     4  C   -0.484178  -0.207332
     5  C    0.149388   0.449171
     6  C   -0.027241   0.228102
     7  C    0.241639  -0.726569
     8  C    0.466686  -1.153680
     9  C   -0.180839   0.027075
    10  C   -1.155797   0.549563
    11  N    0.316982  -0.012183
    12  C    0.360802  -0.548381
    13  C   -0.181433  -0.181880
    14  C    0.723838  -0.672554
    15  C   -0.127442  -0.181268
    16  C   -0.516793   0.264303
    17  O   -0.273174   0.009723
    18  O   -0.195995   0.007704
    19  C    1.095745  -1.263260
    20  C   -0.363413   0.736535
    21  H   -0.279433   0.454466
    22  H   -0.152785   0.304267
    23  H   -0.167237   0.318165
    24  H    0.216427   0.011250
    25  H    0.111777   0.033858
    26  H   -0.046551   0.230312
    27  H    0.150935  -0.018521
    28  H   -0.352651   0.543625
    29  H    0.736170  -0.555837
    30  H   -0.231126   0.394040
    31  H   -0.049299   0.240141
    32  H    0.004395   0.155930
    33  H    0.008392   0.145394
    34  H   -0.048625   0.239874
    35  H   -0.166813   0.369425
    36  H    0.126009   0.128553
    37  H    0.063150   0.096276
    38  H    0.148238   0.026845
    39  H   -0.324692   0.641325
    40  H   -0.163029   0.329543
    41  H   -0.135643   0.325491
 Sum of Mulliken charges =  -1.00000   1.00000

 Dipole moment (field-independent basis, Debye):
    X=             -0.4433    Y=              0.2433    Z=              3.0226  Tot=              3.0646
 Quadrupole moment (field-independent basis, Debye-Ang):
   XX=           -221.9328   YY=           -170.1585   ZZ=           -161.8389
   XY=            -11.4616   XZ=              7.2718   YZ=             -1.9716

 Summary of Natural Population Analysis:

                                       Natural Population
                Natural  -----------------------------------------------
    Atom  No    Charge         Core      Valence    Rydberg      Total
 -----------------------------------------------------------------------
      C    1   -0.10115      0.99960     2.09245    0.00910     3.10115
      O    2   -0.27364      0.99986     3.26428    0.00951     4.27364
      C    3    0.15938      0.99937     1.82801    0.01323     2.84062
      C    4   -0.11500      0.99948     2.10634    0.00918     3.11500
      C    5   -0.01018      0.99946     2.00134    0.00938     3.01018
      C    6   -0.02847      0.99947     2.01974    0.00927     3.02847
      C    7   -0.19361      0.99960     2.18587    0.00814     3.19361
      C    8   -0.18606      0.99964     2.17837    0.00806     3.18606
      C    9   -0.20503      0.99961     2.19618    0.00924     3.20503
      C   10   -0.00049      0.99954     1.98824    0.01271     3.00049
      N   11   -0.28431      0.99973     2.77257    0.01201     3.78431
      C   12   -0.08133      0.99963     2.07053    0.01118     3.08133
      C   13   -0.19461      0.99962     2.18722    0.00777     3.19461
      C   14   -0.16289      0.99954     2.15231    0.01104     3.16289
      C   15   -0.07934      0.99961     2.07067    0.00906     3.07934
      C   16    0.41095      0.99967     1.56392    0.02547     2.58905
      O   17   -0.30534      0.99987     3.29953    0.00594     4.30534
      O   18   -0.34863      0.99988     3.34161    0.00714     4.34863
      C   19   -0.08727      0.99953     2.07853    0.00921     3.08727
      C   20   -0.14251      0.99952     2.13462    0.00837     3.14251
      H   21    0.09331      0.00000     0.40563    0.00106     0.40669
      H   22    0.08498      0.00000     0.41351    0.00151     0.41502
      H   23    0.08423      0.00000     0.41422    0.00156     0.41577
      H   24    0.11281      0.00000     0.38518    0.00201     0.38719
      H   25    0.10053      0.00000     0.39845    0.00102     0.39947
      H   26    0.10200      0.00000     0.39666    0.00135     0.39800
      H   27    0.09230      0.00000     0.40651    0.00120     0.40770
      H   28    0.10103      0.00000     0.39798    0.00099     0.39897
      H   29    0.10434      0.00000     0.39319    0.00246     0.39566
      H   30    0.09991      0.00000     0.39869    0.00140     0.40009
      H   31    0.10070      0.00000     0.39784    0.00146     0.39930
      H   32    0.08863      0.00000     0.41034    0.00103     0.41137
      H   33    0.10008      0.00000     0.39895    0.00097     0.39992
      H   34    0.10681      0.00000     0.39103    0.00215     0.39319
      H   35    0.10167      0.00000     0.39727    0.00106     0.39833
      H   36    0.10927      0.00000     0.38958    0.00115     0.39073
      H   37    0.10321      0.00000     0.39492    0.00187     0.39679
      H   38    0.09611      0.00000     0.40281    0.00108     0.40389
      H   39    0.24466      0.00000     0.24587    0.00948     0.25534
      H   40    0.09765      0.00000     0.40102    0.00133     0.40235
      H   41    0.10533      0.00000     0.39334    0.00133     0.39467
 =======================================================================
   * Total *    0.00000     19.99221    53.76531    0.24248    74.00000

 Normal termination of Gaussian 16 at Sat Dec 12 17:59:08 2020.
