 Gaussian 16, Revision A.03,

 -----------------------------------------------------------
 # opt freq B3LYP/6-31G(d) empiricaldispersion=gd3bj scf=xqc
 -----------------------------------------------------------

 -------------------------------
 CID_105363548_JID_4594_neutraal
 -------------------------------
 Symbolic Z-matrix:
 Charge =  0 Multiplicity = 1

 SCF Done:  E(RB3LYP) =  -665.519091619     A.U. after   15 cycles
 SCF Done:  E(RB3LYP) =  -665.524204537     A.U. after   13 cycles
 SCF Done:  E(RB3LYP) =  -665.523945039     A.U. after   13 cycles
 SCF Done:  E(RB3LYP) =  -665.524814093     A.U. after   12 cycles
 SCF Done:  E(RB3LYP) =  -665.524881470     A.U. after   10 cycles
 SCF Done:  E(RB3LYP) =  -665.524895752     A.U. after   10 cycles
 SCF Done:  E(RB3LYP) =  -665.524905367     A.U. after   10 cycles
 SCF Done:  E(RB3LYP) =  -665.524910795     A.U. after   10 cycles
 SCF Done:  E(RB3LYP) =  -665.524914882     A.U. after   10 cycles
 SCF Done:  E(RB3LYP) =  -665.524922611     A.U. after   11 cycles
 SCF Done:  E(RB3LYP) =  -665.525794672     A.U. after   10 cycles
 SCF Done:  E(RB3LYP) =  -665.525796227     A.U. after    9 cycles
 SCF Done:  E(RB3LYP) =  -665.525797791     A.U. after    9 cycles
 SCF Done:  E(RB3LYP) =  -665.525798382     A.U. after    9 cycles
 SCF Done:  E(RB3LYP) =  -665.525798456     A.U. after    8 cycles
 SCF Done:  E(RB3LYP) =  -665.525798478     A.U. after    7 cycles
 Optimization completed.
    -- Stationary point found.
 Normal termination of Gaussian 16 at Thu Dec 10 10:28:26 2020.

 --------------------------------------------------------------------
 #N Geom=AllCheck Guess=TCheck SCRF=Check GenChk RB3LYP/6-31G(d) Freq
 --------------------------------------------------------------------

 Structure from the checkpoint file:  "JID_4594.chk"
 -------------------------------
 CID_105363548_JID_4594_neutraal
 -------------------------------
 Charge =  0 Multiplicity = 1

 SCF Done:  E(RB3LYP) =  -665.525798478     A.U. after    1 cycles

  Exact polarizability: 148.188   2.332 115.005  -9.616   4.496  85.977
 Approx polarizability: 203.755   6.951 186.926 -20.768  12.651 132.094

                      1                      2                      3
                      A                      A                      A
 Frequencies --     22.3893                40.8791                56.9206
 Red. masses --      5.0044                 9.3528                 4.2714
 Frc consts  --      0.0015                 0.0092                 0.0082
 IR Inten    --      0.2689                 1.2134                 0.6574

                      4                      5                      6
                      A                      A                      A
 Frequencies --     64.0667                77.6982               107.6163
 Red. masses --      2.5544                 2.4919                 4.8518
 Frc consts  --      0.0062                 0.0089                 0.0331
 IR Inten    --      0.3276                 0.3600                 1.5245

                      7                      8                      9
                      A                      A                      A
 Frequencies --    154.1880               188.0428               215.5005
 Red. masses --      3.1190                 2.9438                 1.1797
 Frc consts  --      0.0437                 0.0613                 0.0323
 IR Inten    --      0.8485                 0.7960                 0.0595

                     10                     11                     12
                      A                      A                      A
 Frequencies --    238.6982               282.3419               300.9732
 Red. masses --      1.2539                 3.7137                 2.2226
 Frc consts  --      0.0421                 0.1744                 0.1186
 IR Inten    --      0.7904                 1.0650                 1.3414

                     13                     14                     15
                      A                      A                      A
 Frequencies --    349.9094               366.6256               384.2222
 Red. masses --      2.8877                 3.9813                 4.9096
 Frc consts  --      0.2083                 0.3153                 0.4270
 IR Inten    --      3.4821                 0.7581                 0.3606

                     16                     17                     18
                      A                      A                      A
 Frequencies --    455.4208               480.7346               537.9798
 Red. masses --      6.2002                 2.5163                 2.4332
 Frc consts  --      0.7577                 0.3426                 0.4149
 IR Inten    --      8.7418                 2.1948                10.5024

                     19                     20                     21
                      A                      A                      A
 Frequencies --    547.0513               598.6974               617.1527
 Red. masses --      4.3912                 4.0959                 2.9435
 Frc consts  --      0.7743                 0.8650                 0.6605
 IR Inten    --     11.5379                34.6569                20.0828

                     22                     23                     24
                      A                      A                      A
 Frequencies --    676.8645               703.6962               746.5597
 Red. masses --      2.5096                 2.7128                 4.2926
 Frc consts  --      0.6774                 0.7915                 1.4096
 IR Inten    --     49.7515                63.0633                 3.8310

                     25                     26                     27
                      A                      A                      A
 Frequencies --    776.2226               804.1616               824.7549
 Red. masses --      1.8481                 1.4161                 1.9679
 Frc consts  --      0.6561                 0.5395                 0.7887
 IR Inten    --      5.9686                 2.1932                 0.4318

                     28                     29                     30
                      A                      A                      A
 Frequencies --    850.5185               891.5968               951.9379
 Red. masses --      3.6721                 4.4494                 2.8644
 Frc consts  --      1.5651                 2.0840                 1.5293
 IR Inten    --      0.5772                 6.8248                 4.3830

                     31                     32                     33
                      A                      A                      A
 Frequencies --    964.0639              1003.8011              1024.6744
 Red. masses --      2.3087                 1.9451                 3.6334
 Frc consts  --      1.2642                 1.1548                 2.2477
 IR Inten    --      4.1566                 3.4369                 0.7720

                     34                     35                     36
                      A                      A                      A
 Frequencies --   1073.6566              1090.9637              1096.2239
 Red. masses --      2.0629                 2.0351                 1.9751
 Frc consts  --      1.4011                 1.4271                 1.3985
 IR Inten    --     27.0747                 3.2539                 1.0225

                     37                     38                     39
                      A                      A                      A
 Frequencies --   1117.9238              1135.7228              1174.6339
 Red. masses --      1.6406                 3.6642                 1.8473
 Frc consts  --      1.2080                 2.7847                 1.5017
 IR Inten    --      0.5252                 9.7424               140.9520

                     40                     41                     42
                      A                      A                      A
 Frequencies --   1200.9196              1235.0816              1284.1901
 Red. masses --      3.1848                 1.6730                 1.8140
 Frc consts  --      2.7062                 1.5037                 1.7626
 IR Inten    --     12.8798                83.0161                15.2897

                     43                     44                     45
                      A                      A                      A
 Frequencies --   1302.7466              1309.2977              1344.2069
 Red. masses --      1.3226                 1.1914                 2.1284
 Frc consts  --      1.3225                 1.2033                 2.2659
 IR Inten    --      0.6817                 0.4044                20.7652

                     46                     47                     48
                      A                      A                      A
 Frequencies --   1352.8146              1377.6368              1383.5147
 Red. masses --      1.6102                 1.8000                 2.6534
 Frc consts  --      1.7362                 2.0127                 2.9924
 IR Inten    --      6.6108                28.1666                47.7989

                     49                     50                     51
                      A                      A                      A
 Frequencies --   1422.6381              1438.9751              1439.6473
 Red. masses --      2.1757                 2.6344                 1.8615
 Frc consts  --      2.5944                 3.2140                 2.2731
 IR Inten    --      3.7358                70.1161                25.0677

                     52                     53                     54
                      A                      A                      A
 Frequencies --   1446.9434              1479.6133              1498.3546
 Red. masses --      1.4125                 1.1274                 1.1173
 Frc consts  --      1.7424                 1.4542                 1.4779
 IR Inten    --     18.6172                19.6189                 1.2608

                     55                     56                     57
                      A                      A                      A
 Frequencies --   1517.1077              1521.9287              1526.9277
 Red. masses --      1.0757                 1.0393                 1.0464
 Frc consts  --      1.4588                 1.4183                 1.4375
 IR Inten    --      1.5265                 5.8441                 4.3215

                     58                     59                     60
                      A                      A                      A
 Frequencies --   1528.5515              1537.2653              1579.9354
 Red. masses --      1.0621                 1.0935                 6.5448
 Frc consts  --      1.4621                 1.5225                 9.6256
 IR Inten    --     13.5963                 2.4340                55.4896

                     61                     62                     63
                      A                      A                      A
 Frequencies --   1593.4647              1858.7671              3028.8685
 Red. masses --      8.4025                 9.9135                 1.0628
 Frc consts  --     12.5702                20.1803                 5.7446
 IR Inten    --     41.8673               351.6413                16.4701

                     64                     65                     66
                      A                      A                      A
 Frequencies --   3055.4996              3058.7276              3068.3736
 Red. masses --      1.0713                 1.0601                 1.0366
 Frc consts  --      5.8926                 5.8433                 5.7504
 IR Inten    --      1.8222                36.5307                27.8697

                     67                     68                     69
                      A                      A                      A
 Frequencies --   3076.3281              3089.8562              3114.5394
 Red. masses --      1.0595                 1.0596                 1.1033
 Frc consts  --      5.9074                 5.9601                 6.3058
 IR Inten    --     14.7695                 3.1480                 2.0132

                     70                     71                     72
                      A                      A                      A
 Frequencies --   3131.0948              3137.1872              3139.8970
 Red. masses --      1.1030                 1.1022                 1.1044
 Frc consts  --      6.3713                 6.3910                 6.4149
 IR Inten    --     33.0588                22.9931                30.9359

                     73                     74                     75
                      A                      A                      A
 Frequencies --   3141.9499              3149.6278              3688.6398
 Red. masses --      1.1039                 1.1026                 1.0640
 Frc consts  --      6.4207                 6.4446                 8.5293
 IR Inten    --      1.3986                19.0460                53.6578

 - Thermochemistry -
 -------------------
 Temperature   298.150 Kelvin.  Pressure   1.00000 Atm.
 Atom     1 has atomic number  6 and mass  12.00000

 Molecular mass:   195.10078 amu.
 Principal axes and moments of inertia in atomic units:
                           1         2         3
     Eigenvalues --  1564.233974484.226475445.42413
           X            0.99996  -0.00700  -0.00506
           Y            0.00695   0.99993  -0.01000
           Z            0.00513   0.00996   0.99994
 This molecule is an asymmetric top.
 Rotational symmetry number  1.
 Warning -- assumption of classical behavior for rotation
           may cause significant error
 Rotational temperatures (Kelvin)      0.05537     0.01932     0.01591
 Rotational constants (GHZ):           1.15375     0.40246     0.33142
 Zero-point vibrational energy     580525.0 (Joules/Mol)
                                  138.74881 (Kcal/Mol)
 Warning -- explicit consideration of  21 degrees of freedom as
           vibrations may cause significant error
 Vibrational temperatures:     32.21    58.82    81.90    92.18   111.79
          (Kelvin)            154.84   221.84   270.55   310.06   343.43
                              406.23   433.03   503.44   527.49   552.81
                              655.25   691.67   774.03   787.08   861.39
                              887.95   973.86  1012.46  1074.13  1116.81
                             1157.01  1186.64  1223.71  1282.81  1369.63
                             1387.07  1444.25  1474.28  1544.75  1569.65
                             1577.22  1608.44  1634.05  1690.04  1727.86
                             1777.01  1847.66  1874.36  1883.79  1934.01
                             1946.40  1982.11  1990.57  2046.86  2070.36
                             2071.33  2081.83  2128.83  2155.80  2182.78
                             2189.72  2196.91  2199.24  2211.78  2273.17
                             2292.64  2674.35  4357.87  4396.18  4400.83
                             4414.71  4426.15  4445.61  4481.13  4504.95
                             4513.71  4517.61  4520.57  4531.61  5307.13

 Zero-point correction=                           0.221110 (Hartree/Particle)
 Thermal correction to Energy=                    0.235308
 Thermal correction to Enthalpy=                  0.236253
 Thermal correction to Gibbs Free Energy=         0.177883
 Sum of electronic and zero-point Energies=           -665.304688
 Sum of electronic and thermal Energies=              -665.290490
 Sum of electronic and thermal Enthalpies=            -665.289546
 Sum of electronic and thermal Free Energies=         -665.347915

                     E (Thermal)             CV                S
                      KCal/Mol        Cal/Mol-Kelvin    Cal/Mol-Kelvin
 Total                  147.658             51.085            122.849
 Electronic               0.000              0.000              0.000
 Translational            0.889              2.981             41.710
 Rotational               0.889              2.981             32.013
 Vibrational            145.881             45.124             49.125
 Vibration     1          0.593              1.985              6.410
 Vibration     2          0.594              1.981              5.216
 Vibration     3          0.596              1.975              4.561
 Vibration     4          0.597              1.971              4.328
 Vibration     5          0.599              1.964              3.948
 Vibration     6          0.606              1.943              3.311
 Vibration     7          0.620              1.898              2.620
 Vibration     8          0.633              1.856              2.247
 Vibration     9          0.645              1.817              1.997
 Vibration    10          0.657              1.781              1.813
 Vibration    11          0.681              1.706              1.519
 Vibration    12          0.693              1.672              1.411
 Vibration    13          0.727              1.575              1.167
 Vibration    14          0.740              1.541              1.094
 Vibration    15          0.753              1.504              1.022
 Vibration    16          0.814              1.349              0.780
 Vibration    17          0.837              1.293              0.708
 Vibration    18          0.893              1.166              0.570
 Vibration    19          0.902              1.146              0.550
 Vibration    20          0.957              1.035              0.452
 Vibration    21          0.977              0.996              0.421

 Optimization completed.
    -- Stationary point found.
 Normal termination of Gaussian 16 at Thu Dec 10 10:35:42 2020.

 ----------------------------------------------------------------------
 # B3LYP/6-311++G(d,p) empiricaldispersion=gd3bj scf=xqc pop=npa geom=c
 heck
 ----------------------------------------------------------------------

 ---------------------------------------
 CID_105363548_JID_4594_Energie_neutraal
 ---------------------------------------
 Structure from the checkpoint file:  "JID_4594.chk"
 Charge =  0 Multiplicity = 1

 SCF Done:  E(RB3LYP) =  -665.717707273     A.U. after   15 cycles
 Normal termination of Gaussian 16 at Thu Dec 10 10:39:51 2020.

 ----------------------------------------------------------------------
 # B3LYP/6-311++G(d,p) empiricaldispersion=gd3bj scf=xqc pop=npa geom=c
 heck
 ----------------------------------------------------------------------

 -------------------------------------
 CID_105363548_JID_4594_Energie_kation
 -------------------------------------
 Structure from the checkpoint file:  "JID_4594.chk"
 Charge =  1 Multiplicity = 2

 SCF Done:  E(UB3LYP) =  -665.398939040     A.U. after   27 cycles
 Normal termination of Gaussian 16 at Thu Dec 10 10:50:46 2020.
 Gaussian 16:  ES64L-G16RevA.03 25-Dec-2016

 ----------------------------------------------------------------------
 # B3LYP/6-311++G(d,p) empiricaldispersion=gd3bj scf=xqc pop=npa geom=c
 heck
 ----------------------------------------------------------------------

 ------------------------------------
 CID_105363548_JID_4594_Energie_anion
 ------------------------------------
 Structure from the checkpoint file:  "JID_4594.chk"
 Charge = -1 Multiplicity = 2

                         Standard orientation:
 ---------------------------------------------------------------------
 Center     Atomic      Atomic             Coordinates (Angstroms)
 Number     Number       Type             X           Y           Z
 ---------------------------------------------------------------------
      1          6           0       -1.923161    2.871786   -0.615131
      2          6           0       -1.401829    2.078957    0.597642
      3          6           0       -0.837996    0.748168    0.176469
      4          6           0       -1.621100   -0.431933    0.081117
      5          7           0       -1.075677   -1.566960   -0.350340
      6          7           0        0.218361   -1.599956   -0.686791
      7          6           0        0.921403   -0.474017   -0.577614
      8          7           0        0.444732    0.713832   -0.162984
      9          6           0        2.375353   -0.532888   -0.963223
     10          6           0        3.312088   -0.091759    0.146437
     11          8           0        4.298270    0.590660   -0.001691
     12          8           0        2.935386   -0.592959    1.347636
     13          6           0       -3.084067   -0.462158    0.460339
     14          6           0       -3.772499   -1.805545    0.219338
     15          1           0       -1.114460    3.040283   -1.333016
     16          1           0       -2.312609    3.844555   -0.298738
     17          1           0       -2.727542    2.335170   -1.130137
     18          1           0       -0.599024    2.642395    1.082460
     19          1           0       -2.205905    1.940476    1.327508
     20          1           0        2.618902   -1.564588   -1.236593
     21          1           0        2.573511    0.112308   -1.822977
     22          1           0        3.596447   -0.275198    1.990927
     23          1           0       -3.173378   -0.183138    1.520172
     24          1           0       -3.606598    0.330911   -0.091619
     25          1           0       -3.292763   -2.603081    0.792388
     26          1           0       -4.824600   -1.743175    0.515793
     27          1           0       -3.722293   -2.090596   -0.835170
 ---------------------------------------------------------------------

 SCF Done:  E(UB3LYP) =  -665.731947575     A.U. after   31 cycles

 The electronic state is 2-A.
 Alpha  occ. eigenvalues --  -19.06360 -19.00812 -14.15789 -14.15201 -14.13418
 Alpha  occ. eigenvalues --  -10.19789 -10.08210 -10.06243 -10.05233 -10.04989
 Alpha  occ. eigenvalues --  -10.04093 -10.04088 -10.04060 -10.03840  -1.00369
 Alpha  occ. eigenvalues --   -0.91517  -0.85755  -0.75726  -0.70145  -0.65276
 Alpha  occ. eigenvalues --   -0.63731  -0.60690  -0.54077  -0.52470  -0.50181
 Alpha  occ. eigenvalues --   -0.46285  -0.45483  -0.39103  -0.38279  -0.36822
 Alpha  occ. eigenvalues --   -0.35405  -0.33478  -0.32937  -0.31480  -0.30910
 Alpha  occ. eigenvalues --   -0.30393  -0.29041  -0.27569  -0.26759  -0.25457
 Alpha  occ. eigenvalues --   -0.24585  -0.24305  -0.23431  -0.22313  -0.22150
 Alpha  occ. eigenvalues --   -0.21683  -0.18219  -0.16939  -0.14991  -0.13986
 Alpha  occ. eigenvalues --   -0.12155  -0.06068   0.04584
 Alpha virt. eigenvalues --    0.07891   0.08252   0.08826   0.10084   0.10658
 Alpha virt. eigenvalues --    0.11264   0.11399   0.12205   0.12302   0.12601
 Alpha virt. eigenvalues --    0.13082   0.14017   0.14791   0.15235   0.15504

  Beta  occ. eigenvalues --  -19.06349 -19.00807 -14.15439 -14.14516 -14.12897
  Beta  occ. eigenvalues --  -10.19784 -10.08311 -10.06241 -10.05352 -10.04982
  Beta  occ. eigenvalues --  -10.04092 -10.03997 -10.03874 -10.03690  -1.00352
  Beta  occ. eigenvalues --   -0.91503  -0.84924  -0.74697  -0.69812  -0.65249
  Beta  occ. eigenvalues --   -0.63522  -0.60367  -0.53552  -0.52316  -0.50118
  Beta  occ. eigenvalues --   -0.45853  -0.45360  -0.38861  -0.38219  -0.36702
  Beta  occ. eigenvalues --   -0.35315  -0.33318  -0.32827  -0.31364  -0.30788
  Beta  occ. eigenvalues --   -0.30072  -0.29000  -0.27460  -0.26035  -0.25306
  Beta  occ. eigenvalues --   -0.24300  -0.23899  -0.23119  -0.22183  -0.22010
  Beta  occ. eigenvalues --   -0.21526  -0.18041  -0.14541  -0.13888  -0.13226
  Beta  occ. eigenvalues --   -0.10723  -0.05374
  Beta virt. eigenvalues --    0.07815   0.08239   0.08842   0.10065   0.10612
  Beta virt. eigenvalues --    0.11194   0.11294   0.12188   0.12353   0.12510
  Beta virt. eigenvalues --    0.12775   0.13373   0.14160   0.14746   0.15238

 Mulliken charges and spin densities:
               1          2
     1  C    0.052249  -0.635171
     2  C   -0.769051   0.568851
     3  C    0.247144   0.029570
     4  C   -0.027440  -0.126820
     5  N   -0.310950   0.307839
     6  N    0.221610   0.166115
     7  C   -0.221391  -0.038635
     8  N    0.073101   0.255340
     9  C   -0.586344  -0.017001
    10  C    0.084701   0.002747
    11  O   -0.303374   0.003366
    12  O   -0.132293   0.005257
    13  C   -0.013311  -0.087133
    14  C   -0.648733  -0.079990
    15  H    0.159226  -0.011652
    16  H   -0.226431   0.348126
    17  H    0.048975   0.056379
    18  H    0.035846   0.135960
    19  H    0.051109   0.067520
    20  H    0.177599   0.000578
    21  H    0.204508  -0.001840
    22  H    0.261267   0.004392
    23  H    0.122046   0.004454
    24  H    0.089312   0.034108
    25  H    0.154374   0.006305
    26  H    0.091601   0.005527
    27  H    0.164650  -0.004189
 Sum of Mulliken charges =  -1.00000   1.00000

 Dipole moment (field-independent basis, Debye):
    X=              0.0346    Y=             -0.1572    Z=              1.7624  Tot=              1.7698
 Quadrupole moment (field-independent basis, Debye-Ang):
   XX=           -117.5706   YY=           -119.0203   ZZ=            -88.5453
   XY=             -3.1858   XZ=              3.3799   YZ=             -2.3258

 Summary of Natural Population Analysis:

                                       Natural Population
                Natural  -----------------------------------------------
    Atom  No    Charge         Core      Valence    Rydberg      Total
 -----------------------------------------------------------------------
      C    1   -0.27683      0.99966     2.27187    0.00530     3.27683
      C    2   -0.21128      0.99962     2.20046    0.01120     3.21128
      C    3    0.17209      0.99951     1.81313    0.01528     2.82791
      C    4    0.04570      0.99951     1.93859    0.01620     2.95430
      N    5   -0.04089      0.99967     2.52552    0.01570     3.54089
      N    6   -0.11512      0.99967     2.60111    0.01434     3.61512
      C    7    0.16905      0.99962     1.80947    0.02186     2.83095
      N    8   -0.19183      0.99964     2.68023    0.01197     3.69183
      C    9   -0.25131      0.99953     2.24266    0.00912     3.25131
      C   10    0.41840      0.99974     1.55693    0.02493     2.58160
      O   11   -0.31645      0.99986     3.30972    0.00686     4.31645
      O   12   -0.33863      0.99987     3.33162    0.00714     4.33863
      C   13   -0.19987      0.99962     2.19314    0.00711     3.19987
      C   14   -0.28311      0.99967     2.27837    0.00507     3.28311
      H   15    0.09897      0.00000     0.39987    0.00116     0.40103
      H   16    0.09164      0.00000     0.40685    0.00150     0.40836
      H   17    0.09218      0.00000     0.40681    0.00102     0.40782
      H   18    0.10300      0.00000     0.39498    0.00202     0.39700
      H   19    0.09395      0.00000     0.40464    0.00141     0.40605
      H   20    0.11959      0.00000     0.37907    0.00134     0.38041
      H   21    0.11143      0.00000     0.38747    0.00110     0.38857
      H   22    0.23153      0.00000     0.26387    0.00460     0.26847
      H   23    0.09362      0.00000     0.40455    0.00184     0.40638
      H   24    0.09446      0.00000     0.40361    0.00193     0.40554
      H   25    0.10314      0.00000     0.39584    0.00102     0.39686
      H   26    0.08504      0.00000     0.41404    0.00092     0.41496
      H   27    0.10153      0.00000     0.39747    0.00099     0.39847
 =======================================================================
   * Total *    0.00000     13.99520    37.81188    0.19292    52.00000

 Normal termination of Gaussian 16 at Thu Dec 10 11:04:03 2020.
