 Gaussian 16, Revision A.03,

 -----------------------------------------------------------
 # opt freq B3LYP/6-31G(d) empiricaldispersion=gd3bj scf=xqc
 -----------------------------------------------------------

 -------------------------------
 CID_139378105_JID_8009_neutraal
 -------------------------------
 Symbolic Z-matrix:
 Charge =  0 Multiplicity = 1

 SCF Done:  E(RB3LYP) =  -1128.45561936     A.U. after   15 cycles
 SCF Done:  E(RB3LYP) =  -1128.46422167     A.U. after   14 cycles
 SCF Done:  E(RB3LYP) =  -1128.46422631     A.U. after   13 cycles
 SCF Done:  E(RB3LYP) =  -1128.46659636     A.U. after   13 cycles
 SCF Done:  E(RB3LYP) =  -1128.46808040     A.U. after   13 cycles
 SCF Done:  E(RB3LYP) =  -1128.46836102     A.U. after   13 cycles
 SCF Done:  E(RB3LYP) =  -1128.46800929     A.U. after   13 cycles
 SCF Done:  E(RB3LYP) =  -1128.46907952     A.U. after   12 cycles
 SCF Done:  E(RB3LYP) =  -1128.46949933     A.U. after   12 cycles
 SCF Done:  E(RB3LYP) =  -1128.46969990     A.U. after   12 cycles
 SCF Done:  E(RB3LYP) =  -1128.47022212     A.U. after    8 cycles
 SCF Done:  E(RB3LYP) =  -1128.47022234     A.U. after    7 cycles
 SCF Done:  E(RB3LYP) =  -1128.47022249     A.U. after    7 cycles
 SCF Done:  E(RB3LYP) =  -1128.47022258     A.U. after    7 cycles
 SCF Done:  E(RB3LYP) =  -1128.47022262     A.U. after    7 cycles
 Optimization completed.
    -- Stationary point found.
 Normal termination of Gaussian 16 at Fri Dec 11 18:50:56 2020.

 --------------------------------------------------------------------
 #N Geom=AllCheck Guess=TCheck SCRF=Check GenChk RB3LYP/6-31G(d) Freq
 --------------------------------------------------------------------

 Structure from the checkpoint file:  "JID_8009.chk"
 -------------------------------
 CID_139378105_JID_8009_neutraal
 -------------------------------
 Charge =  0 Multiplicity = 1

 SCF Done:  E(RB3LYP) =  -1128.47022262     A.U. after    1 cycles

  Exact polarizability: 211.861  -6.164 205.179  23.789  14.585 140.303
 Approx polarizability: 294.669   1.250 328.900  49.590  36.811 231.100

                      1                      2                      3
                      A                      A                      A
 Frequencies --     21.7268                29.1176                48.2917
 Red. masses --      3.8950                 4.4932                 3.3214
 Frc consts  --      0.0011                 0.0022                 0.0046
 IR Inten    --      0.1805                 0.6052                 0.4370

                      4                      5                      6
                      A                      A                      A
 Frequencies --     69.7687                79.6692               106.4664
 Red. masses --      2.9811                 3.6084                 2.4228
 Frc consts  --      0.0085                 0.0135                 0.0162
 IR Inten    --      0.5955                 0.5862                 1.3738

                      7                      8                      9
                      A                      A                      A
 Frequencies --    109.7168               117.8966               134.7320
 Red. masses --      1.4037                 1.3251                 2.0494
 Frc consts  --      0.0100                 0.0109                 0.0219
 IR Inten    --      1.5761                 0.5159                 0.4307

                     10                     11                     12
                      A                      A                      A
 Frequencies --    160.6721               167.0496               188.3661
 Red. masses --      3.4359                 2.3591                 2.3992
 Frc consts  --      0.0523                 0.0388                 0.0502
 IR Inten    --      1.8127                 0.4921                 0.4948

                     13                     14                     15
                      A                      A                      A
 Frequencies --    207.6937               245.8272               264.2883
 Red. masses --      2.3029                 2.6285                 2.4530
 Frc consts  --      0.0585                 0.0936                 0.1009
 IR Inten    --      1.4771                 6.7538                13.3820

                     16                     17                     18
                      A                      A                      A
 Frequencies --    267.8442               277.4314               321.8518
 Red. masses --      3.1878                 4.0927                 2.0586
 Frc consts  --      0.1347                 0.1856                 0.1256
 IR Inten    --      2.8774                 5.8606                 1.0940

                     19                     20                     21
                      A                      A                      A
 Frequencies --    332.9544               351.4707               361.6404
 Red. masses --      1.7085                 3.1297                 1.2919
 Frc consts  --      0.1116                 0.2278                 0.0995
 IR Inten    --     28.8151                 5.0538                25.9868

                     22                     23                     24
                      A                      A                      A
 Frequencies --    372.6710               388.3171               403.5197
 Red. masses --      2.6972                 4.1945                 3.9651
 Frc consts  --      0.2207                 0.3727                 0.3804
 IR Inten    --      2.0971                 3.5332                 7.3458

                     25                     26                     27
                      A                      A                      A
 Frequencies --    422.0676               434.5664               472.2648
 Red. masses --      3.0612                 5.1893                 3.4194
 Frc consts  --      0.3213                 0.5774                 0.4493
 IR Inten    --      1.1199                 1.7315                 2.0308

                     28                     29                     30
                      A                      A                      A
 Frequencies --    475.7348               532.1474               560.3375
 Red. masses --      3.7404                 3.9081                 5.4542
 Frc consts  --      0.4988                 0.6520                 1.0090
 IR Inten    --      1.5404                 6.5180                 7.1479

                     31                     32                     33
                      A                      A                      A
 Frequencies --    591.5300               630.7027               642.8099
 Red. masses --      3.8027                 5.7885                 5.1943
 Frc consts  --      0.7840                 1.3566                 1.2646
 IR Inten    --     23.5722                 2.4794                 3.3389

                     34                     35                     36
                      A                      A                      A
 Frequencies --    660.2182               682.2824               707.1033
 Red. masses --      4.7330                 6.1521                 1.8388
 Frc consts  --      1.2155                 1.6873                 0.5417
 IR Inten    --     20.5607                11.0188                30.8934

                     37                     38                     39
                      A                      A                      A
 Frequencies --    745.1492               785.5536               801.3591
 Red. masses --      1.3233                 1.9365                 2.8420
 Frc consts  --      0.4329                 0.7041                 1.0753
 IR Inten    --    164.7344                30.3844                22.3047

                     40                     41                     42
                      A                      A                      A
 Frequencies --    847.7741               859.1089               887.5824
 Red. masses --      1.3397                 1.2458                 2.5529
 Frc consts  --      0.5673                 0.5417                 1.1849
 IR Inten    --     67.4418                 0.9993                 8.6601

                     43                     44                     45
                      A                      A                      A
 Frequencies --    926.5425               940.6604               973.5298
 Red. masses --      4.8102                 1.4578                 1.6460
 Frc consts  --      2.4330                 0.7600                 0.9191
 IR Inten    --     80.3323                 2.9867                17.4072

                     46                     47                     48
                      A                      A                      A
 Frequencies --    974.6762               995.5550              1022.4270
 Red. masses --      1.3476                 1.2520                 6.1327
 Frc consts  --      0.7543                 0.7311                 3.7772
 IR Inten    --      1.4109                 0.4619                 4.7204

                     49                     50                     51
                      A                      A                      A
 Frequencies --   1027.8634              1061.7573              1074.5578
 Red. masses --      5.2140                 2.1055                 1.4438
 Frc consts  --      3.2456                 1.3984                 0.9822
 IR Inten    --     67.6085                 4.2495                 0.3727

                     52                     53                     54
                      A                      A                      A
 Frequencies --   1079.7399              1105.3423              1116.7670
 Red. masses --      3.7074                 2.0273                 1.5401
 Frc consts  --      2.5466                 1.4594                 1.1317
 IR Inten    --     46.4451                11.5916                 3.7317

                     55                     56                     57
                      A                      A                      A
 Frequencies --   1125.0147              1129.4714              1150.0843
 Red. masses --      1.9643                 1.4987                 3.3300
 Frc consts  --      1.4648                 1.1265                 2.5951
 IR Inten    --     47.7329                 4.3934               111.9904

                     58                     59                     60
                      A                      A                      A
 Frequencies --   1161.2707              1164.6597              1186.6606
 Red. masses --      1.4792                 2.4694                 1.3233
 Frc consts  --      1.1753                 1.9735                 1.0979
 IR Inten    --     14.5899                32.8106                 2.8208

                     61                     62                     63
                      A                      A                      A
 Frequencies --   1193.0749              1199.4579              1213.3966
 Red. masses --      1.0969                 1.5477                 1.1414
 Frc consts  --      0.9199                 1.3119                 0.9901
 IR Inten    --      0.4793                10.6080                13.5071

                     64                     65                     66
                      A                      A                      A
 Frequencies --   1234.5096              1262.7256              1285.0180
 Red. masses --      1.5823                 4.0664                 2.4737
 Frc consts  --      1.4208                 3.8201                 2.4067
 IR Inten    --     14.8426                58.6366                34.0637

                     67                     68                     69
                      A                      A                      A
 Frequencies --   1348.3207              1368.0204              1416.1975
 Red. masses --      2.0267                 2.5934                 1.4817
 Frc consts  --      2.1708                 2.8596                 1.7509
 IR Inten    --      3.8827                 2.2561                 4.5594

                     70                     71                     72
                      A                      A                      A
 Frequencies --   1428.1192              1447.8780              1455.5479
 Red. masses --      1.2641                 1.2850                 1.1965
 Frc consts  --      1.5191                 1.5872                 1.4935
 IR Inten    --      8.1928                 0.7329                20.8412

                     73                     74                     75
                      A                      A                      A
 Frequencies --   1489.6916              1494.1440              1514.3304
 Red. masses --      1.1397                 2.2411                 1.0525
 Frc consts  --      1.4902                 2.9478                 1.4221
 IR Inten    --      0.5768                15.3426                 5.7095

                     76                     77                     78
                      A                      A                      A
 Frequencies --   1514.9671              1517.7680              1517.8889
 Red. masses --      1.0466                 1.0527                 1.0532
 Frc consts  --      1.4153                 1.4287                 1.4297
 IR Inten    --      3.1255                 7.0958                 4.1929

                     79                     80                     81
                      A                      A                      A
 Frequencies --   1524.6747              1527.4207              1539.1134
 Red. masses --      1.0563                 1.0532                 1.0690
 Frc consts  --      1.4468                 1.4477                 1.4920
 IR Inten    --      1.2417                 5.4403                 2.9444

                     82                     83                     84
                      A                      A                      A
 Frequencies --   1540.7018              1544.3056              1639.0751
 Red. masses --      2.1076                 1.0540                 5.5008
 Frc consts  --      2.9477                 1.4810                 8.7071
 IR Inten    --      4.0971                 0.7935                 4.6980

                     85                     86                     87
                      A                      A                      A
 Frequencies --   1660.7627              1683.1004              1695.4266
 Red. masses --      5.5854                 1.1932                 9.2211
 Frc consts  --      9.0765                 1.9915                15.6167
 IR Inten    --      5.3805                47.6824               120.6813

                     88                     89                     90
                      A                      A                      A
 Frequencies --   1736.8310              3024.7742              3026.7558
 Red. masses --      4.5961                 1.0468                 1.0328
 Frc consts  --      8.1687                 5.6430                 5.5749
 IR Inten    --     35.0639                53.8534                60.5038

                     91                     92                     93
                      A                      A                      A
 Frequencies --   3028.2366              3058.7732              3065.6347
 Red. masses --      1.0344                 1.0473                 1.0966
 Frc consts  --      5.5890                 5.7732                 6.0720
 IR Inten    --     38.3314                35.0782                29.3041

                     94                     95                     96
                      A                      A                      A
 Frequencies --   3087.7423              3088.5120              3107.4920
 Red. masses --      1.1020                 1.1047                 1.1027
 Frc consts  --      6.1901                 6.2087                 6.2736
 IR Inten    --     18.2487                38.4599                29.3151

                     97                     98                     99
                      A                      A                      A
 Frequencies --   3118.1672              3141.6179              3146.9773
 Red. masses --      1.0866                 1.0880                 1.1001
 Frc consts  --      6.2248                 6.3270                 6.4188
 IR Inten    --     38.5030                 9.9681                17.1553

                    100                    101                    102
                      A                      A                      A
 Frequencies --   3180.8921              3181.8461              3189.4067
 Red. masses --      1.1045                 1.0853                 1.0930
 Frc consts  --      6.5842                 6.4737                 6.5509
 IR Inten    --      3.1021                 0.1388                 8.1008

                    103                    104                    105
                      A                      A                      A
 Frequencies --   3193.5088              3205.7771              3224.7519
 Red. masses --      1.0900                 1.0954                 1.0927
 Frc consts  --      6.5495                 6.6328                 6.6951
 IR Inten    --     21.2324                36.4261                 7.4547

                    106                    107                    108
                      A                      A                      A
 Frequencies --   3248.8953              3514.5508              3609.2119
 Red. masses --      1.0917                 1.0479                 1.0960
 Frc consts  --      6.7894                 7.6262                 8.4115
 IR Inten    --      1.8304                 0.8245                 1.5153

 - Thermochemistry -
 -------------------
 Temperature   298.150 Kelvin.  Pressure   1.00000 Atm.
 Atom     1 has atomic number  6 and mass  12.00000

 Molecular mass:   264.12964 amu.
 Principal axes and moments of inertia in atomic units:
                           1         2         3
     Eigenvalues --  3226.393336110.683387710.27508
           X            0.99995   0.00928   0.00473
           Y           -0.00935   0.99986   0.01376
           Z           -0.00460  -0.01381   0.99989
 This molecule is an asymmetric top.
 Rotational symmetry number  1.
 Warning -- assumption of classical behavior for rotation
           may cause significant error
 Rotational temperatures (Kelvin)      0.02685     0.01417     0.01123
 Rotational constants (GHZ):           0.55937     0.29534     0.23407
 Zero-point vibrational energy     839897.2 (Joules/Mol)
                                  200.74025 (Kcal/Mol)
 Warning -- explicit consideration of  31 degrees of freedom as
           vibrations may cause significant error
 Vibrational temperatures:     31.26    41.89    69.48   100.38   114.63
          (Kelvin)            153.18   157.86   169.63   193.85   231.17
                              240.35   271.02   298.82   353.69   380.25
                              385.37   399.16   463.07   479.05   505.69
                              520.32   536.19   558.70   580.57   607.26
                              625.24   679.48   684.48   765.64   806.20
                              851.08   907.44   924.86   949.91   981.65
                             1017.36  1072.10  1130.24  1152.98  1219.76
                             1236.07  1277.03  1333.09  1353.40  1400.69
                             1402.34  1432.38  1471.04  1478.87  1527.63
                             1546.05  1553.50  1590.34  1606.78  1618.65
                             1625.06  1654.71  1670.81  1675.69  1707.34
                             1716.57  1725.75  1745.81  1776.18  1816.78
                             1848.85  1939.93  1968.28  2037.59  2054.74
                             2083.17  2094.21  2143.33  2149.74  2178.78
                             2179.70  2183.73  2183.90  2193.67  2197.62
                             2214.44  2216.73  2221.91  2358.26  2389.47
                             2421.61  2439.34  2498.91  4351.98  4354.83
                             4356.96  4400.89  4410.76  4442.57  4443.68
                             4470.99  4486.35  4520.09  4527.80  4576.59
                             4577.97  4588.84  4594.75  4612.40  4639.70
                             4674.44  5056.65  5192.85

 Zero-point correction=                           0.319900 (Hartree/Particle)
 Thermal correction to Energy=                    0.339821
 Thermal correction to Enthalpy=                  0.340766
 Thermal correction to Gibbs Free Energy=         0.270856
 Sum of electronic and zero-point Energies=          -1128.150323
 Sum of electronic and thermal Energies=             -1128.130401
 Sum of electronic and thermal Enthalpies=           -1128.129457
 Sum of electronic and thermal Free Energies=        -1128.199366

                     E (Thermal)             CV                S
                      KCal/Mol        Cal/Mol-Kelvin    Cal/Mol-Kelvin
 Total                  213.241             74.232            147.137
 Electronic               0.000              0.000              0.000
 Translational            0.889              2.981             42.613
 Rotational               0.889              2.981             33.385
 Vibrational            211.464             68.271             71.138
 Vibration     1          0.593              1.985              6.470
 Vibration     2          0.593              1.984              5.889
 Vibration     3          0.595              1.978              4.886
 Vibration     4          0.598              1.969              4.160
 Vibration     5          0.600              1.963              3.899
 Vibration     6          0.605              1.944              3.332
 Vibration     7          0.606              1.941              3.274
 Vibration     8          0.608              1.934              3.135
 Vibration     9          0.613              1.919              2.877
 Vibration    10          0.622              1.891              2.542
 Vibration    11          0.624              1.883              2.468
 Vibration    12          0.633              1.856              2.244
 Vibration    13          0.641              1.829              2.064
 Vibration    14          0.660              1.770              1.760
 Vibration    15          0.671              1.738              1.633
 Vibration    16          0.673              1.732              1.610
 Vibration    17          0.678              1.715              1.549
 Vibration    18          0.707              1.632              1.301
 Vibration    19          0.715              1.610              1.246
 Vibration    20          0.728              1.572              1.160
 Vibration    21          0.736              1.551              1.115
 Vibration    22          0.744              1.528              1.069
 Vibration    23          0.756              1.495              1.007
 Vibration    24          0.769              1.463              0.950
 Vibration    25          0.784              1.422              0.885
 Vibration    26          0.795              1.395              0.844
 Vibration    27          0.829              1.312              0.731
 Vibration    28          0.832              1.304              0.722
 Vibration    29          0.887              1.179              0.582
 Vibration    30          0.916              1.117              0.523
 Vibration    31          0.949              1.050              0.464

 Optimization completed.
    -- Stationary point found.
 Normal termination of Gaussian 16 at Fri Dec 11 19:08:30 2020.

 ----------------------------------------------------------------------
 # B3LYP/6-311++G(d,p) empiricaldispersion=gd3bj scf=xqc pop=npa geom=c
 heck
 ----------------------------------------------------------------------

 ---------------------------------------
 CID_139378105_JID_8009_Energie_neutraal
 ---------------------------------------
 Structure from the checkpoint file:  "JID_8009.chk"
 Charge =  0 Multiplicity = 1

 SCF Done:  E(RB3LYP) =  -1128.70238596     A.U. after   16 cycles
 Normal termination of Gaussian 16 at Fri Dec 11 19:16:01 2020.

 ----------------------------------------------------------------------
 # B3LYP/6-311++G(d,p) empiricaldispersion=gd3bj scf=xqc pop=npa geom=c
 heck
 ----------------------------------------------------------------------

 -------------------------------------
 CID_139378105_JID_8009_Energie_kation
 -------------------------------------
 Structure from the checkpoint file:  "JID_8009.chk"
 Charge =  1 Multiplicity = 2

 SCF Done:  E(UB3LYP) =  -1128.42587388     A.U. after   31 cycles
 Normal termination of Gaussian 16 at Fri Dec 11 19:36:51 2020.
 Gaussian 16:  ES64L-G16RevA.03 25-Dec-2016

 ----------------------------------------------------------------------
 # B3LYP/6-311++G(d,p) empiricaldispersion=gd3bj scf=xqc pop=npa geom=c
 heck
 ----------------------------------------------------------------------

 ------------------------------------
 CID_139378105_JID_8009_Energie_anion
 ------------------------------------
 Structure from the checkpoint file:  "JID_8009.chk"
 Charge = -1 Multiplicity = 2

                         Standard orientation:
 ---------------------------------------------------------------------
 Center     Atomic      Atomic             Coordinates (Angstroms)
 Number     Number       Type             X           Y           Z
 ---------------------------------------------------------------------
      1          6           0       -3.198809   -1.382065   -1.727992
      2          6           0       -3.590921   -0.561556   -0.532894
      3          6           0       -2.808702    0.016140    0.398827
      4          6           0       -1.284714   -0.144294    0.463861
      5          6           0       -0.687327    0.258752    1.817532
      6          8           0       -0.877773   -1.455150    0.098809
      7          6           0       -1.258964   -2.497035    0.985108
      8         16           0       -0.663963    1.003931   -0.878508
      9          6           0        1.070025    1.366217   -0.417026
     10          7           0        1.508224    2.552601   -0.271388
     11          6           0        0.663916    3.724383   -0.350554
     12          6           0        2.018440    0.228264   -0.261055
     13          6           0        3.132705    0.393029    0.578183
     14          6           0        4.051954   -0.638372    0.742320
     15          6           0        3.878126   -1.846308    0.061340
     16          6           0        2.778804   -2.013191   -0.780863
     17          6           0        1.849717   -0.985778   -0.938246
     18          7           0       -3.329851    0.945302    1.326174
     19          1           0       -2.119379   -1.449109   -1.851861
     20          1           0       -3.628793   -0.949863   -2.641312
     21          1           0       -3.595766   -2.404531   -1.649113
     22          1           0       -4.661990   -0.370375   -0.438794
     23          1           0       -1.140319   -0.321216    2.630716
     24          1           0        0.383823    0.050228    1.816006
     25          1           0       -0.845653    1.319853    2.013773
     26          1           0       -0.700770   -2.457980    1.929509
     27          1           0       -2.335932   -2.473608    1.194398
     28          1           0       -1.013001   -3.429073    0.471691
     29          1           0        0.757092    4.171472   -1.348940
     30          1           0       -0.398311    3.519148   -0.165545
     31          1           0        1.031093    4.465369    0.367844
     32          1           0        3.258861    1.341278    1.089146
     33          1           0        4.905085   -0.501568    1.401158
     34          1           0        4.595976   -2.652161    0.188308
     35          1           0        2.640961   -2.947196   -1.318426
     36          1           0        0.989847   -1.121642   -1.580912
     37          1           0       -4.338206    1.033848    1.252785
     38          1           0       -3.073139    0.760994    2.290466
 ---------------------------------------------------------------------

 SCF Done:  E(UB3LYP) =  -1128.70225075     A.U. after   33 cycles
 SCF Done:  E(UB3LYP) =  -1128.70225075     a.u. after    1 cycles

 The electronic state is 2-A.
 Alpha  occ. eigenvalues --  -88.71011 -19.01948 -14.20798 -14.14991 -10.14964
 Alpha  occ. eigenvalues --  -10.11107 -10.09944 -10.08353 -10.06112 -10.05729
 Alpha  occ. eigenvalues --  -10.05533 -10.05251 -10.04838 -10.04520 -10.04392
 Alpha  occ. eigenvalues --  -10.04211 -10.03831 -10.03702  -7.79633  -5.76033
 Alpha  occ. eigenvalues --   -5.75624  -5.75034  -0.93685  -0.80704  -0.78477
 Alpha  occ. eigenvalues --   -0.72434  -0.68492  -0.65903  -0.63392  -0.61789
 Alpha  occ. eigenvalues --   -0.59697  -0.58459  -0.57144  -0.55987  -0.50172
 Alpha  occ. eigenvalues --   -0.48123  -0.47390  -0.43697  -0.41301  -0.40217
 Alpha  occ. eigenvalues --   -0.38568  -0.38181  -0.36209  -0.35369  -0.34308
 Alpha  occ. eigenvalues --   -0.33592  -0.32541  -0.31902  -0.31139  -0.30740
 Alpha  occ. eigenvalues --   -0.30213  -0.29753  -0.29441  -0.28891  -0.28518
 Alpha  occ. eigenvalues --   -0.28191  -0.26597  -0.24976  -0.24547  -0.22979
 Alpha  occ. eigenvalues --   -0.22139  -0.21556  -0.21232  -0.20100  -0.17087
 Alpha  occ. eigenvalues --   -0.15928  -0.12987  -0.12151  -0.11614  -0.10578
 Alpha  occ. eigenvalues --   -0.09885   0.04288
 Alpha virt. eigenvalues --    0.05974   0.07618   0.07813   0.08472   0.09140
 Alpha virt. eigenvalues --    0.09646   0.09981   0.10125   0.10805   0.11069
 Alpha virt. eigenvalues --    0.11463   0.11508   0.12121   0.12582   0.13442

  Beta  occ. eigenvalues --  -88.71004 -19.01952 -14.20764 -14.14491 -10.14885
  Beta  occ. eigenvalues --  -10.11098 -10.09935 -10.08210 -10.06137 -10.05720
  Beta  occ. eigenvalues --  -10.05529 -10.05225 -10.04890 -10.04524 -10.04325
  Beta  occ. eigenvalues --  -10.04021 -10.03765 -10.03583  -7.79626  -5.76008
  Beta  occ. eigenvalues --   -5.75630  -5.75024  -0.93676  -0.80631  -0.77734
  Beta  occ. eigenvalues --   -0.72207  -0.68361  -0.65845  -0.63068  -0.61618
  Beta  occ. eigenvalues --   -0.59645  -0.58297  -0.57090  -0.55855  -0.50022
  Beta  occ. eigenvalues --   -0.47766  -0.47313  -0.43629  -0.41087  -0.40171
  Beta  occ. eigenvalues --   -0.38461  -0.38044  -0.36024  -0.35306  -0.34286
  Beta  occ. eigenvalues --   -0.33365  -0.32422  -0.31683  -0.31054  -0.30544
  Beta  occ. eigenvalues --   -0.29919  -0.29661  -0.29408  -0.28858  -0.28386
  Beta  occ. eigenvalues --   -0.28131  -0.26492  -0.24660  -0.24364  -0.22762
  Beta  occ. eigenvalues --   -0.22048  -0.21468  -0.21128  -0.19546  -0.16295
  Beta  occ. eigenvalues --   -0.15812  -0.12546  -0.11702  -0.11212  -0.09648
  Beta  occ. eigenvalues --   -0.09545
  Beta virt. eigenvalues --    0.06509   0.07745   0.07910   0.08498   0.08943
  Beta virt. eigenvalues --    0.09142   0.09706   0.10102   0.10322   0.10785
  Beta virt. eigenvalues --    0.11143   0.11463   0.11616   0.12211   0.12641

 Mulliken charges and spin densities:
               1          2
     1  C   -0.439835  -0.278527
     2  C    0.229698  -0.540489
     3  C   -0.233286   0.271711
     4  C    0.672359  -0.168200
     5  C   -0.406729  -0.385379
     6  O    0.145123  -0.011527
     7  C   -0.166496  -0.202760
     8  S   -0.435816   0.325694
     9  C   -0.560396   0.038981
    10  N    0.021610   0.231572
    11  C   -0.373869  -0.014070
    12  C    1.214940  -0.004858
    13  C   -0.243145   0.062941
    14  C   -0.569382  -0.005585
    15  C   -0.434491   0.146458
    16  C   -0.265971  -0.081442
    17  C   -0.450288   0.190479
    18  N   -0.410578   0.079109
    19  H    0.098277   0.060848
    20  H    0.103052   0.023014
    21  H    0.078649   0.039640
    22  H   -0.236706   0.368522
    23  H   -0.013092   0.150165
    24  H    0.204570  -0.025525
    25  H    0.204499  -0.025979
    26  H    0.103416   0.025548
    27  H    0.090860   0.066604
    28  H    0.103351   0.040937
    29  H    0.121546   0.019148
    30  H    0.125274   0.025520
    31  H    0.111830   0.006792
    32  H    0.192170  -0.008861
    33  H    0.127075   0.003563
    34  H    0.106573  -0.009491
    35  H    0.122714   0.007598
    36  H    0.153652  -0.003735
    37  H   -0.108822   0.348868
    38  H    0.017664   0.232717
 Sum of Mulliken charges =  -1.00000   1.00000

 Dipole moment (field-independent basis, Debye):
    X=             -0.5085    Y=             -2.9866    Z=              1.2824  Tot=              3.2898
 Quadrupole moment (field-independent basis, Debye-Ang):
   XX=           -177.1658   YY=           -143.4816   ZZ=           -133.2131
   XY=              2.1829   XZ=              5.5618   YZ=              0.4637

 Summary of Natural Population Analysis:

                                       Natural Population
                Natural  -----------------------------------------------
    Atom  No    Charge         Core      Valence    Rydberg      Total
 -----------------------------------------------------------------------
      C    1   -0.30016      0.99965     2.29538    0.00513     3.30016
      C    2   -0.12494      0.99947     2.11517    0.01030     3.12494
      C    3    0.06326      0.99938     1.92192    0.01544     2.93674
      C    4    0.09162      0.99947     1.88835    0.02056     2.90838
      C    5   -0.31494      0.99960     2.30702    0.00832     3.31494
      O    6   -0.31212      0.99986     3.29784    0.01442     4.31212
      C    7   -0.10177      0.99959     2.09384    0.00834     3.10177
      S    8    0.08818      4.99951     2.89549    0.01682     7.91182
      C    9    0.08166      0.99947     1.90216    0.01671     2.91834
      N   10   -0.16422      0.99959     2.65062    0.01401     3.66422
      C   11   -0.19738      0.99964     2.19064    0.00710     3.19738
      C   12   -0.04438      0.99945     2.03099    0.01395     3.04438
      C   13   -0.06500      0.99952     2.05748    0.00799     3.06500
      C   14   -0.12428      0.99957     2.11584    0.00886     3.12428
      C   15   -0.07500      0.99957     2.06612    0.00931     3.07500
      C   16   -0.11523      0.99957     2.10673    0.00893     3.11523
      C   17   -0.07355      0.99952     2.06551    0.00852     3.07355
      N   18   -0.40258      0.99972     2.89202    0.01084     3.90258
      H   19    0.11671      0.00000     0.38207    0.00122     0.38329
      H   20    0.09610      0.00000     0.40270    0.00120     0.40390
      H   21    0.09352      0.00000     0.40518    0.00129     0.40648
      H   22    0.08683      0.00000     0.41196    0.00120     0.41317
      H   23    0.09437      0.00000     0.40451    0.00112     0.40563
      H   24    0.11872      0.00000     0.38018    0.00109     0.38128
      H   25    0.11286      0.00000     0.38598    0.00116     0.38714
      H   26    0.07985      0.00000     0.41894    0.00120     0.42015
      H   27    0.08404      0.00000     0.41463    0.00133     0.41596
      H   28    0.08972      0.00000     0.40940    0.00088     0.41028
      H   29    0.09309      0.00000     0.40585    0.00106     0.40691
      H   30    0.09312      0.00000     0.40527    0.00160     0.40688
      H   31    0.08732      0.00000     0.41166    0.00102     0.41268
      H   32    0.10444      0.00000     0.39417    0.00139     0.39556
      H   33    0.09173      0.00000     0.40725    0.00101     0.40827
      H   34    0.08853      0.00000     0.41043    0.00104     0.41147
      H   35    0.09129      0.00000     0.40730    0.00140     0.40871
      H   36    0.10744      0.00000     0.39056    0.00201     0.39256
      H   37    0.18115      0.00000     0.31619    0.00266     0.31885
      H   38    0.18002      0.00000     0.31805    0.00193     0.31998
 =======================================================================
   * Total *   -0.00000     21.99217    48.77542    0.23241    71.00000

 Normal termination of Gaussian 16 at Fri Dec 11 19:58:48 2020.
