 Gaussian 16, Revision A.03,

 -----------------------------------------------------------
 # opt freq B3LYP/6-31G(d) empiricaldispersion=gd3bj scf=xqc
 -----------------------------------------------------------

 ------------------------------
 CID_44276286_JID_3631_neutraal
 ------------------------------
 Symbolic Z-matrix:
 Charge =  0 Multiplicity = 1

 SCF Done:  E(RB3LYP) =  -965.113319857     A.U. after   15 cycles
 SCF Done:  E(RB3LYP) =  -965.117419422     A.U. after   14 cycles
 SCF Done:  E(RB3LYP) =  -965.119005710     A.U. after   13 cycles
 SCF Done:  E(RB3LYP) =  -965.119169572     A.U. after   12 cycles
 SCF Done:  E(RB3LYP) =  -965.120173901     A.U. after   12 cycles
 SCF Done:  E(RB3LYP) =  -965.120444789     A.U. after   12 cycles
 SCF Done:  E(RB3LYP) =  -965.120493271     A.U. after   11 cycles
 SCF Done:  E(RB3LYP) =  -965.120517438     A.U. after   11 cycles
 SCF Done:  E(RB3LYP) =  -965.120534535     A.U. after   11 cycles
 SCF Done:  E(RB3LYP) =  -965.120540020     A.U. after   10 cycles
 SCF Done:  E(RB3LYP) =  -965.121069581     A.U. after   10 cycles
 SCF Done:  E(RB3LYP) =  -965.121076952     A.U. after    9 cycles
 SCF Done:  E(RB3LYP) =  -965.121079575     A.U. after    9 cycles
 SCF Done:  E(RB3LYP) =  -965.121080295     A.U. after    8 cycles
 SCF Done:  E(RB3LYP) =  -965.121081267     A.U. after    9 cycles
 SCF Done:  E(RB3LYP) =  -965.121081473     A.U. after    8 cycles
 Optimization completed.
    -- Stationary point found.
 Normal termination of Gaussian 16 at Sun Dec 13 20:04:22 2020.

 --------------------------------------------------------------------
 #N Geom=AllCheck Guess=TCheck SCRF=Check GenChk RB3LYP/6-31G(d) Freq
 --------------------------------------------------------------------

 Structure from the checkpoint file:  "JID_3631.chk"
 ------------------------------
 CID_44276286_JID_3631_neutraal
 ------------------------------
 Charge =  0 Multiplicity = 1

 SCF Done:  E(RB3LYP) =  -965.121081473     A.U. after    1 cycles

  Exact polarizability: 250.129  -0.854 130.979   1.999  -0.970  55.271
 Approx polarizability: 389.618 -11.923 220.099   3.269  -0.860  86.531

 ******    1 imaginary frequencies (negative Signs) ******

                      1                      2                      3
                      A                      A                      A
 Frequencies --    -43.1283                28.1302                59.5347
 Red. masses --      1.0354                 6.2871                 5.3936
 Frc consts  --      0.0011                 0.0029                 0.0113
 IR Inten    --      0.1437                 0.2966                 7.7537

                      4                      5                      6
                      A                      A                      A
 Frequencies --     63.1899               125.1121               162.9167
 Red. masses --      5.8179                 4.4618                 5.0203
 Frc consts  --      0.0137                 0.0411                 0.0785
 IR Inten    --      2.0771                 8.4831                 2.1100

                      7                      8                      9
                      A                      A                      A
 Frequencies --    175.5956               206.2037               245.0064
 Red. masses --      5.3787                 3.2002                 4.7456
 Frc consts  --      0.0977                 0.0802                 0.1678
 IR Inten    --      1.8746                 0.1709                 0.6582

                     10                     11                     12
                      A                      A                      A
 Frequencies --    281.8997               347.1548               374.4593
 Red. masses --      3.5018                 4.2193                 3.2958
 Frc consts  --      0.1640                 0.2996                 0.2723
 IR Inten    --      4.7944                 8.3072                23.5500

                     13                     14                     15
                      A                      A                      A
 Frequencies --    379.6914               402.5607               458.0642
 Red. masses --      2.1494                 2.3188                 4.0776
 Frc consts  --      0.1826                 0.2214                 0.5041
 IR Inten    --      6.3885                 2.7667                 0.3751

                     16                     17                     18
                      A                      A                      A
 Frequencies --    472.5535               511.3475               521.9211
 Red. masses --      1.8670                 4.2678                 3.3993
 Frc consts  --      0.2456                 0.6575                 0.5456
 IR Inten    --    234.9900                20.5961                65.8772

                     19                     20                     21
                      A                      A                      A
 Frequencies --    567.0824               621.0295               635.4105
 Red. masses --      4.4579                 1.5409                 2.9579
 Frc consts  --      0.8446                 0.3501                 0.7036
 IR Inten    --     14.1993               125.0819                12.8962

                     22                     23                     24
                      A                      A                      A
 Frequencies --    667.7306               673.2444               706.1814
 Red. masses --      2.0345                 4.9633                 5.6775
 Frc consts  --      0.5344                 1.3255                 1.6682
 IR Inten    --    150.4841                81.0102                20.0404

                     25                     26                     27
                      A                      A                      A
 Frequencies --    722.5385               742.3217               749.9020
 Red. masses --      1.3019                 4.0226                 1.7517
 Frc consts  --      0.4005                 1.3060                 0.5804
 IR Inten    --     42.4895                73.7909               330.5155

                     28                     29                     30
                      A                      A                      A
 Frequencies --    837.3410               888.1231               956.7908
 Red. masses --      5.0427                 1.2667                 2.8011
 Frc consts  --      2.0831                 0.5886                 1.5108
 IR Inten    --     11.7969                 1.0005                 6.7165

                     31                     32                     33
                      A                      A                      A
 Frequencies --    968.0535               997.4514              1043.3543
 Red. masses --      1.4718                 3.0186                 1.9599
 Frc consts  --      0.8126                 1.7694                 1.2571
 IR Inten    --      6.8404                 4.5000                 8.6298

                     34                     35                     36
                      A                      A                      A
 Frequencies --   1068.8784              1087.7257              1131.7801
 Red. masses --      1.4706                 2.3760                 1.3989
 Frc consts  --      0.9899                 1.6563                 1.0558
 IR Inten    --      1.8845                16.1653                 5.5131

                     37                     38                     39
                      A                      A                      A
 Frequencies --   1156.9413              1206.0029              1255.4920
 Red. masses --      6.7659                 1.8912                 1.9471
 Frc consts  --      5.3358                 1.6206                 1.8083
 IR Inten    --     13.3687                16.1277                12.9373

                     40                     41                     42
                      A                      A                      A
 Frequencies --   1281.1325              1358.3589              1378.9271
 Red. masses --      2.0665                 1.7389                 1.8890
 Frc consts  --      1.9983                 1.8904                 2.1163
 IR Inten    --      7.5397                53.6733                30.6527

                     43                     44                     45
                      A                      A                      A
 Frequencies --   1424.8275              1443.2864              1488.3821
 Red. masses --      2.8668                 1.3235                 4.3801
 Frc consts  --      3.4291                 1.6244                 5.7170
 IR Inten    --      1.8535                 4.9363                50.5195

                     46                     47                     48
                      A                      A                      A
 Frequencies --   1502.2763              1517.1092              1528.0981
 Red. masses --      2.2897                 1.0443                 1.1613
 Frc consts  --      3.0446                 1.4162                 1.5977
 IR Inten    --    114.7098                 6.5162                12.0282

                     49                     50                     51
                      A                      A                      A
 Frequencies --   1588.5646              1609.1644              1632.3456
 Red. masses --      5.5310                 1.4803                 1.8282
 Frc consts  --      8.2236                 2.2585                 2.8701
 IR Inten    --      0.6478                 9.5123               343.6265

                     52                     53                     54
                      A                      A                      A
 Frequencies --   1662.2038              1701.8969              3048.2124
 Red. masses --      2.1315                 3.2957                 1.0374
 Frc consts  --      3.4698                 5.6242                 5.6792
 IR Inten    --     75.3498               548.4599                28.4191

                     55                     56                     57
                      A                      A                      A
 Frequencies --   3101.0688              3123.0464              3130.9728
 Red. masses --      1.1013                 1.0876                 1.0999
 Frc consts  --      6.2398                 6.2500                 6.3526
 IR Inten    --     16.0802                20.9306                17.6230

                     58                     59                     60
                      A                      A                      A
 Frequencies --   3216.5623              3270.0371              3289.9632
 Red. masses --      1.0911                 1.0963                 1.0676
 Frc consts  --      6.6513                 6.9071                 6.8082
 IR Inten    --     16.8928                 0.4237               492.1772

                     61                     62                     63
                      A                      A                      A
 Frequencies --   3535.5023              3540.3479              3647.2760
 Red. masses --      1.0670                 1.0578                 1.0976
 Frc consts  --      7.8578                 7.8117                 8.6026
 IR Inten    --     29.2834                 9.5250                18.7021

 - Thermochemistry -
 -------------------
 Temperature   298.150 Kelvin.  Pressure   1.00000 Atm.
 Atom     1 has atomic number  6 and mass  12.00000

 Molecular mass:   198.05753 amu.
 Principal axes and moments of inertia in atomic units:
                           1         2         3
     Eigenvalues --  1184.205465184.036816329.31015
           X            0.99996  -0.00927   0.00155
           Y            0.00928   0.99994  -0.00563
           Z           -0.00149   0.00565   0.99998
 This molecule is an asymmetric top.
 Rotational symmetry number  1.
 Warning -- assumption of classical behavior for rotation
           may cause significant error
 Rotational temperatures (Kelvin)      0.07314     0.01671     0.01368
 Rotational constants (GHZ):           1.52401     0.34813     0.28514
    1 imaginary frequencies ignored.
 Zero-point vibrational energy     463662.3 (Joules/Mol)
                                  110.81794 (Kcal/Mol)
 Warning -- explicit consideration of  18 degrees of freedom as
           vibrations may cause significant error
 Vibrational temperatures:     40.47    85.66    90.92   180.01   234.40
          (Kelvin)            252.64   296.68   352.51   405.59   499.48
                              538.76   546.29   579.20   659.05   679.90
                              735.71   750.93   815.91   893.52   914.21
                              960.72   968.65  1016.04  1039.57  1068.04
                             1078.94  1204.75  1277.81  1376.61  1392.81
                             1435.11  1501.15  1537.88  1564.99  1628.38
                             1664.58  1735.17  1806.37  1843.26  1954.38
                             1983.97  2050.01  2076.57  2141.45  2161.44
                             2182.78  2198.59  2285.59  2315.23  2348.58
                             2391.54  2448.65  4385.70  4461.75  4493.37
                             4504.77  4627.92  4704.85  4733.52  5086.80
                             5093.77  5247.62

 Zero-point correction=                           0.176600 (Hartree/Particle)
 Thermal correction to Energy=                    0.189199
 Thermal correction to Enthalpy=                  0.190143
 Thermal correction to Gibbs Free Energy=         0.136395
 Sum of electronic and zero-point Energies=           -964.944482
 Sum of electronic and thermal Energies=              -964.931882
 Sum of electronic and thermal Enthalpies=            -964.930938
 Sum of electronic and thermal Free Energies=         -964.984686

                     E (Thermal)             CV                S
                      KCal/Mol        Cal/Mol-Kelvin    Cal/Mol-Kelvin
 Total                  118.724             47.189            113.122
 Electronic               0.000              0.000              0.000
 Translational            0.889              2.981             41.755
 Rotational               0.889              2.981             32.030
 Vibrational            116.947             41.227             39.337
 Vibration     1          0.593              1.984              5.957
 Vibration     2          0.597              1.974              4.473
 Vibration     3          0.597              1.972              4.355
 Vibration     4          0.610              1.928              3.020
 Vibration     5          0.623              1.888              2.516
 Vibration     6          0.628              1.872              2.375
 Vibration     7          0.641              1.831              2.077
 Vibration     8          0.660              1.771              1.766
 Vibration     9          0.681              1.707              1.522
 Vibration    10          0.725              1.581              1.179
 Vibration    11          0.746              1.524              1.061
 Vibration    12          0.750              1.513              1.040
 Vibration    13          0.768              1.465              0.953
 Vibration    14          0.816              1.343              0.772
 Vibration    15          0.829              1.311              0.730
 Vibration    16          0.866              1.225              0.630
 Vibration    17          0.877              1.201              0.606
 Vibration    18          0.923              1.102              0.510

                           ! Non-Optimized Parameters !
 Normal termination of Gaussian 16 at Sun Dec 13 20:08:49 2020.

 ----------------------------------------------------------------------
 # B3LYP/6-311++G(d,p) empiricaldispersion=gd3bj scf=xqc pop=npa geom=c
 heck
 ----------------------------------------------------------------------

 --------------------------------------
 CID_44276286_JID_3631_Energie_neutraal
 --------------------------------------
 Structure from the checkpoint file:  "JID_3631.chk"
 Charge =  0 Multiplicity = 1

 SCF Done:  E(RB3LYP) =  -965.324091904     A.U. after   16 cycles
 Normal termination of Gaussian 16 at Sun Dec 13 20:11:00 2020.

 ----------------------------------------------------------------------
 # B3LYP/6-311++G(d,p) empiricaldispersion=gd3bj scf=xqc pop=npa geom=c
 heck
 ----------------------------------------------------------------------

 ------------------------------------
 CID_44276286_JID_3631_Energie_kation
 ------------------------------------
 Structure from the checkpoint file:  "JID_3631.chk"
 Charge =  1 Multiplicity = 2

 SCF Done:  E(UB3LYP) =  -965.055328792     A.U. after   24 cycles
 Normal termination of Gaussian 16 at Sun Dec 13 20:15:46 2020.
 Gaussian 16:  ES64L-G16RevA.03 25-Dec-2016

 ----------------------------------------------------------------------
 # B3LYP/6-311++G(d,p) empiricaldispersion=gd3bj scf=xqc pop=npa geom=c
 heck
 ----------------------------------------------------------------------

 -----------------------------------
 CID_44276286_JID_3631_Energie_anion
 -----------------------------------
 Structure from the checkpoint file:  "JID_3631.chk"
 Charge = -1 Multiplicity = 2

                         Standard orientation:
 ---------------------------------------------------------------------
 Center     Atomic      Atomic             Coordinates (Angstroms)
 Number     Number       Type             X           Y           Z
 ---------------------------------------------------------------------
      1          6           0       -2.933675    2.341992   -0.073157
      2          6           0       -2.702931    0.854970   -0.013607
      3          6           0       -1.453267    0.254489   -0.013802
      4         16           0       -1.578395   -1.490938    0.067382
      5          6           0       -3.307298   -1.400230    0.102523
      6          6           0       -3.754031   -0.107257    0.053557
      7          6           0       -0.176151    0.913485   -0.068293
      8          7           0        0.938293    0.264484   -0.041821
      9          7           0        2.067623    1.063161   -0.113735
     10          6           0        3.189376    0.409992    0.033430
     11          7           0        4.342493    1.147241    0.271572
     12          7           0        3.447402   -0.941746   -0.006456
     13          8           0        2.431328   -1.866872   -0.297016
     14          1           0       -4.004380    2.564616   -0.095172
     15          1           0       -2.506302    2.854470    0.796964
     16          1           0       -2.483534    2.787824   -0.967741
     17          1           0       -3.895951   -2.306047    0.155168
     18          1           0       -4.804546    0.163577    0.063723
     19          1           0       -0.161194    2.004380   -0.129354
     20          1           0        5.132322    0.888425   -0.309671
     21          1           0        4.150387    2.142144    0.253363
     22          1           0        4.036305   -1.286224    0.745770
     23          1           0        1.597782   -1.359812   -0.105859
 ---------------------------------------------------------------------

 SCF Done:  E(UB3LYP) =  -965.336554645     A.U. after   25 cycles

 The electronic state is 2-A.
 Alpha  occ. eigenvalues --  -88.71290 -19.01092 -14.24950 -14.20901 -14.17657
 Alpha  occ. eigenvalues --  -14.16099 -10.12847 -10.04322 -10.03706 -10.03696
 Alpha  occ. eigenvalues --  -10.03502 -10.02760 -10.02320  -7.79948  -5.76247
 Alpha  occ. eigenvalues --   -5.75887  -5.75552  -0.94894  -0.85135  -0.80428
 Alpha  occ. eigenvalues --   -0.72994  -0.70575  -0.66710  -0.62554  -0.58023
 Alpha  occ. eigenvalues --   -0.53844  -0.49396  -0.47349  -0.42963  -0.41083
 Alpha  occ. eigenvalues --   -0.39133  -0.38628  -0.36054  -0.34823  -0.33392
 Alpha  occ. eigenvalues --   -0.29751  -0.29380  -0.28839  -0.26670  -0.26003
 Alpha  occ. eigenvalues --   -0.23913  -0.23503  -0.22525  -0.21522  -0.20888
 Alpha  occ. eigenvalues --   -0.20235  -0.18735  -0.13466  -0.11438  -0.10334
 Alpha  occ. eigenvalues --   -0.09103  -0.06041   0.04362
 Alpha virt. eigenvalues --    0.07432   0.08777   0.09753   0.10276   0.11087
 Alpha virt. eigenvalues --    0.11824   0.12668   0.13461   0.14016   0.15092
 Alpha virt. eigenvalues --    0.15653   0.16315   0.16380   0.16801   0.17381

  Beta  occ. eigenvalues --  -88.71236 -19.01080 -14.24918 -14.20877 -14.17782
  Beta  occ. eigenvalues --  -14.15630 -10.12614 -10.04345 -10.03666 -10.03333
  Beta  occ. eigenvalues --  -10.03258 -10.02868 -10.02044  -7.79900  -5.76223
  Beta  occ. eigenvalues --   -5.75864  -5.75373  -0.94832  -0.84868  -0.80054
  Beta  occ. eigenvalues --   -0.72677  -0.70468  -0.66393  -0.62212  -0.57706
  Beta  occ. eigenvalues --   -0.53596  -0.49107  -0.46877  -0.42634  -0.40930
  Beta  occ. eigenvalues --   -0.38987  -0.38487  -0.35735  -0.34532  -0.33237
  Beta  occ. eigenvalues --   -0.29369  -0.29049  -0.28733  -0.26242  -0.25792
  Beta  occ. eigenvalues --   -0.23714  -0.22547  -0.22386  -0.21105  -0.20661
  Beta  occ. eigenvalues --   -0.19295  -0.18550  -0.12811  -0.10736  -0.09362
  Beta  occ. eigenvalues --   -0.08800  -0.04523
  Beta virt. eigenvalues --    0.07437   0.08732   0.09705   0.09811   0.10523
  Beta virt. eigenvalues --    0.11135   0.11873   0.12890   0.13437   0.14011
  Beta virt. eigenvalues --    0.15402   0.16075   0.16319   0.16385   0.16881

 Mulliken charges and spin densities:
               1          2
     1  C   -0.992704  -0.036347
     2  C    0.211655   0.168304
     3  C    0.705414   0.083242
     4  S   -0.628756   0.070791
     5  C   -0.174846   0.258851
     6  C   -0.159567  -0.068821
     7  C   -0.464418   0.175420
     8  N   -0.271143   0.206959
     9  N   -0.119863  -0.070406
    10  C    0.101235   0.101862
    11  N   -0.351207   0.002685
    12  N   -0.428493   0.014834
    13  O   -0.170980   0.001660
    14  H    0.120203  -0.000310
    15  H    0.110170   0.032581
    16  H    0.111265   0.029447
    17  H    0.184117  -0.018392
    18  H    0.081854   0.005471
    19  H    0.124663  -0.019710
    20  H    0.177401   0.046551
    21  H    0.235869   0.003648
    22  H    0.237442   0.019232
    23  H    0.360688  -0.007553
 Sum of Mulliken charges =  -1.00000   1.00000

 Dipole moment (field-independent basis, Debye):
    X=              1.3404    Y=              1.5590    Z=              0.6468  Tot=              2.1554
 Quadrupole moment (field-independent basis, Debye-Ang):
   XX=           -111.7984   YY=            -99.4408   ZZ=            -95.7704
   XY=              1.9764   XZ=              1.4781   YZ=             -2.6931

 Summary of Natural Population Analysis:

                                       Natural Population
                Natural  -----------------------------------------------
    Atom  No    Charge         Core      Valence    Rydberg      Total
 -----------------------------------------------------------------------
      C    1   -0.29194      0.99964     2.28780    0.00450     3.29194
      C    2    0.01102      0.99945     1.98087    0.00866     2.98898
      C    3   -0.11785      0.99941     2.10611    0.01233     3.11785
      S    4    0.21008      4.99944     2.76725    0.02323     7.78992
      C    5   -0.12707      0.99956     2.11580    0.01172     3.12707
      C    6   -0.16412      0.99950     2.15474    0.00988     3.16412
      C    7    0.07895      0.99957     1.90543    0.01605     2.92105
      N    8   -0.13353      0.99962     2.61581    0.01811     3.63353
      N    9   -0.24058      0.99965     2.72502    0.01590     3.74058
      C   10    0.31007      0.99967     1.67416    0.01610     2.68993
      N   11   -0.41272      0.99972     2.90301    0.00999     3.91272
      N   12   -0.17475      0.99962     2.65818    0.01695     3.67475
      O   13   -0.30231      0.99990     3.29271    0.00970     4.30231
      H   14    0.09346      0.00000     0.40565    0.00089     0.40654
      H   15    0.10142      0.00000     0.39751    0.00107     0.39858
      H   16    0.10170      0.00000     0.39725    0.00105     0.39830
      H   17    0.09375      0.00000     0.40523    0.00102     0.40625
      H   18    0.09362      0.00000     0.40528    0.00109     0.40638
      H   19    0.07730      0.00000     0.41986    0.00284     0.42270
      H   20    0.18002      0.00000     0.31682    0.00316     0.31998
      H   21    0.18965      0.00000     0.30799    0.00236     0.31035
      H   22    0.17831      0.00000     0.31930    0.00239     0.32169
      H   23    0.24550      0.00000     0.24874    0.00575     0.25450
 =======================================================================
   * Total *   -0.00000     16.99475    34.81052    0.19473    52.00000

 Normal termination of Gaussian 16 at Sun Dec 13 20:20:40 2020.
