 Gaussian 16, Revision A.03,

 -----------------------------------------------------------
 # opt freq B3LYP/6-31G(d) empiricaldispersion=gd3bj scf=xqc
 -----------------------------------------------------------

 ----------------------------
 CID_15174574_JID_20_neutraal
 ----------------------------
 Symbolic Z-matrix:
 Charge =  0 Multiplicity = 1

 SCF Done:  E(RB3LYP) =  -442.628188994     A.U. after   15 cycles
 SCF Done:  E(RB3LYP) =  -442.650544054     A.U. after   13 cycles
 SCF Done:  E(RB3LYP) =  -442.651218483     A.U. after   11 cycles
 SCF Done:  E(RB3LYP) =  -442.651378458     A.U. after   11 cycles
 SCF Done:  E(RB3LYP) =  -442.651512648     A.U. after   11 cycles
 SCF Done:  E(RB3LYP) =  -442.651435911     A.U. after   14 cycles
 SCF Done:  E(RB3LYP) =  -442.651871127     A.U. after   12 cycles
 SCF Done:  E(RB3LYP) =  -442.651956626     A.U. after   12 cycles
 SCF Done:  E(RB3LYP) =  -442.651956171     A.U. after   12 cycles
 SCF Done:  E(RB3LYP) =  -442.652013576     A.U. after   11 cycles
 SCF Done:  E(RB3LYP) =  -442.652019623     A.U. after    8 cycles
 SCF Done:  E(RB3LYP) =  -442.652019716     A.U. after    7 cycles
 SCF Done:  E(RB3LYP) =  -442.652019820     A.U. after    7 cycles
 SCF Done:  E(RB3LYP) =  -442.652019855     A.U. after    7 cycles
 SCF Done:  E(RB3LYP) =  -442.652019874     A.U. after    6 cycles
 SCF Done:  E(RB3LYP) =  -442.652019882     A.U. after    6 cycles
 Optimization completed.
    -- Stationary point found.
 Normal termination of Gaussian 16 at Tue Dec  8 10:18:12 2020.

 --------------------------------------------------------------------
 #N Geom=AllCheck Guess=TCheck SCRF=Check GenChk RB3LYP/6-31G(d) Freq
 --------------------------------------------------------------------

 Structure from the checkpoint file:  "JID_20.chk"
 ----------------------------
 CID_15174574_JID_20_neutraal
 ----------------------------
 Charge =  0 Multiplicity = 1

 SCF Done:  E(RB3LYP) =  -442.652019882     A.U. after    1 cycles

  Exact polarizability:  97.580  -3.161  88.125   8.221   5.623  80.955
 Approx polarizability: 130.218  -1.451 129.564  19.729  12.506 125.137

                      1                      2                      3
                      A                      A                      A
 Frequencies --     39.6428                72.2847               114.6368
 Red. masses --      3.4677                 4.1536                 1.0662
 Frc consts  --      0.0032                 0.0128                 0.0083
 IR Inten    --      1.1616                 3.7466                 0.3098

                      4                      5                      6
                      A                      A                      A
 Frequencies --    127.1013               164.9905               189.1415
 Red. masses --      4.3398                 1.7072                 1.4296
 Frc consts  --      0.0413                 0.0274                 0.0301
 IR Inten    --      4.1599                 1.7189                 0.7204

                      7                      8                      9
                      A                      A                      A
 Frequencies --    229.0476               257.0539               303.0432
 Red. masses --      3.1392                 1.0587                 2.4577
 Frc consts  --      0.0970                 0.0412                 0.1330
 IR Inten    --      4.1504                 1.4310                19.8348

                     10                     11                     12
                      A                      A                      A
 Frequencies --    308.2446               313.0548               360.8033
 Red. masses --      2.6051                 1.2647                 2.8472
 Frc consts  --      0.1458                 0.0730                 0.2184
 IR Inten    --     13.7959                79.8457                 1.9880

                     13                     14                     15
                      A                      A                      A
 Frequencies --    377.9877               399.4477               405.2091
 Red. masses --      4.2980                 2.6227                 4.2785
 Frc consts  --      0.3618                 0.2466                 0.4139
 IR Inten    --      2.3080                 3.7174                12.6456

                     16                     17                     18
                      A                      A                      A
 Frequencies --    470.6264               504.4405               545.7333
 Red. masses --      3.9660                 3.5421                 2.5968
 Frc consts  --      0.5176                 0.5310                 0.4557
 IR Inten    --      2.8797                 0.8328                 3.8420

                     19                     20                     21
                      A                      A                      A
 Frequencies --    627.2959               717.6143               858.1777
 Red. masses --      3.4234                 2.9188                 1.9749
 Frc consts  --      0.7937                 0.8856                 0.8569
 IR Inten    --     14.2325                 2.8434                 9.8372

                     22                     23                     24
                      A                      A                      A
 Frequencies --    871.2731               924.0708               944.4517
 Red. masses --      1.5251                 2.5444                 1.9119
 Frc consts  --      0.6821                 1.2801                 1.0048
 IR Inten    --     14.6153                 6.8365                 0.5057

                     25                     26                     27
                      A                      A                      A
 Frequencies --    981.2800               985.4818              1031.2357
 Red. masses --      2.7174                 1.6350                 1.7771
 Frc consts  --      1.5417                 0.9356                 1.1135
 IR Inten    --      2.5478                 5.8833                36.6172

                     28                     29                     30
                      A                      A                      A
 Frequencies --   1076.2730              1081.7431              1093.5926
 Red. masses --      1.4885                 1.4883                 1.6314
 Frc consts  --      1.0159                 1.0261                 1.1496
 IR Inten    --      0.2979                 1.3478                56.3742

                     31                     32                     33
                      A                      A                      A
 Frequencies --   1115.2179              1165.7240              1188.0775
 Red. masses --      2.5121                 2.2869                 2.3766
 Frc consts  --      1.8408                 1.8310                 1.9765
 IR Inten    --      6.4805                22.3379                39.5470

                     34                     35                     36
                      A                      A                      A
 Frequencies --   1220.1658              1250.9139              1342.7856
 Red. masses --      1.9744                 1.3474                 1.5201
 Frc consts  --      1.7319                 1.2422                 1.6148
 IR Inten    --     14.5020                37.9998                 7.3257

                     37                     38                     39
                      A                      A                      A
 Frequencies --   1384.6045              1415.3404              1437.7459
 Red. masses --      1.3781                 1.5396                 1.2524
 Frc consts  --      1.5566                 1.8172                 1.5254
 IR Inten    --      6.8988                 9.7795                 5.3235

                     40                     41                     42
                      A                      A                      A
 Frequencies --   1446.0338              1452.3406              1489.4162
 Red. masses --      1.3998                 1.2266                 1.0902
 Frc consts  --      1.7245                 1.5244                 1.4249
 IR Inten    --      1.5649                 4.0459                 4.1296

                     43                     44                     45
                      A                      A                      A
 Frequencies --   1508.5968              1513.9309              1515.3081
 Red. masses --      1.0446                 1.0475                 1.0447
 Frc consts  --      1.4007                 1.4145                 1.4134
 IR Inten    --      1.7519                 7.0302                 9.6855

                     46                     47                     48
                      A                      A                      A
 Frequencies --   1520.3786              1527.0627              1528.4834
 Red. masses --      1.0569                 1.0636                 1.0790
 Frc consts  --      1.4395                 1.4613                 1.4852
 IR Inten    --      4.6945                 7.2366                 2.9716

                     49                     50                     51
                      A                      A                      A
 Frequencies --   1752.1594              2375.1068              3036.3851
 Red. masses --      6.2515                12.6094                 1.0416
 Frc consts  --     11.3078                41.9095                 5.6581
 IR Inten    --      1.3381                 7.2982                37.6604

                     52                     53                     54
                      A                      A                      A
 Frequencies --   3041.1316              3047.3591              3068.8659
 Red. masses --      1.0535                 1.0572                 1.0377
 Frc consts  --      5.7405                 5.7845                 5.7581
 IR Inten    --      3.9323                41.2683                11.8635

                     55                     56                     57
                      A                      A                      A
 Frequencies --   3077.6474              3104.8545              3120.2972
 Red. masses --      1.1000                 1.0960                 1.0908
 Frc consts  --      6.1389                 6.2252                 6.2572
 IR Inten    --     23.1487                 2.6005                29.8445

                     58                     59                     60
                      A                      A                      A
 Frequencies --   3121.7193              3132.9136              3149.3218
 Red. masses --      1.1001                 1.0876                 1.0983
 Frc consts  --      6.3164                 6.2896                 6.4182
 IR Inten    --      8.2972                 5.8940                13.2518

                     61                     62                     63
                      A                      A                      A
 Frequencies --   3156.1532              3165.2505              3741.5270
 Red. masses --      1.1015                 1.0971                 1.0661
 Frc consts  --      6.4649                 6.4760                 8.7930
 IR Inten    --     23.5308                38.6889                 9.9459

 - Thermochemistry -
 -------------------
 Temperature   298.150 Kelvin.  Pressure   1.00000 Atm.
 Atom     1 has atomic number  6 and mass  12.00000

 Molecular mass:   139.09971 amu.
 Principal axes and moments of inertia in atomic units:
                           1         2         3
     Eigenvalues --  1203.576511679.901332066.26680
           X            0.99378  -0.11128  -0.00415
           Y            0.11131   0.99165   0.06504
           Z           -0.00312  -0.06510   0.99787
 This molecule is an asymmetric top.
 Rotational symmetry number  1.
 Warning -- assumption of classical behavior for rotation
           may cause significant error
 Rotational temperatures (Kelvin)      0.07196     0.05156     0.04192
 Rotational constants (GHZ):           1.49948     1.07431     0.87343
 Zero-point vibrational energy     517311.9 (Joules/Mol)
                                  123.64051 (Kcal/Mol)
 Warning -- explicit consideration of  18 degrees of freedom as
           vibrations may cause significant error
 Vibrational temperatures:     57.04   104.00   164.94   182.87   237.38
          (Kelvin)            272.13   329.55   369.84   436.01   443.50
                              450.42   519.12   543.84   574.72   583.01
                              677.13   725.78   785.19   902.54  1032.49
                             1234.73  1253.57  1329.53  1358.86  1411.84
                             1417.89  1483.72  1548.52  1556.39  1573.44
                             1604.55  1677.22  1709.38  1755.55  1799.79
                             1931.97  1992.14  2036.36  2068.60  2080.52
                             2089.59  2142.94  2170.53  2178.21  2180.19
                             2187.49  2197.10  2199.15  2520.97  3417.25
                             4368.68  4375.51  4384.47  4415.41  4428.05
                             4467.19  4489.41  4491.46  4507.56  4531.17
                             4541.00  4554.09  5383.22

 Zero-point correction=                           0.197034 (Hartree/Particle)
 Thermal correction to Energy=                    0.209104
 Thermal correction to Enthalpy=                  0.210049
 Thermal correction to Gibbs Free Energy=         0.159385
 Sum of electronic and zero-point Energies=           -442.454986
 Sum of electronic and thermal Energies=              -442.442915
 Sum of electronic and thermal Enthalpies=            -442.441971
 Sum of electronic and thermal Free Energies=         -442.492635

                     E (Thermal)             CV                S
                      KCal/Mol        Cal/Mol-Kelvin    Cal/Mol-Kelvin
 Total                  131.215             43.759            106.630
 Electronic               0.000              0.000              0.000
 Translational            0.889              2.981             40.702
 Rotational               0.889              2.981             29.814
 Vibrational            129.438             37.797             36.114
 Vibration     1          0.594              1.981              5.277
 Vibration     2          0.598              1.967              4.090
 Vibration     3          0.608              1.937              3.189
 Vibration     4          0.611              1.926              2.989
 Vibration     5          0.623              1.885              2.492
 Vibration     6          0.633              1.855              2.236
 Vibration     7          0.652              1.797              1.886
 Vibration     8          0.667              1.751              1.682
 Vibration     9          0.694              1.668              1.400
 Vibration    10          0.698              1.658              1.372
 Vibration    11          0.701              1.649              1.346
 Vibration    12          0.735              1.553              1.119
 Vibration    13          0.748              1.517              1.047
 Vibration    14          0.766              1.471              0.965
 Vibration    15          0.770              1.459              0.944
 Vibration    16          0.828              1.315              0.736
 Vibration    17          0.860              1.240              0.647
 Vibration    18          0.901              1.149              0.553

 Optimization completed.
    -- Stationary point found.
 Normal termination of Gaussian 16 at Tue Dec  8 10:22:32 2020.

 ----------------------------------------------------------------------
 # B3LYP/6-311++G(d,p) empiricaldispersion=gd3bj scf=xqc pop=npa geom=c
 heck
 ----------------------------------------------------------------------

 ------------------------------------
 CID_15174574_JID_20_Energie_neutraal
 ------------------------------------
 Structure from the checkpoint file:  "JID_20.chk"
 Charge =  0 Multiplicity = 1

 SCF Done:  E(RB3LYP) =  -442.787359290     A.U. after   14 cycles
 Normal termination of Gaussian 16 at Tue Dec  8 10:24:03 2020.

 ----------------------------------------------------------------------
 # B3LYP/6-311++G(d,p) empiricaldispersion=gd3bj scf=xqc pop=npa geom=c
 heck
 ----------------------------------------------------------------------

 ----------------------------------
 CID_15174574_JID_20_Energie_kation
 ----------------------------------
 Structure from the checkpoint file:  "JID_20.chk"
 Charge =  1 Multiplicity = 2

 SCF Done:  E(UB3LYP) =  -442.465292859     A.U. after   20 cycles
 Normal termination of Gaussian 16 at Tue Dec  8 10:26:45 2020.
 Gaussian 16:  ES64L-G16RevA.03 25-Dec-2016

 ----------------------------------------------------------------------
 # B3LYP/6-311++G(d,p) empiricaldispersion=gd3bj scf=xqc pop=npa geom=c
 heck
 ----------------------------------------------------------------------

 ---------------------------------
 CID_15174574_JID_20_Energie_anion
 ---------------------------------
 Structure from the checkpoint file:  "JID_20.chk"
 Charge = -1 Multiplicity = 2

                         Standard orientation:
 ---------------------------------------------------------------------
 Center     Atomic      Atomic             Coordinates (Angstroms)
 Number     Number       Type             X           Y           Z
 ---------------------------------------------------------------------
      1          6           0       -3.064891    0.634163   -0.522176
      2          6           0       -1.733131   -0.054947   -0.592895
      3          6           0       -0.768347   -0.095717    0.336907
      4          6           0       -0.841629    0.581582    1.680085
      5          6           0        0.545873   -0.828563    0.023293
      6          6           0        0.318703   -2.256192   -0.490618
      7          6           0        1.359165   -0.025212   -1.036418
      8          6           0        1.654516    1.338417   -0.596590
      9          7           0        1.882907    2.419811   -0.243699
     10          8           0        1.295547   -0.882087    1.237050
     11          1           0       -3.239047    1.136737    0.431301
     12          1           0       -3.881366   -0.083589   -0.678072
     13          1           0       -3.153154    1.386553   -1.317345
     14          1           0       -1.557320   -0.570657   -1.537769
     15          1           0       -0.710721   -0.144615    2.488509
     16          1           0       -0.034660    1.314501    1.784921
     17          1           0       -1.793508    1.095176    1.823210
     18          1           0       -0.246693   -2.276814   -1.425939
     19          1           0        1.280361   -2.755007   -0.671224
     20          1           0       -0.233656   -2.826804    0.260319
     21          1           0        2.305826   -0.541451   -1.246407
     22          1           0        0.798778    0.020324   -1.976075
     23          1           0        2.098880   -1.397515    1.064526
 ---------------------------------------------------------------------

 SCF Done:  E(UB3LYP) =  -442.779842424     A.U. after   30 cycles

 The electronic state is 2-A.
 Alpha  occ. eigenvalues --  -19.01868 -14.20271 -10.14357 -10.10437 -10.10328
 Alpha  occ. eigenvalues --  -10.07590 -10.06885 -10.06463 -10.05698 -10.05620
 Alpha  occ. eigenvalues --   -0.92886  -0.80024  -0.72380  -0.67746  -0.62832
 Alpha  occ. eigenvalues --   -0.61773  -0.55823  -0.51362  -0.42860  -0.41068
 Alpha  occ. eigenvalues --   -0.39011  -0.37340  -0.34773  -0.34055  -0.32156
 Alpha  occ. eigenvalues --   -0.31468  -0.29841  -0.29244  -0.28454  -0.28233
 Alpha  occ. eigenvalues --   -0.26019  -0.25845  -0.25262  -0.23380  -0.22077
 Alpha  occ. eigenvalues --   -0.21171  -0.18320  -0.13694   0.04341
 Alpha virt. eigenvalues --    0.06864   0.08238   0.08988   0.09587   0.10351
 Alpha virt. eigenvalues --    0.10651   0.10854   0.11526   0.12335   0.12826
 Alpha virt. eigenvalues --    0.12978   0.13800   0.14108   0.14437   0.15672

  Beta  occ. eigenvalues --  -19.01819 -14.20260 -10.14356 -10.10435 -10.10274
  Beta  occ. eigenvalues --  -10.07587 -10.06863 -10.06442 -10.05685 -10.05559
  Beta  occ. eigenvalues --   -0.92783  -0.79997  -0.72336  -0.67685  -0.62779
  Beta  occ. eigenvalues --   -0.61697  -0.55766  -0.51264  -0.42803  -0.41007
  Beta  occ. eigenvalues --   -0.38960  -0.37236  -0.34696  -0.33996  -0.32117
  Beta  occ. eigenvalues --   -0.31434  -0.29816  -0.29186  -0.28421  -0.28192
  Beta  occ. eigenvalues --   -0.25972  -0.25817  -0.25218  -0.23334  -0.22052
  Beta  occ. eigenvalues --   -0.21117  -0.18270  -0.13671
  Beta virt. eigenvalues --    0.06859   0.08140   0.08974   0.09573   0.10212
  Beta virt. eigenvalues --    0.10635   0.11214   0.11271   0.11913   0.12384
  Beta virt. eigenvalues --    0.13153   0.13259   0.14075   0.14499   0.14791

 Mulliken charges and spin densities:
               1          2
     1  C    2.206335  -2.898678
     2  C   -1.293153   0.582494
     3  C    1.205232  -0.500783
     4  C   -0.453568  -0.050848
     5  C   -2.304556   2.347730
     6  C    1.145002  -1.586324
     7  C    1.055006  -0.789795
     8  C    0.543371  -0.932414
     9  N   -0.338712   0.043266
    10  O   -0.074866  -0.070127
    11  H    0.062967   0.061514
    12  H   -0.138637   0.279941
    13  H   -0.061101   0.208717
    14  H   -0.267828   0.427870
    15  H    0.102547   0.085069
    16  H    0.175707   0.013387
    17  H   -0.006899   0.088315
    18  H   -0.540167   0.690205
    19  H   -0.919623   1.080089
    20  H    0.069162   0.104200
    21  H   -0.622429   0.834437
    22  H   -0.346920   0.518810
    23  H   -0.196869   0.462927
 Sum of Mulliken charges =  -1.00000   1.00000

 Dipole moment (field-independent basis, Debye):
    X=             -4.1351    Y=              2.5471    Z=              3.0154  Tot=              5.7166
 Quadrupole moment (field-independent basis, Debye-Ang):
   XX=           -110.7633   YY=           -108.6987   ZZ=            -94.8060
   XY=              2.5842   XZ=             -2.0327   YZ=             -4.9210

 Summary of Natural Population Analysis:

                                       Natural Population
                Natural  -----------------------------------------------
    Atom  No    Charge         Core      Valence    Rydberg      Total
 -----------------------------------------------------------------------
      C    1   -0.29850      0.99965     2.29286    0.00599     3.29850
      C    2   -0.09486      0.99945     2.08623    0.00918     3.09486
      C    3   -0.01316      0.99943     2.00035    0.01338     3.01316
      C    4   -0.30004      0.99961     2.29481    0.00562     3.30004
      C    5    0.12995      0.99950     1.85296    0.01759     2.87005
      C    6   -0.29278      0.99961     2.28579    0.00738     3.29278
      C    7   -0.25743      0.99950     2.24638    0.01156     3.25743
      C    8    0.17369      0.99966     1.80957    0.01708     2.82631
      N    9   -0.19225      0.99978     2.68175    0.01072     3.69225
      O   10   -0.37549      0.99989     3.36892    0.00668     4.37549
      H   11    0.09791      0.00000     0.40126    0.00083     0.40209
      H   12    0.10233      0.00000     0.39662    0.00105     0.39767
      H   13    0.10274      0.00000     0.39631    0.00095     0.39726
      H   14    0.09527      0.00000     0.40266    0.00207     0.40473
      H   15    0.10936      0.00000     0.38949    0.00115     0.39064
      H   16    0.11365      0.00000     0.38520    0.00115     0.38635
      H   17    0.09606      0.00000     0.40307    0.00087     0.40394
      H   18    0.10597      0.00000     0.39150    0.00253     0.39403
      H   19    0.10454      0.00000     0.39110    0.00435     0.39546
      H   20    0.10598      0.00000     0.39271    0.00132     0.39402
      H   21    0.12501      0.00000     0.37089    0.00410     0.37499
      H   22    0.12625      0.00000     0.37117    0.00258     0.37375
      H   23    0.23581      0.00000     0.25787    0.00632     0.26419
 =======================================================================
   * Total *    0.00000      9.99607    27.86948    0.13444    38.00000

 Normal termination of Gaussian 16 at Tue Dec  8 10:30:43 2020.
