 Gaussian 16, Revision A.03,

 -----------------------------------------------------------
 # opt freq B3LYP/6-31G(d) empiricaldispersion=gd3bj scf=xqc
 -----------------------------------------------------------

 -----------------------------
 CID_91222010_JID_421_neutraal
 -----------------------------
 Symbolic Z-matrix:
 Charge =  0 Multiplicity = 1

 SCF Done:  E(RB3LYP) =  -479.767252416     A.U. after   14 cycles
 SCF Done:  E(RB3LYP) =  -479.770875161     A.U. after   12 cycles
 SCF Done:  E(RB3LYP) =  -479.771106887     A.U. after   12 cycles
 SCF Done:  E(RB3LYP) =  -479.770466081     A.U. after   12 cycles
 SCF Done:  E(RB3LYP) =  -479.771698531     A.U. after   12 cycles
 SCF Done:  E(RB3LYP) =  -479.771924132     A.U. after   12 cycles
 SCF Done:  E(RB3LYP) =  -479.771996447     A.U. after   10 cycles
 SCF Done:  E(RB3LYP) =  -479.772027853     A.U. after   11 cycles
 SCF Done:  E(RB3LYP) =  -479.772038997     A.U. after    9 cycles
 SCF Done:  E(RB3LYP) =  -479.772052169     A.U. after   10 cycles
 SCF Done:  E(RB3LYP) =  -479.772066434     A.U. after   10 cycles
 SCF Done:  E(RB3LYP) =  -479.772082059     A.U. after   11 cycles
 SCF Done:  E(RB3LYP) =  -479.772087262     A.U. after   10 cycles
 SCF Done:  E(RB3LYP) =  -479.772087799     A.U. after    8 cycles
 SCF Done:  E(RB3LYP) =  -479.772087911     A.U. after    7 cycles
 Optimization completed.
    -- Stationary point found.
 Normal termination of Gaussian 16 at Tue Dec  8 10:37:37 2020.

 --------------------------------------------------------------------
 #N Geom=AllCheck Guess=TCheck SCRF=Check GenChk RB3LYP/6-31G(d) Freq
 --------------------------------------------------------------------

 Structure from the checkpoint file:  "JID_421.chk"
 -----------------------------
 CID_91222010_JID_421_neutraal
 -----------------------------
 Charge =  0 Multiplicity = 1

 SCF Done:  E(RB3LYP) =  -479.772087911     A.U. after    1 cycles

  Exact polarizability:  96.619  -0.066  81.453   0.151  -1.579  69.642
 Approx polarizability: 114.782  -2.299 125.806  -0.206  -1.876 103.687

                      1                      2                      3
                      A                      A                      A
 Frequencies --     38.1710                49.3423                86.3080
 Red. masses --      2.6397                 2.8643                 4.4327
 Frc consts  --      0.0023                 0.0041                 0.0195
 IR Inten    --      2.0642                 1.5040                 3.5284

                      4                      5                      6
                      A                      A                      A
 Frequencies --    133.5345               152.8416               189.5165
 Red. masses --      3.1247                 1.9051                 1.5838
 Frc consts  --      0.0328                 0.0262                 0.0335
 IR Inten    --      1.5587                 1.7443                 0.0828

                      7                      8                      9
                      A                      A                      A
 Frequencies --    244.7368               274.1181               314.8004
 Red. masses --      2.8308                 1.9469                 4.2743
 Frc consts  --      0.0999                 0.0862                 0.2496
 IR Inten    --      4.6877                 0.3750                21.7225

                     10                     11                     12
                      A                      A                      A
 Frequencies --    397.1433               507.7952               539.6658
 Red. masses --      2.2730                 3.7639                 3.5773
 Frc consts  --      0.2112                 0.5718                 0.6138
 IR Inten    --      1.9568                 2.3061                13.3670

                     13                     14                     15
                      A                      A                      A
 Frequencies --    557.3688               585.2091               656.7190
 Red. masses --      3.6454                 2.1023                 3.0453
 Frc consts  --      0.6672                 0.4242                 0.7738
 IR Inten    --     11.4832                14.9997                44.9511

                     16                     17                     18
                      A                      A                      A
 Frequencies --    758.4459               866.0008               890.2105
 Red. masses --      2.3942                 2.2347                 1.8398
 Frc consts  --      0.8114                 0.9874                 0.8590
 IR Inten    --     14.9375                46.1792                 7.9618

                     19                     20                     21
                      A                      A                      A
 Frequencies --    908.2995               934.3851               957.5513
 Red. masses --      1.7651                 2.3707                 2.7091
 Frc consts  --      0.8580                 1.2195                 1.4635
 IR Inten    --      4.1676                 1.0575                 1.2972

                     22                     23                     24
                      A                      A                      A
 Frequencies --    963.9283               998.9828              1014.7760
 Red. masses --      3.2116                 1.6960                 2.0270
 Frc consts  --      1.7582                 0.9972                 1.2298
 IR Inten    --     12.3448                 2.4474                15.8376

                     25                     26                     27
                      A                      A                      A
 Frequencies --   1074.8997              1127.4485              1146.2231
 Red. masses --      1.7269                 2.7481                 2.6423
 Frc consts  --      1.1756                 2.0581                 2.0454
 IR Inten    --      5.6102                83.0465                49.6545

                     28                     29                     30
                      A                      A                      A
 Frequencies --   1155.7089              1184.8969              1192.0745
 Red. masses --      3.4049                 1.5362                 1.2883
 Frc consts  --      2.6795                 1.2707                 1.0787
 IR Inten    --     32.7277                 1.2177                 5.8197

                     31                     32                     33
                      A                      A                      A
 Frequencies --   1209.1275              1219.3973              1233.9640
 Red. masses --      1.7422                 1.6221                 1.9394
 Frc consts  --      1.5007                 1.4211                 1.7399
 IR Inten    --     27.2465                 2.0048                57.1514

                     34                     35                     36
                      A                      A                      A
 Frequencies --   1266.1149              1303.1614              1314.3087
 Red. masses --      1.3214                 1.2558                 1.2512
 Frc consts  --      1.2480                 1.2565                 1.2734
 IR Inten    --      1.4046                 1.1357                14.5699

                     37                     38                     39
                      A                      A                      A
 Frequencies --   1345.8859              1356.6560              1363.4618
 Red. masses --      1.3228                 1.2677                 1.4125
 Frc consts  --      1.4117                 1.3747                 1.5471
 IR Inten    --      9.5651                 7.5338                24.4424

                     40                     41                     42
                      A                      A                      A
 Frequencies --   1381.9844              1388.1413              1483.3424
 Red. masses --      1.3523                 1.3942                 1.0750
 Frc consts  --      1.5217                 1.5829                 1.3935
 IR Inten    --     14.9134                 2.2949                 7.4881

                     43                     44                     45
                      A                      A                      A
 Frequencies --   1487.1300              1508.2035              1516.7003
 Red. masses --      1.3099                 1.1350                 1.0935
 Frc consts  --      1.7068                 1.5211                 1.4821
 IR Inten    --     20.2535                 2.8305                 3.0720

                     46                     47                     48
                      A                      A                      A
 Frequencies --   1518.8277              1529.1593              1535.6670
 Red. masses --      1.0568                 1.0972                 1.0588
 Frc consts  --      1.4363                 1.5116                 1.4711
 IR Inten    --      4.3783                 0.6843                 3.5246

                     49                     50                     51
                      A                      A                      A
 Frequencies --   1557.9141              1802.0185              2974.3579
 Red. masses --      1.0968                11.8386                 1.0736
 Frc consts  --      1.5684                22.6500                 5.5960
 IR Inten    --      4.5500               128.4366                78.4425

                     52                     53                     54
                      A                      A                      A
 Frequencies --   3004.8932              3021.3044              3027.9977
 Red. masses --      1.0375                 1.0814                 1.0602
 Frc consts  --      5.5193                 5.8161                 5.7270
 IR Inten    --     37.2345                53.6924                30.3150

                     55                     56                     57
                      A                      A                      A
 Frequencies --   3048.8239              3055.8427              3065.1727
 Red. masses --      1.0719                 1.1049                 1.0659
 Frc consts  --      5.8702                 6.0790                 5.9006
 IR Inten    --     17.9127                58.2674                17.3720

                     58                     59                     60
                      A                      A                      A
 Frequencies --   3080.7152              3082.7529              3119.9492
 Red. masses --      1.0860                 1.1016                 1.1032
 Frc consts  --      6.0727                 6.1681                 6.3272
 IR Inten    --     74.8741                14.6031                33.9807

                     61                     62                     63
                      A                      A                      A
 Frequencies --   3141.4663              3148.3651              3508.1710
 Red. masses --      1.0961                 1.0981                 1.0734
 Frc consts  --      6.3734                 6.4129                 7.7837
 IR Inten    --     20.5664                25.5157                15.4362

 - Thermochemistry -
 -------------------
 Temperature   298.150 Kelvin.  Pressure   1.00000 Atm.
 Atom     1 has atomic number  6 and mass  12.00000

 Molecular mass:   143.09463 amu.
 Principal axes and moments of inertia in atomic units:
                           1         2         3
     Eigenvalues --   788.122832096.394612449.72076
           X            0.99986   0.00515   0.01563
           Y           -0.00504   0.99996  -0.00715
           Z           -0.01566   0.00707   0.99985
 This molecule is an asymmetric top.
 Rotational symmetry number  1.
 Warning -- assumption of classical behavior for rotation
           may cause significant error
 Rotational temperatures (Kelvin)      0.10990     0.04132     0.03536
 Rotational constants (GHZ):           2.28992     0.86088     0.73671
 Zero-point vibrational energy     529360.0 (Joules/Mol)
                                  126.52008 (Kcal/Mol)
 Warning -- explicit consideration of  14 degrees of freedom as
           vibrations may cause significant error
 Vibrational temperatures:     54.92    70.99   124.18   192.13   219.90
          (Kelvin)            272.67   352.12   394.39   452.93   571.40
                              730.60   776.46   801.93   841.99   944.87
                             1091.23  1245.98  1280.81  1306.84  1344.37
                             1377.70  1386.88  1437.31  1460.04  1546.54
                             1622.15  1649.16  1662.81  1704.80  1715.13
                             1739.66  1754.44  1775.40  1821.66  1874.96
                             1891.00  1936.43  1951.93  1961.72  1988.37
                             1997.23  2134.20  2139.65  2169.97  2182.19
                             2185.25  2200.12  2209.48  2241.49  2592.70
                             4279.44  4323.37  4346.98  4356.61  4386.58
                             4396.68  4410.10  4432.46  4435.39  4488.91
                             4519.87  4529.80  5047.48

 Zero-point correction=                           0.201623 (Hartree/Particle)
 Thermal correction to Energy=                    0.212115
 Thermal correction to Enthalpy=                  0.213059
 Thermal correction to Gibbs Free Energy=         0.164404
 Sum of electronic and zero-point Energies=           -479.570465
 Sum of electronic and thermal Energies=              -479.559973
 Sum of electronic and thermal Enthalpies=            -479.559029
 Sum of electronic and thermal Free Energies=         -479.607684

                     E (Thermal)             CV                S
                      KCal/Mol        Cal/Mol-Kelvin    Cal/Mol-Kelvin
 Total                  133.104             37.652            102.402
 Electronic               0.000              0.000              0.000
 Translational            0.889              2.981             40.786
 Rotational               0.889              2.981             29.783
 Vibrational            131.327             31.690             31.833
 Vibration     1          0.594              1.982              5.352
 Vibration     2          0.595              1.978              4.844
 Vibration     3          0.601              1.959              3.742
 Vibration     4          0.613              1.920              2.894
 Vibration     5          0.619              1.900              2.637
 Vibration     6          0.633              1.854              2.233
 Vibration     7          0.660              1.771              1.768
 Vibration     8          0.676              1.721              1.570
 Vibration     9          0.702              1.645              1.337
 Vibration    10          0.764              1.476              0.973
 Vibration    11          0.863              1.233              0.639
 Vibration    12          0.895              1.162              0.566
 Vibration    13          0.913              1.124              0.529
 Vibration    14          0.942              1.063              0.476

 Optimization completed.
    -- Stationary point found.
 Normal termination of Gaussian 16 at Tue Dec  8 10:42:05 2020.

 ----------------------------------------------------------------------
 # B3LYP/6-311++G(d,p) empiricaldispersion=gd3bj scf=xqc pop=npa geom=c
 heck
 ----------------------------------------------------------------------

 -------------------------------------
 CID_91222010_JID_421_Energie_neutraal
 -------------------------------------
 Structure from the checkpoint file:  "JID_421.chk"
 Charge =  0 Multiplicity = 1

 SCF Done:  E(RB3LYP) =  -479.916537855     A.U. after   14 cycles
 Normal termination of Gaussian 16 at Tue Dec  8 10:45:29 2020.

 ----------------------------------------------------------------------
 # B3LYP/6-311++G(d,p) empiricaldispersion=gd3bj scf=xqc pop=npa geom=c
 heck
 ----------------------------------------------------------------------

 -----------------------------------
 CID_91222010_JID_421_Energie_kation
 -----------------------------------
 Structure from the checkpoint file:  "JID_421.chk"
 Charge =  1 Multiplicity = 2

 SCF Done:  E(UB3LYP) =  -479.611360820     A.U. after   21 cycles
 Normal termination of Gaussian 16 at Tue Dec  8 10:50:35 2020.
 Gaussian 16:  ES64L-G16RevA.03 25-Dec-2016

 ----------------------------------------------------------------------
 # B3LYP/6-311++G(d,p) empiricaldispersion=gd3bj scf=xqc pop=npa geom=c
 heck
 ----------------------------------------------------------------------

 ----------------------------------
 CID_91222010_JID_421_Energie_anion
 ----------------------------------
 Structure from the checkpoint file:  "JID_421.chk"
 Charge = -1 Multiplicity = 2

                         Standard orientation:
 ---------------------------------------------------------------------
 Center     Atomic      Atomic             Coordinates (Angstroms)
 Number     Number       Type             X           Y           Z
 ---------------------------------------------------------------------
      1          6           0        2.933071   -0.761958    0.921737
      2          8           0        2.244264   -0.858640   -0.313195
      3          6           0        1.839436    0.396849   -0.815401
      4          6           0        0.545480    0.944280   -0.205342
      5          8           0        0.301896    2.136143   -0.266945
      6          6           0       -0.431385   -0.053825    0.397106
      7          6           0       -0.957332   -1.047198   -0.679263
      8          6           0       -2.426818   -1.228275   -0.276380
      9          6           0       -2.800526    0.174114    0.210735
     10          7           0       -1.613708    0.595647    0.972324
     11          1           0        3.204514   -1.778874    1.213765
     12          1           0        2.308330   -0.319278    1.711942
     13          1           0        3.847052   -0.157959    0.820640
     14          1           0        2.623610    1.160724   -0.710378
     15          1           0        1.654394    0.258463   -1.888340
     16          1           0        0.107348   -0.621065    1.169371
     17          1           0       -0.905613   -0.591352   -1.676365
     18          1           0       -0.372666   -1.968811   -0.704166
     19          1           0       -3.057660   -1.578592   -1.098931
     20          1           0       -2.508531   -1.944242    0.549533
     21          1           0       -3.008899    0.824905   -0.655920
     22          1           0       -3.690130    0.177675    0.850754
     23          1           0       -1.486628    1.604932    0.933798
 ---------------------------------------------------------------------

 SCF Done:  E(UB3LYP) =  -479.900948131     A.U. after   33 cycles
 SCF Done:  E(UB3LYP) =  -479.900948131     a.u. after    1 cycles

 The electronic state is 2-A.
 Alpha  occ. eigenvalues --  -19.02750 -19.00117 -14.18207 -10.13695 -10.11489
 Alpha  occ. eigenvalues --  -10.10843 -10.09134 -10.08291 -10.06461 -10.06180
 Alpha  occ. eigenvalues --   -0.94391  -0.93083  -0.80786  -0.66133  -0.64819
 Alpha  occ. eigenvalues --   -0.61985  -0.55695  -0.50280  -0.47906  -0.43595
 Alpha  occ. eigenvalues --   -0.40350  -0.39169  -0.38188  -0.37269  -0.35363
 Alpha  occ. eigenvalues --   -0.32812  -0.31269  -0.30421  -0.29736  -0.27399
 Alpha  occ. eigenvalues --   -0.26476  -0.26127  -0.24198  -0.23748  -0.22823
 Alpha  occ. eigenvalues --   -0.22165  -0.18320  -0.13903  -0.11453   0.04950
 Alpha virt. eigenvalues --    0.06816   0.07310   0.08646   0.09018   0.09763
 Alpha virt. eigenvalues --    0.09880   0.10667   0.11920   0.12196   0.12516
 Alpha virt. eigenvalues --    0.13274   0.13902   0.14143   0.16031   0.16983

  Beta  occ. eigenvalues --  -19.02745 -19.00007 -14.18207 -10.13533 -10.11483
  Beta  occ. eigenvalues --  -10.10790 -10.09133 -10.08272 -10.06441 -10.06157
  Beta  occ. eigenvalues --   -0.94311  -0.92922  -0.80763  -0.66069  -0.64699
  Beta  occ. eigenvalues --   -0.61928  -0.55529  -0.50160  -0.47846  -0.43465
  Beta  occ. eigenvalues --   -0.40250  -0.39079  -0.38077  -0.37186  -0.35287
  Beta  occ. eigenvalues --   -0.32668  -0.31173  -0.30378  -0.29440  -0.27338
  Beta  occ. eigenvalues --   -0.26310  -0.26063  -0.24086  -0.23630  -0.22748
  Beta  occ. eigenvalues --   -0.21999  -0.18267  -0.13824  -0.11423
  Beta virt. eigenvalues --    0.07370   0.07965   0.08617   0.09425   0.09452
  Beta virt. eigenvalues --    0.10368   0.10514   0.11165   0.12339   0.12417
  Beta virt. eigenvalues --    0.12985   0.13446   0.14222   0.14431   0.16064

 Mulliken charges and spin densities:
               1          2
     1  C    1.090466  -1.386360
     2  O   -0.198057   0.097474
     3  C    0.414325  -0.893947
     4  C    0.504278  -0.274013
     5  O   -0.333289   0.056457
     6  C   -1.245526   1.136655
     7  C    0.268918  -0.618353
     8  C    0.104350  -0.463975
     9  C    0.439183  -0.768535
    10  N   -0.136234   0.052698
    11  H   -0.535405   0.700506
    12  H   -0.188386   0.320541
    13  H   -0.378573   0.507018
    14  H    0.148828   0.008402
    15  H   -0.520159   0.739525
    16  H    0.130098   0.059741
    17  H    0.052059   0.107201
    18  H    0.035175   0.145269
    19  H   -0.604382   0.770062
    20  H    0.051195   0.077263
    21  H   -0.034318   0.159776
    22  H   -0.190142   0.356496
    23  H    0.125597   0.110101
 Sum of Mulliken charges =  -1.00000   1.00000

 Dipole moment (field-independent basis, Debye):
    X=             -1.2117    Y=              1.4397    Z=              1.3271  Tot=              2.3026
 Quadrupole moment (field-independent basis, Debye-Ang):
   XX=           -124.6217   YY=            -95.7002   ZZ=            -94.5462
   XY=              3.0797   XZ=             -5.2553   YZ=             -0.0891

 Summary of Natural Population Analysis:

                                       Natural Population
                Natural  -----------------------------------------------
    Atom  No    Charge         Core      Valence    Rydberg      Total
 -----------------------------------------------------------------------
      C    1   -0.09811      0.99961     2.08844    0.01007     3.09811
      O    2   -0.29835      0.99989     3.28720    0.01126     4.29835
      C    3   -0.05567      0.99954     2.04162    0.01451     3.05567
      C    4    0.30423      0.99964     1.67598    0.02016     2.69577
      O    5   -0.29110      0.99987     3.28375    0.00748     4.29110
      C    6   -0.05521      0.99956     2.04307    0.01258     3.05521
      C    7   -0.18864      0.99962     2.18031    0.00871     3.18864
      C    8   -0.19497      0.99964     2.18706    0.00827     3.19497
      C    9   -0.08736      0.99964     2.07633    0.01139     3.08736
      N   10   -0.34731      0.99974     2.83722    0.01034     3.84731
      H   11    0.09345      0.00000     0.40436    0.00219     0.40655
      H   12    0.07768      0.00000     0.42043    0.00189     0.42232
      H   13    0.07984      0.00000     0.41817    0.00199     0.42016
      H   14    0.09076      0.00000     0.40781    0.00143     0.40924
      H   15    0.10845      0.00000     0.38850    0.00305     0.39155
      H   16    0.10153      0.00000     0.39605    0.00242     0.39847
      H   17    0.09664      0.00000     0.40155    0.00182     0.40336
      H   18    0.10795      0.00000     0.39062    0.00142     0.39205
      H   19    0.10362      0.00000     0.39426    0.00212     0.39638
      H   20    0.09520      0.00000     0.40362    0.00118     0.40480
      H   21    0.08145      0.00000     0.41698    0.00157     0.41855
      H   22    0.09053      0.00000     0.40812    0.00134     0.40947
      H   23    0.18539      0.00000     0.31165    0.00296     0.31461
 =======================================================================
   * Total *   -0.00000      9.99675    28.86312    0.14013    39.00000

 Normal termination of Gaussian 16 at Tue Dec  8 10:56:18 2020.
