 Gaussian 16, Revision A.03,

 -----------------------------------------------------------
 # opt freq B3LYP/6-31G(d) empiricaldispersion=gd3bj scf=xqc
 -----------------------------------------------------------

 -----------------------------
 CID_22030876_JID_402_neutraal
 -----------------------------
 Symbolic Z-matrix:
 Charge =  0 Multiplicity = 1

 SCF Done:  E(RB3LYP) =  -443.838271246     A.U. after   14 cycles
 SCF Done:  E(RB3LYP) =  -443.843417911     A.U. after   11 cycles
 SCF Done:  E(RB3LYP) =  -443.843636853     A.U. after   10 cycles
 SCF Done:  E(RB3LYP) =  -443.843684285     A.U. after   10 cycles
 SCF Done:  E(RB3LYP) =  -443.843709659     A.U. after    9 cycles
 SCF Done:  E(RB3LYP) =  -443.843723912     A.U. after    9 cycles
 SCF Done:  E(RB3LYP) =  -443.843733522     A.U. after    9 cycles
 SCF Done:  E(RB3LYP) =  -443.843740700     A.U. after    9 cycles
 SCF Done:  E(RB3LYP) =  -443.843742798     A.U. after    8 cycles
 SCF Done:  E(RB3LYP) =  -443.843742962     A.U. after    7 cycles
 SCF Done:  E(RB3LYP) =  -443.843743004     A.U. after    7 cycles
 Optimization completed.
    -- Stationary point found.
 Normal termination of Gaussian 16 at Tue Dec  8 10:31:45 2020.

 --------------------------------------------------------------------
 #N Geom=AllCheck Guess=TCheck SCRF=Check GenChk RB3LYP/6-31G(d) Freq
 --------------------------------------------------------------------

 Structure from the checkpoint file:  "JID_402.chk"
 -----------------------------
 CID_22030876_JID_402_neutraal
 -----------------------------
 Charge =  0 Multiplicity = 1

 SCF Done:  E(RB3LYP) =  -443.843743004     A.U. after    1 cycles

  Exact polarizability: 111.648  -0.374  83.633   4.755   0.721  81.212
 Approx polarizability: 151.574   3.883 116.551  12.067   3.029 121.314

                      1                      2                      3
                      A                      A                      A
 Frequencies --     35.5495                55.8701               106.8481
 Red. masses --      3.9051                 3.3064                 2.4849
 Frc consts  --      0.0029                 0.0061                 0.0167
 IR Inten    --      0.6910                 0.5017                 1.4242

                      4                      5                      6
                      A                      A                      A
 Frequencies --    112.4940               141.9765               176.5463
 Red. masses --      1.9181                 2.4178                 2.5705
 Frc consts  --      0.0143                 0.0287                 0.0472
 IR Inten    --      0.7539                 1.2960                 0.1162

                      7                      8                      9
                      A                      A                      A
 Frequencies --    226.6432               299.3863               357.2814
 Red. masses --      2.4549                 2.4109                 1.2064
 Frc consts  --      0.0743                 0.1273                 0.0907
 IR Inten    --      8.4069                 6.9416                92.8965

                     10                     11                     12
                      A                      A                      A
 Frequencies --    396.3368               437.3312               470.9107
 Red. masses --      2.1925                 3.2005                 2.0326
 Frc consts  --      0.2029                 0.3607                 0.2656
 IR Inten    --      0.4519                14.9675                18.6673

                     13                     14                     15
                      A                      A                      A
 Frequencies --    544.2761               647.0224               653.4027
 Red. masses --      2.4781                 2.6265                 3.2891
 Frc consts  --      0.4325                 0.6478                 0.8274
 IR Inten    --      3.2875                 4.8090                14.9417

                     16                     17                     18
                      A                      A                      A
 Frequencies --    755.3329               832.8791               850.4459
 Red. masses --      1.5841                 1.7657                 1.6361
 Frc consts  --      0.5325                 0.7217                 0.6972
 IR Inten    --     10.1264                 1.6881                 0.9572

                     19                     20                     21
                      A                      A                      A
 Frequencies --    883.9723               898.4555               910.0404
 Red. masses --      2.5881                 2.9765                 2.0321
 Frc consts  --      1.1915                 1.4156                 0.9915
 IR Inten    --      3.6511                 6.4432                 3.1542

                     22                     23                     24
                      A                      A                      A
 Frequencies --    929.9041               956.9359               978.8301
 Red. masses --      2.2062                 1.6524                 1.6076
 Frc consts  --      1.1240                 0.8915                 0.9075
 IR Inten    --      4.2964                10.9337                15.5003

                     25                     26                     27
                      A                      A                      A
 Frequencies --   1019.0468              1034.4625              1039.8949
 Red. masses --      1.3241                 2.7772                 2.9539
 Frc consts  --      0.8102                 1.7510                 1.8820
 IR Inten    --     50.8947                16.7141                16.3243

                     28                     29                     30
                      A                      A                      A
 Frequencies --   1076.4581              1095.5754              1107.6594
 Red. masses --      3.6525                 2.1785                 2.5432
 Frc consts  --      2.4937                 1.5406                 1.8384
 IR Inten    --     68.7511                24.9481                23.2501

                     31                     32                     33
                      A                      A                      A
 Frequencies --   1122.2746              1165.1836              1217.5502
 Red. masses --      1.8321                 1.7351                 1.3740
 Frc consts  --      1.3595                 1.3879                 1.2001
 IR Inten    --      7.0690                 9.0504                 7.6421

                     34                     35                     36
                      A                      A                      A
 Frequencies --   1228.3591              1242.1515              1270.6362
 Red. masses --      1.3167                 1.2055                 1.1177
 Frc consts  --      1.1705                 1.0958                 1.0632
 IR Inten    --      4.4166                 0.8023                 1.3142

                     37                     38                     39
                      A                      A                      A
 Frequencies --   1296.1066              1308.0342              1328.9465
 Red. masses --      1.4564                 1.3178                 1.3742
 Frc consts  --      1.4415                 1.3284                 1.4300
 IR Inten    --      5.3850                 7.6121                 0.4239

                     40                     41                     42
                      A                      A                      A
 Frequencies --   1335.7412              1354.9343              1367.1162
 Red. masses --      1.2784                 1.2361                 1.2951
 Frc consts  --      1.3439                 1.3370                 1.4262
 IR Inten    --      1.4742                 5.2718                 0.9359

                     43                     44                     45
                      A                      A                      A
 Frequencies --   1370.3665              1378.6712              1390.4844
 Red. masses --      1.4361                 1.2046                 1.3211
 Frc consts  --      1.5889                 1.3490                 1.5050
 IR Inten    --     11.5830                13.5960                13.0965

                     46                     47                     48
                      A                      A                      A
 Frequencies --   1404.8591              1435.8696              1505.3603
 Red. masses --      1.2794                 1.2642                 1.0908
 Frc consts  --      1.4877                 1.5357                 1.4563
 IR Inten    --      0.0399                73.4486                 7.7262

                     49                     50                     51
                      A                      A                      A
 Frequencies --   1511.4222              1523.6367              1526.6589
 Red. masses --      1.0803                 1.0841                 1.0922
 Frc consts  --      1.4540                 1.4828                 1.4998
 IR Inten    --      0.9647                 4.6633                 4.0251

                     52                     53                     54
                      A                      A                      A
 Frequencies --   1531.8284              1544.6309              1744.2828
 Red. masses --      1.0935                 1.1016                 5.9610
 Frc consts  --      1.5118                 1.5485                10.6857
 IR Inten    --      1.6809                 2.2660                 1.3258

                     55                     56                     57
                      A                      A                      A
 Frequencies --   2999.9413              3031.7170              3036.2318
 Red. masses --      1.0702                 1.0691                 1.0680
 Frc consts  --      5.6747                 5.7896                 5.8007
 IR Inten    --     56.9005                43.6763                60.2302

                     58                     59                     60
                      A                      A                      A
 Frequencies --   3042.8741              3065.9592              3076.5399
 Red. masses --      1.0635                 1.0598                 1.0618
 Frc consts  --      5.8016                 5.8696                 5.9211
 IR Inten    --     55.8632                25.8747                43.5188

                     61                     62                     63
                      A                      A                      A
 Frequencies --   3083.6536              3085.6555              3096.8892
 Red. masses --      1.1034                 1.0930                 1.1009
 Frc consts  --      6.1820                 6.1313                 6.2206
 IR Inten    --      8.9664                37.9738                24.0613

                     64                     65                     66
                      A                      A                      A
 Frequencies --   3107.2671              3113.8776              3124.4548
 Red. masses --      1.0981                 1.0992                 1.1057
 Frc consts  --      6.2466                 6.2794                 6.3594
 IR Inten    --      2.7713                15.5390               103.1974

                     67                     68                     69
                      A                      A                      A
 Frequencies --   3139.3884              3148.8961              3732.4130
 Red. masses --      1.0903                 1.0879                 1.0661
 Frc consts  --      6.3312                 6.3553                 8.7506
 IR Inten    --     17.6037                30.3666                 7.4763

 - Thermochemistry -
 -------------------
 Temperature   298.150 Kelvin.  Pressure   1.00000 Atm.
 Atom     1 has atomic number  6 and mass  12.00000

 Molecular mass:   141.11536 amu.
 Principal axes and moments of inertia in atomic units:
                           1         2         3
     Eigenvalues --   837.111052323.898302633.71900
           X            0.99987  -0.01588   0.00060
           Y            0.01588   0.99987  -0.00387
           Z           -0.00054   0.00387   0.99999
 This molecule is an asymmetric top.
 Rotational symmetry number  1.
 Warning -- assumption of classical behavior for rotation
           may cause significant error
 Rotational temperatures (Kelvin)      0.10347     0.03727     0.03289
 Rotational constants (GHZ):           2.15592     0.77660     0.68524
 Zero-point vibrational energy     592286.9 (Joules/Mol)
                                  141.55996 (Kcal/Mol)
 Warning -- explicit consideration of  13 degrees of freedom as
           vibrations may cause significant error
 Vibrational temperatures:     51.15    80.38   153.73   161.85   204.27
          (Kelvin)            254.01   326.09   430.75   514.05   570.24
                              629.22   677.54   783.09   930.92   940.10
                             1086.76  1198.33  1223.60  1271.84  1292.68
                             1309.35  1337.92  1376.82  1408.32  1466.18
                             1488.36  1496.18  1548.78  1576.29  1593.67
                             1614.70  1676.44  1751.78  1767.33  1787.18
                             1828.16  1864.81  1881.97  1912.06  1921.83
                             1949.45  1966.98  1971.65  1983.60  2000.60
                             2021.28  2065.90  2165.88  2174.60  2192.17
                             2196.52  2203.96  2222.38  2509.63  4316.25
                             4361.96  4368.46  4378.02  4411.23  4426.45
                             4436.69  4439.57  4455.73  4470.66  4480.18
                             4495.39  4516.88  4530.56  5370.11

 Zero-point correction=                           0.225590 (Hartree/Particle)
 Thermal correction to Energy=                    0.236312
 Thermal correction to Enthalpy=                  0.237256
 Thermal correction to Gibbs Free Energy=         0.188224
 Sum of electronic and zero-point Energies=           -443.618153
 Sum of electronic and thermal Energies=              -443.607431
 Sum of electronic and thermal Enthalpies=            -443.606487
 Sum of electronic and thermal Free Energies=         -443.655519

                     E (Thermal)             CV                S
                      KCal/Mol        Cal/Mol-Kelvin    Cal/Mol-Kelvin
 Total                  148.288             39.395            103.198
 Electronic               0.000              0.000              0.000
 Translational            0.889              2.981             40.745
 Rotational               0.889              2.981             30.017
 Vibrational            146.511             33.433             32.436
 Vibration     1          0.594              1.982              5.493
 Vibration     2          0.596              1.975              4.598
 Vibration     3          0.606              1.944              3.325
 Vibration     4          0.607              1.939              3.225
 Vibration     5          0.615              1.911              2.777
 Vibration     6          0.628              1.871              2.365
 Vibration     7          0.650              1.800              1.905
 Vibration     8          0.692              1.675              1.420
 Vibration     9          0.732              1.560              1.134
 Vibration    10          0.763              1.478              0.976
 Vibration    11          0.798              1.389              0.835
 Vibration    12          0.828              1.315              0.735
 Vibration    13          0.899              1.152              0.556

                           ! Non-Optimized Parameters !
 Normal termination of Gaussian 16 at Tue Dec  8 10:37:01 2020.

 ----------------------------------------------------------------------
 # B3LYP/6-311++G(d,p) empiricaldispersion=gd3bj scf=xqc pop=npa geom=c
 heck
 ----------------------------------------------------------------------

 -------------------------------------
 CID_22030876_JID_402_Energie_neutraal
 -------------------------------------
 Structure from the checkpoint file:  "JID_402.chk"
 Charge =  0 Multiplicity = 1

 SCF Done:  E(RB3LYP) =  -443.979691044     A.U. after   13 cycles
 Normal termination of Gaussian 16 at Tue Dec  8 10:42:04 2020.

 ----------------------------------------------------------------------
 # B3LYP/6-311++G(d,p) empiricaldispersion=gd3bj scf=xqc pop=npa geom=c
 heck
 ----------------------------------------------------------------------

 -----------------------------------
 CID_22030876_JID_402_Energie_kation
 -----------------------------------
 Structure from the checkpoint file:  "JID_402.chk"
 Charge =  1 Multiplicity = 2

 SCF Done:  E(UB3LYP) =  -443.687025372     A.U. after   20 cycles
 Normal termination of Gaussian 16 at Tue Dec  8 10:47:02 2020.
 Gaussian 16:  ES64L-G16RevA.03 25-Dec-2016

 ----------------------------------------------------------------------
 # B3LYP/6-311++G(d,p) empiricaldispersion=gd3bj scf=xqc pop=npa geom=c
 heck
 ----------------------------------------------------------------------

 ----------------------------------
 CID_22030876_JID_402_Energie_anion
 ----------------------------------
 Structure from the checkpoint file:  "JID_402.chk"
 Charge = -1 Multiplicity = 2

                         Standard orientation:
 ---------------------------------------------------------------------
 Center     Atomic      Atomic             Coordinates (Angstroms)
 Number     Number       Type             X           Y           Z
 ---------------------------------------------------------------------
      1          6           0       -1.091333    1.561343    0.355128
      2          6           0       -1.734311    1.165163   -0.999764
      3          6           0       -2.376628   -0.223106   -0.726976
      4          7           0       -1.726419   -0.787837    0.460325
      5          6           0       -1.424590    0.376628    1.301150
      6          6           0       -0.580403   -1.670333    0.196893
      7          6           0        0.626289   -1.038151   -0.454911
      8          6           0        1.792339   -0.822388    0.160415
      9          6           0        2.958452   -0.110137   -0.460751
     10          8           0        3.297943    1.076117    0.259666
     11          1           0       -0.007882    1.670014    0.247615
     12          1           0       -1.480817    2.508329    0.741780
     13          1           0       -0.974608    1.098675   -1.784934
     14          1           0       -2.480729    1.892337   -1.334895
     15          1           0       -3.444794   -0.094382   -0.506063
     16          1           0       -2.299827   -0.913692   -1.572443
     17          1           0       -0.616237    0.144809    2.000451
     18          1           0       -2.318021    0.614887    1.893569
     19          1           0       -0.279595   -2.109630    1.155408
     20          1           0       -0.951693   -2.493743   -0.426376
     21          1           0        0.509214   -0.709831   -1.489175
     22          1           0        1.925202   -1.133659    1.197647
     23          1           0        3.862227   -0.728913   -0.426976
     24          1           0        2.746063    0.108140   -1.519753
     25          1           0        2.493995    1.618472    0.297436
 ---------------------------------------------------------------------

 SCF Done:  E(UB3LYP) =  -443.962760206     A.U. after   32 cycles

 The electronic state is 2-A.
 Alpha  occ. eigenvalues --  -19.02022 -14.19513 -10.11652 -10.09410 -10.08066
 Alpha  occ. eigenvalues --  -10.08013 -10.06997 -10.06912 -10.05297 -10.05274
 Alpha  occ. eigenvalues --   -0.91966  -0.82443  -0.69751  -0.66048  -0.61358
 Alpha  occ. eigenvalues --   -0.60348  -0.54527  -0.47279  -0.47061  -0.45483
 Alpha  occ. eigenvalues --   -0.41090  -0.38630  -0.36819  -0.36393  -0.33778
 Alpha  occ. eigenvalues --   -0.32925  -0.31799  -0.31145  -0.28914  -0.26820
 Alpha  occ. eigenvalues --   -0.25426  -0.24563  -0.23616  -0.23461  -0.23049
 Alpha  occ. eigenvalues --   -0.20982  -0.18380  -0.16153  -0.10921   0.04955
 Alpha virt. eigenvalues --    0.07257   0.07596   0.08033   0.09105   0.09630
 Alpha virt. eigenvalues --    0.10094   0.10359   0.10810   0.11200   0.12845
 Alpha virt. eigenvalues --    0.12902   0.13654   0.14093   0.14488   0.15751

  Beta  occ. eigenvalues --  -19.01987 -14.19509 -10.11629 -10.09398 -10.08047
  Beta  occ. eigenvalues --  -10.07988 -10.06978 -10.06889 -10.05266 -10.05246
  Beta  occ. eigenvalues --   -0.91887  -0.82426  -0.69700  -0.66001  -0.61309
  Beta  occ. eigenvalues --   -0.60286  -0.54461  -0.47211  -0.46981  -0.45404
  Beta  occ. eigenvalues --   -0.41027  -0.38590  -0.36775  -0.36331  -0.33719
  Beta  occ. eigenvalues --   -0.32879  -0.31764  -0.31090  -0.28882  -0.26762
  Beta  occ. eigenvalues --   -0.25379  -0.24532  -0.23575  -0.23411  -0.22991
  Beta  occ. eigenvalues --   -0.20942  -0.18336  -0.16053  -0.10893
  Beta virt. eigenvalues --    0.07372   0.07884   0.08359   0.08682   0.09604
  Beta virt. eigenvalues --    0.10057   0.10560   0.10943   0.11345   0.11580
  Beta virt. eigenvalues --    0.13142   0.13316   0.14110   0.14407   0.14859

 Mulliken charges and spin densities:
               1          2
     1  C   -0.441112   0.329856
     2  C    0.911348  -1.300209
     3  C    0.002072  -0.347524
     4  N    0.078155   0.123972
     5  C    0.493476  -0.860542
     6  C    0.057298  -0.824698
     7  C    0.181402   0.146532
     8  C   -0.740014   0.671011
     9  C    1.393519  -1.980659
    10  O   -0.294302   0.067854
    11  H    0.401443  -0.330210
    12  H   -0.831580   1.020187
    13  H   -0.358877   0.515022
    14  H   -0.259536   0.407775
    15  H   -0.214919   0.370458
    16  H   -0.315020   0.472740
    17  H   -0.033430   0.170090
    18  H   -0.031373   0.195455
    19  H    0.138605   0.019921
    20  H   -0.321681   0.483301
    21  H   -0.099189   0.239305
    22  H   -0.113519   0.258985
    23  H   -0.007692   0.144382
    24  H   -0.521971   0.700950
    25  H   -0.073103   0.306043
 Sum of Mulliken charges =  -1.00000   1.00000

 Dipole moment (field-independent basis, Debye):
    X=              1.3777    Y=             -3.3739    Z=              2.5846  Tot=              4.4678
 Quadrupole moment (field-independent basis, Debye-Ang):
   XX=           -122.6984   YY=           -103.5415   ZZ=            -99.0961
   XY=             -0.0511   XZ=              0.2525   YZ=             -3.8912

 Summary of Natural Population Analysis:

                                       Natural Population
                Natural  -----------------------------------------------
    Atom  No    Charge         Core      Valence    Rydberg      Total
 -----------------------------------------------------------------------
      C    1   -0.20331      0.99964     2.19508    0.00858     3.20331
      C    2   -0.20268      0.99964     2.19532    0.00771     3.20268
      C    3   -0.08815      0.99963     2.07693    0.01159     3.08815
      N    4   -0.27555      0.99975     2.76254    0.01326     3.77555
      C    5   -0.08754      0.99962     2.07668    0.01123     3.08754
      C    6   -0.09871      0.99959     2.08562    0.01350     3.09871
      C    7   -0.08905      0.99950     2.07907    0.01048     3.08905
      C    8   -0.11205      0.99950     2.10352    0.00903     3.11205
      C    9   -0.02518      0.99958     2.01166    0.01394     3.02518
      O   10   -0.36685      0.99990     3.36045    0.00650     4.36685
      H   11    0.09611      0.00000     0.40167    0.00223     0.40389
      H   12    0.10055      0.00000     0.39754    0.00192     0.39945
      H   13    0.09833      0.00000     0.39945    0.00222     0.40167
      H   14    0.10003      0.00000     0.39818    0.00179     0.39997
      H   15    0.09226      0.00000     0.40626    0.00148     0.40774
      H   16    0.09769      0.00000     0.40058    0.00173     0.40231
      H   17    0.09627      0.00000     0.40255    0.00118     0.40373
      H   18    0.09242      0.00000     0.40621    0.00137     0.40758
      H   19    0.09313      0.00000     0.40557    0.00130     0.40687
      H   20    0.09926      0.00000     0.39948    0.00126     0.40074
      H   21    0.09553      0.00000     0.40224    0.00222     0.40447
      H   22    0.09110      0.00000     0.40758    0.00132     0.40890
      H   23    0.08599      0.00000     0.41274    0.00127     0.41401
      H   24    0.08073      0.00000     0.41741    0.00186     0.41927
      H   25    0.22968      0.00000     0.26645    0.00387     0.27032
 =======================================================================
   * Total *   -0.00000      9.99637    28.87079    0.13285    39.00000

 Normal termination of Gaussian 16 at Tue Dec  8 10:54:56 2020.
