 Gaussian 16, Revision A.03,

 -----------------------------------------------------------
 # opt freq B3LYP/6-31G(d) empiricaldispersion=gd3bj scf=xqc
 -----------------------------------------------------------

 ------------------------------
 CID_130036362_JID_627_neutraal
 ------------------------------
 Symbolic Z-matrix:
 Charge =  0 Multiplicity = 1

 SCF Done:  E(RB3LYP) =  -535.541460878     A.U. after   14 cycles
 SCF Done:  E(RB3LYP) =  -535.544153088     A.U. after   12 cycles
 SCF Done:  E(RB3LYP) =  -535.543923889     A.U. after   12 cycles
 SCF Done:  E(RB3LYP) =  -535.544697228     A.U. after   10 cycles
 SCF Done:  E(RB3LYP) =  -535.544737883     A.U. after   10 cycles
 SCF Done:  E(RB3LYP) =  -535.544745144     A.U. after    9 cycles
 SCF Done:  E(RB3LYP) =  -535.544746516     A.U. after    9 cycles
 SCF Done:  E(RB3LYP) =  -535.544747109     A.U. after    8 cycles
 SCF Done:  E(RB3LYP) =  -535.544747740     A.U. after    9 cycles
 SCF Done:  E(RB3LYP) =  -535.544747975     A.U. after    8 cycles
 SCF Done:  E(RB3LYP) =  -535.544748051     A.U. after    8 cycles
 Optimization completed.
    -- Stationary point found.

 1\1\GINC-NODE316\FOpt\RB3LYP\6-31G(d)\C6H10O4\VSC10255\08-Dec-2020\0\\
 # opt freq B3LYP/6-31G(d) empiricaldispersion=gd3bj scf=xqc\\CID_13003
 6362_JID_627_neutraal\\0,1\C,1.0942200188,0.0349174345,-0.076565315\C,
 1.0823757194,1.3240409975,0.7246826034\C,0.4174435132,1.1853902208,2.1
 014187145\C,0.5141483041,2.5122967831,2.8605041504\C,0.0982839201,3.70
 56637837,1.9918369304\O,-0.3373858239,4.7290611748,2.4815715719\C,0.42
 19757314,3.6015196488,0.5031630255\O,0.2963902356,2.2821645463,-0.0122
 217307\O,1.8925988997,2.7266558352,3.1870000721\O,-0.948742802,0.82820

 Normal termination of Gaussian 16 at Tue Dec  8 12:23:05 2020.

 --------------------------------------------------------------------
 #N Geom=AllCheck Guess=TCheck SCRF=Check GenChk RB3LYP/6-31G(d) Freq
 --------------------------------------------------------------------

 Structure from the checkpoint file:  "JID_627.chk"
 ------------------------------
 CID_130036362_JID_627_neutraal
 ------------------------------
 Charge =  0 Multiplicity = 1

 SCF Done:  E(RB3LYP) =  -535.544748051     A.U. after    1 cycles

  Exact polarizability:  82.183   2.317  69.136   2.312   1.191  63.030
 Approx polarizability: 110.085   4.252  97.082   4.290   5.070  97.738

                      1                      2                      3
                      A                      A                      A
 Frequencies --     54.6792               114.8908               188.7629
 Red. masses --      5.8942                 4.1691                 4.1151
 Frc consts  --      0.0104                 0.0324                 0.0864
 IR Inten    --      6.8532                 1.5884                 2.3276

                      4                      5                      6
                      A                      A                      A
 Frequencies --    207.8868               221.2160               258.8640
 Red. masses --      2.2095                 1.5682                 3.5169
 Frc consts  --      0.0563                 0.0452                 0.1389
 IR Inten    --      5.3533                 1.0976                 5.9592

                      7                      8                      9
                      A                      A                      A
 Frequencies --    291.4726               320.6307               385.3316
 Red. masses --      2.8755                 4.4041                 1.1610
 Frc consts  --      0.1439                 0.2668                 0.1016
 IR Inten    --      4.1633                 6.7116               115.7173

                     10                     11                     12
                      A                      A                      A
 Frequencies --    414.7625               438.2125               466.8598
 Red. masses --      4.0997                 4.5446                 5.6647
 Frc consts  --      0.4155                 0.5142                 0.7275
 IR Inten    --      4.2806                38.2077                 6.4583

                     13                     14                     15
                      A                      A                      A
 Frequencies --    504.6849               540.8273               623.1388
 Red. masses --      1.2284                 2.5497                 3.4675
 Frc consts  --      0.1844                 0.4394                 0.7933
 IR Inten    --     55.3911                45.8120                14.9540

                     16                     17                     18
                      A                      A                      A
 Frequencies --    671.9348               724.5947               775.9825
 Red. masses --      3.4137                 4.3857                 2.9940
 Frc consts  --      0.9081                 1.3567                 1.0622
 IR Inten    --      9.2676                 4.9034                 5.5625

                     19                     20                     21
                      A                      A                      A
 Frequencies --    853.9765               902.2630              1008.7632
 Red. masses --      3.1161                 2.2693                 2.3320
 Frc consts  --      1.3389                 1.0885                 1.3982
 IR Inten    --     17.4504                 5.7971                 2.0495

                     22                     23                     24
                      A                      A                      A
 Frequencies --   1026.3775              1047.0494              1068.5983
 Red. masses --      1.9835                 1.9016                 4.8539
 Frc consts  --      1.2311                 1.2283                 3.2656
 IR Inten    --     42.2947                16.2498                61.5987

                     25                     26                     27
                      A                      A                      A
 Frequencies --   1081.5070              1119.7314              1127.3586
 Red. masses --      2.6868                 4.9376                 1.9487
 Frc consts  --      1.8516                 3.6475                 1.4592
 IR Inten    --      7.2137               143.9850                82.8562

                     28                     29                     30
                      A                      A                      A
 Frequencies --   1175.1015              1210.3584              1233.9195
 Red. masses --      1.9257                 2.2549                 1.4376
 Frc consts  --      1.5667                 1.9463                 1.2896
 IR Inten    --      4.7275                14.9076                 2.8467

                     31                     32                     33
                      A                      A                      A
 Frequencies --   1282.4391              1294.4426              1318.7579
 Red. masses --      1.1833                 1.6839                 1.3558
 Frc consts  --      1.1466                 1.6624                 1.3892
 IR Inten    --     10.6126                56.4703                20.4980

                     34                     35                     36
                      A                      A                      A
 Frequencies --   1358.7624              1379.7423              1396.5402
 Red. masses --      1.3521                 1.3371                 1.3519
 Frc consts  --      1.4707                 1.4997                 1.5535
 IR Inten    --      6.9783                 9.7313                 3.9208

                     37                     38                     39
                      A                      A                      A
 Frequencies --   1403.9318              1416.8540              1443.0021
 Red. masses --      1.3024                 1.5947                 1.3601
 Frc consts  --      1.5125                 1.8861                 1.6686
 IR Inten    --      8.3636                15.2911                14.0447

                     40                     41                     42
                      A                      A                      A
 Frequencies --   1451.4094              1489.6041              1518.0355
 Red. masses --      1.3838                 1.0919                 1.0509
 Frc consts  --      1.7175                 1.4275                 1.4268
 IR Inten    --     54.1635                13.9148                 9.7980

                     43                     44                     45
                      A                      A                      A
 Frequencies --   1527.7247              1824.2910              2993.0735
 Red. masses --      1.0533                11.7951                 1.0702
 Frc consts  --      1.4484                23.1281                 5.6489
 IR Inten    --      2.1609               143.4608                27.4914

                     46                     47                     48
                      A                      A                      A
 Frequencies --   3041.6366              3068.5860              3070.9848
 Red. masses --      1.0846                 1.0357                 1.0862
 Frc consts  --      5.9122                 5.7461                 6.0356
 IR Inten    --     20.3321                12.5173                30.4797

                     49                     50                     51
                      A                      A                      A
 Frequencies --   3094.8987              3139.9998              3140.3346
 Red. masses --      1.0866                 1.0941                 1.1006
 Frc consts  --      6.1324                 6.3557                 6.3950
 IR Inten    --     28.2221                21.3102                 8.9255

                     52                     53                     54
                      A                      A                      A
 Frequencies --   3151.0960              3672.8816              3737.0813
 Red. masses --      1.1037                 1.0650                 1.0665
 Frc consts  --      6.4568                 8.4649                 8.7759
 IR Inten    --     16.5413                30.9383                29.0361

 - Thermochemistry -
 -------------------
 Temperature   298.150 Kelvin.  Pressure   1.00000 Atm.
 Atom     1 has atomic number  6 and mass  12.00000

 Molecular mass:   146.05791 amu.
 Principal axes and moments of inertia in atomic units:
                           1         2         3
     Eigenvalues --   886.605291604.649981809.38158
           X            0.99996  -0.00721   0.00551
           Y            0.00730   0.99983  -0.01710
           Z           -0.00539   0.01714   0.99984
 This molecule is an asymmetric top.
 Rotational symmetry number  1.
 Warning -- assumption of classical behavior for rotation
           may cause significant error
 Rotational temperatures (Kelvin)      0.09769     0.05398     0.04787
 Rotational constants (GHZ):           2.03556     1.12469     0.99744
 Zero-point vibrational energy     432305.6 (Joules/Mol)
                                  103.32351 (Kcal/Mol)
 Warning -- explicit consideration of  14 degrees of freedom as
           vibrations may cause significant error
 Vibrational temperatures:     78.67   165.30   271.59   299.10   318.28
          (Kelvin)            372.45   419.36   461.32   554.41   596.75
                              630.49   671.71   726.13   778.13   896.56
                              966.76  1042.53  1116.47  1228.68  1298.16
                             1451.39  1476.73  1506.47  1537.47  1556.05
                             1611.04  1622.02  1690.71  1741.44  1775.33
                             1845.14  1862.41  1897.40  1954.96  1985.14
                             2009.31  2019.94  2038.54  2076.16  2088.25
                             2143.21  2184.11  2198.06  2624.75  4306.37
                             4376.24  4415.01  4418.46  4452.87  4517.76
                             4518.24  4533.72  5284.46  5376.83

 Zero-point correction=                           0.164656 (Hartree/Particle)
 Thermal correction to Energy=                    0.174463
 Thermal correction to Enthalpy=                  0.175407
 Thermal correction to Gibbs Free Energy=         0.129868
 Sum of electronic and zero-point Energies=           -535.380092
 Sum of electronic and thermal Energies=              -535.370285
 Sum of electronic and thermal Enthalpies=            -535.369341
 Sum of electronic and thermal Free Energies=         -535.414880

                     E (Thermal)             CV                S
                      KCal/Mol        Cal/Mol-Kelvin    Cal/Mol-Kelvin
 Total                  109.477             37.080             95.846
 Electronic               0.000              0.000              0.000
 Translational            0.889              2.981             40.847
 Rotational               0.889              2.981             29.333
 Vibrational            107.700             31.118             25.666
 Vibration     1          0.596              1.976              4.641
 Vibration     2          0.608              1.937              3.185
 Vibration     3          0.633              1.855              2.240
 Vibration     4          0.641              1.829              2.062
 Vibration     5          0.648              1.809              1.949
 Vibration     6          0.668              1.748              1.669
 Vibration     7          0.687              1.690              1.465
 Vibration     8          0.706              1.634              1.307
 Vibration     9          0.754              1.501              1.018
 Vibration    10          0.778              1.438              0.910
 Vibration    11          0.798              1.387              0.832
 Vibration    12          0.824              1.324              0.746
 Vibration    13          0.860              1.240              0.647
 Vibration    14          0.896              1.160              0.564

 Optimization completed.
    -- Stationary point found.

 1\1\GINC-NODE316\Freq\RB3LYP\6-31G(d)\C6H10O4\VSC10255\08-Dec-2020\0\\
 #N Geom=AllCheck Guess=TCheck SCRF=Check GenChk RB3LYP/6-31G(d) Freq\\
 CID_130036362_JID_627_neutraal\\0,1\C,1.0942200188,0.0349174345,-0.076
 565315\C,1.0823757194,1.3240409975,0.7246826034\C,0.4174435132,1.18539
 02208,2.1014187145\C,0.5141483041,2.5122967831,2.8605041504\C,0.098283
 9201,3.7056637837,1.9918369304\O,-0.3373858239,4.7290611748,2.48157157
 19\C,0.4219757314,3.6015196488,0.5031630255\O,0.2963902356,2.282164546
 3,-0.0122217307\O,1.8925988997,2.7266558352,3.1870000721\O,-0.94874280

 Normal termination of Gaussian 16 at Tue Dec  8 12:27:36 2020.

 ----------------------------------------------------------------------
 # B3LYP/6-311++G(d,p) empiricaldispersion=gd3bj scf=xqc pop=npa geom=c
 heck
 ----------------------------------------------------------------------

 --------------------------------------
 CID_130036362_JID_627_Energie_neutraal
 --------------------------------------
 Structure from the checkpoint file:  "JID_627.chk"
 Charge =  0 Multiplicity = 1

 SCF Done:  E(RB3LYP) =  -535.722913481     A.U. after   14 cycles
 Normal termination of Gaussian 16 at Tue Dec  8 12:30:12 2020.

 ----------------------------------------------------------------------
 # B3LYP/6-311++G(d,p) empiricaldispersion=gd3bj scf=xqc pop=npa geom=c
 heck
 ----------------------------------------------------------------------

 ------------------------------------
 CID_130036362_JID_627_Energie_kation
 ------------------------------------
 Structure from the checkpoint file:  "JID_627.chk"
 Charge =  1 Multiplicity = 2

 SCF Done:  E(UB3LYP) =  -535.385303841     A.U. after   24 cycles
 Normal termination of Gaussian 16 at Tue Dec  8 12:39:41 2020.
 Gaussian 16:  ES64L-G16RevA.03 25-Dec-2016

 -----------------------------------
 CID_130036362_JID_627_Energie_anion
 -----------------------------------
 Structure from the checkpoint file:  "JID_627.chk"
 Charge = -1 Multiplicity = 2

                         Standard orientation:
 ---------------------------------------------------------------------
 Center     Atomic      Atomic             Coordinates (Angstroms)
 Number     Number       Type             X           Y           Z
 ---------------------------------------------------------------------
      1          6           0       -2.779314    0.158038   -0.441875
      2          6           0       -1.265098    0.128771   -0.543222
      3          6           0       -0.615491   -0.987725    0.286362
      4          6           0        0.900570   -0.981678    0.067807
      5          6           0        1.495493    0.426488    0.189408
      6          8           0        2.654221    0.603058    0.510598
      7          6           0        0.607396    1.576684   -0.279744
      8          8           0       -0.773212    1.373287   -0.006539
      9          8           0        1.146734   -1.396001   -1.281421
     10          8           0       -0.892237   -0.796643    1.666018
     11          1           0       -3.176203    1.033043   -0.963920
     12          1           0       -3.092334    0.196775    0.605041
     13          1           0       -3.202515   -0.744635   -0.894417
     14          1           0       -0.948276    0.034382   -1.591254
     15          1           0       -1.010112   -1.967569   -0.000847
     16          1           0        1.388159   -1.642400    0.794259
     17          1           0        0.769504    1.702661   -1.363806
     18          1           0        0.913110    2.496742    0.223080
     19          1           0        2.108801   -1.470997   -1.388049
     20          1           0       -0.895516    0.168923    1.798247
 ---------------------------------------------------------------------

 SCF Done:  E(UB3LYP) =  -535.717300054     A.U. after   31 cycles

 The electronic state is 2-A.
 Alpha  occ. eigenvalues --  -19.00547 -19.00437 -18.99757 -18.94241 -10.10085
 Alpha  occ. eigenvalues --  -10.09717 -10.08751 -10.08434 -10.07312 -10.04102
 Alpha  occ. eigenvalues --   -0.92937  -0.90646  -0.89416  -0.87730  -0.66029
 Alpha  occ. eigenvalues --   -0.62395  -0.56482  -0.51305  -0.48216  -0.42285
 Alpha  occ. eigenvalues --   -0.39485  -0.37601  -0.36238  -0.34666  -0.33259
 Alpha  occ. eigenvalues --   -0.31273  -0.29545  -0.27761  -0.27153  -0.26792
 Alpha  occ. eigenvalues --   -0.25227  -0.23959  -0.21729  -0.21542  -0.19512
 Alpha  occ. eigenvalues --   -0.17346  -0.17192  -0.14328  -0.08710   0.05698
 Alpha virt. eigenvalues --    0.08151   0.09433   0.10184   0.10645   0.11731
 Alpha virt. eigenvalues --    0.12441   0.13221   0.13467   0.13830   0.15730
 Alpha virt. eigenvalues --    0.16648   0.17660   0.18667   0.19292   0.19781

  Beta  occ. eigenvalues --  -19.00515 -19.00306 -18.99712 -18.93730 -10.10084
  Beta  occ. eigenvalues --  -10.09710 -10.08764 -10.08467 -10.06861 -10.04054
  Beta  occ. eigenvalues --   -0.92810  -0.90342  -0.89292  -0.86850  -0.65976
  Beta  occ. eigenvalues --   -0.62082  -0.56249  -0.51134  -0.47955  -0.41928
  Beta  occ. eigenvalues --   -0.39385  -0.37447  -0.36088  -0.34386  -0.32764
  Beta  occ. eigenvalues --   -0.31125  -0.29363  -0.27336  -0.26916  -0.26627
  Beta  occ. eigenvalues --   -0.25111  -0.23499  -0.21465  -0.20421  -0.18774
  Beta  occ. eigenvalues --   -0.17065  -0.16834  -0.14220  -0.08346
  Beta virt. eigenvalues --    0.08637   0.09343   0.10396   0.10827   0.11752
  Beta virt. eigenvalues --    0.12468   0.12813   0.13436   0.13815   0.14441
  Beta virt. eigenvalues --    0.16117   0.16670   0.17802   0.18705   0.19274

 Mulliken charges and spin densities:
               1          2
     1  C    1.575814  -2.057512
     2  C   -1.491149   1.168868
     3  C    0.141112  -0.226203
     4  C   -0.242010  -0.059135
     5  C   -0.340341   0.478422
     6  O   -0.393901   0.167695
     7  C    0.335167  -0.466309
     8  O   -0.161937   0.074435
     9  O   -0.163776  -0.016066
    10  O   -0.166404   0.004218
    11  H   -0.574441   0.733331
    12  H   -0.125264   0.259749
    13  H   -0.248634   0.378509
    14  H    0.132154   0.054246
    15  H    0.160022   0.035483
    16  H    0.198645   0.004619
    17  H   -0.226399   0.399796
    18  H    0.195574  -0.027060
    19  H    0.210054   0.040133
    20  H    0.185715   0.052782
 Sum of Mulliken charges =  -1.00000   1.00000

 Dipole moment (field-independent basis, Debye):
    X=              1.5739    Y=             -2.0438    Z=              0.1273  Tot=              2.5827
 Quadrupole moment (field-independent basis, Debye-Ang):
   XX=           -105.9806   YY=            -79.3668   ZZ=            -81.1642
   XY=             -0.6093   XZ=             -7.2561   YZ=              4.5561

 Summary of Natural Population Analysis:

                                       Natural Population
                Natural  -----------------------------------------------
    Atom  No    Charge         Core      Valence    Rydberg      Total
 -----------------------------------------------------------------------
      C    1   -0.29156      0.99964     2.28530    0.00662     3.29156
      C    2    0.04998      0.99954     1.93570    0.01479     2.95002
      C    3    0.05026      0.99951     1.93455    0.01568     2.94974
      C    4    0.01749      0.99950     1.96804    0.01497     2.98251
      C    5    0.31713      0.99967     1.65926    0.02394     2.68287
      O    6   -0.25868      0.99988     3.25123    0.00757     4.25868
      C    7   -0.05601      0.99953     2.04254    0.01394     3.05601
      O    8   -0.31106      0.99989     3.30072    0.01045     4.31106
      O    9   -0.36795      0.99989     3.36185    0.00621     4.36795
      O   10   -0.37468      0.99990     3.36849    0.00629     4.37468
      H   11    0.10481      0.00000     0.39271    0.00248     0.39519
      H   12    0.10267      0.00000     0.39584    0.00149     0.39733
      H   13    0.09936      0.00000     0.39954    0.00110     0.40064
      H   14    0.09328      0.00000     0.40519    0.00153     0.40672
      H   15    0.08729      0.00000     0.41110    0.00160     0.41271
      H   16    0.08617      0.00000     0.41207    0.00176     0.41383
      H   17    0.09076      0.00000     0.40706    0.00218     0.40924
      H   18    0.09647      0.00000     0.40227    0.00125     0.40353
      H   19    0.23018      0.00000     0.26723    0.00260     0.26982
      H   20    0.23410      0.00000     0.26279    0.00311     0.26590
 =======================================================================
   * Total *   -0.00000      9.99695    28.86348    0.13957    39.00000

 Normal termination of Gaussian 16 at Tue Dec  8 12:48:48 2020.
