 Gaussian 16, Revision A.03,

 -----------------------------------------------------------
 # opt freq B3LYP/6-31G(d) empiricaldispersion=gd3bj scf=xqc
 -----------------------------------------------------------

 ------------------------------
 CID_57092394_JID_6939_neutraal
 ------------------------------
 Symbolic Z-matrix:
 Charge =  0 Multiplicity = 1

 SCF Done:  E(RB3LYP) =  -1028.90434911     A.U. after   16 cycles
 SCF Done:  E(RB3LYP) =  -1028.92747596     A.U. after   13 cycles
 SCF Done:  E(RB3LYP) =  -1028.93218225     A.U. after   13 cycles
 SCF Done:  E(RB3LYP) =  -1028.93248087     A.U. after   13 cycles
 SCF Done:  E(RB3LYP) =  -1028.93231030     A.U. after   13 cycles
 SCF Done:  E(RB3LYP) =  -1028.93272578     A.U. after   13 cycles
 SCF Done:  E(RB3LYP) =  -1028.93281103     A.U. after   11 cycles
 SCF Done:  E(RB3LYP) =  -1028.93285632     A.U. after   11 cycles
 SCF Done:  E(RB3LYP) =  -1028.93286406     A.U. after   10 cycles
 SCF Done:  E(RB3LYP) =  -1028.93286564     A.U. after    9 cycles
 SCF Done:  E(RB3LYP) =  -1028.93286584     A.U. after    8 cycles
 Optimization completed.
    -- Stationary point found.
 Normal termination of Gaussian 16 at Fri Dec 11 01:13:34 2020.

 --------------------------------------------------------------------
 #N Geom=AllCheck Guess=TCheck SCRF=Check GenChk RB3LYP/6-31G(d) Freq
 --------------------------------------------------------------------

 Structure from the checkpoint file:  "JID_6939.chk"
 ------------------------------
 CID_57092394_JID_6939_neutraal
 ------------------------------
 Charge =  0 Multiplicity = 1

 SCF Done:  E(RB3LYP) =  -1028.93286584     A.U. after    1 cycles

  Exact polarizability: 221.706  -0.322 193.617  -1.174   7.694  82.326
 Approx polarizability: 425.628  -7.631 349.976  -3.388  22.251 137.172

                      1                      2                      3
                      A                      A                      A
 Frequencies --     69.6341                86.8743               112.1327
 Red. masses --      5.2979                 4.9934                 4.5609
 Frc consts  --      0.0151                 0.0222                 0.0338
 IR Inten    --      1.5194                 0.1811                 1.0046

                      4                      5                      6
                      A                      A                      A
 Frequencies --    132.5464               162.7941               193.5495
 Red. masses --      6.3046                 1.0810                 3.8816
 Frc consts  --      0.0653                 0.0169                 0.0857
 IR Inten    --      5.0110                 1.3277                 7.7718

                      7                      8                      9
                      A                      A                      A
 Frequencies --    201.8974               243.2767               281.5340
 Red. masses --      3.6626                 4.4113                 4.8228
 Frc consts  --      0.0880                 0.1538                 0.2252
 IR Inten    --      5.5791                 0.6157                 1.3193

                     10                     11                     12
                      A                      A                      A
 Frequencies --    329.4400               354.4291               361.4728
 Red. masses --      4.6916                 4.8898                 5.3468
 Frc consts  --      0.3000                 0.3619                 0.4116
 IR Inten    --      0.5403                 2.3851                 1.3653

                     13                     14                     15
                      A                      A                      A
 Frequencies --    411.8412               444.0031               465.3797
 Red. masses --      7.0253                 3.7301                 4.6100
 Frc consts  --      0.7021                 0.4332                 0.5883
 IR Inten    --      3.4582                 1.8904                 0.8514

                     16                     17                     18
                      A                      A                      A
 Frequencies --    469.8661               495.5678               516.0607
 Red. masses --      4.5901                 4.9109                 4.9584
 Frc consts  --      0.5971                 0.7106                 0.7780
 IR Inten    --      3.7562                 2.5970                 2.3811

                     19                     20                     21
                      A                      A                      A
 Frequencies --    549.1159               600.9218               629.7460
 Red. masses --      4.6115                 4.4029                 5.8021
 Frc consts  --      0.8193                 0.9367                 1.3557
 IR Inten    --      4.5001                 4.4194                 3.5298

                     22                     23                     24
                      A                      A                      A
 Frequencies --    653.2205               700.0514               726.9448
 Red. masses --      6.6426                 4.9974                 4.0489
 Frc consts  --      1.6700                 1.4429                 1.2606
 IR Inten    --     39.6286                 7.8247                19.4426

                     25                     26                     27
                      A                      A                      A
 Frequencies --    728.8350               774.8588               804.7620
 Red. masses --      5.5554                 2.7973                 1.7146
 Frc consts  --      1.7387                 0.9895                 0.6542
 IR Inten    --      3.1444                 9.9324                34.3087

                     28                     29                     30
                      A                      A                      A
 Frequencies --    846.2738               848.1641               879.1265
 Red. masses --      6.1760                 2.6179                 1.5438
 Frc consts  --      2.6060                 1.1096                 0.7030
 IR Inten    --      0.9806                12.9577                22.7837

                     31                     32                     33
                      A                      A                      A
 Frequencies --    906.1953               915.1020               930.0339
 Red. masses --      5.3045                 2.5297                 1.4365
 Frc consts  --      2.5665                 1.2481                 0.7321
 IR Inten    --     23.5225                43.0592                 4.1037

                     34                     35                     36
                      A                      A                      A
 Frequencies --    984.3968              1012.9402              1021.6690
 Red. masses --      1.3066                 1.7252                 1.7437
 Frc consts  --      0.7460                 1.0429                 1.0724
 IR Inten    --      1.3586                 0.3881                17.7460

                     37                     38                     39
                      A                      A                      A
 Frequencies --   1067.1606              1082.6446              1103.1435
 Red. masses --      2.2544                 2.2235                 1.9540
 Frc consts  --      1.5126                 1.5355                 1.4010
 IR Inten    --      9.3740                 4.3641                 9.8524

                     40                     41                     42
                      A                      A                      A
 Frequencies --   1145.6094              1196.3992              1208.6824
 Red. masses --      7.2405                 1.1831                 2.3865
 Frc consts  --      5.5988                 0.9977                 2.0542
 IR Inten    --      7.7117                 2.3329                 2.7706

                     43                     44                     45
                      A                      A                      A
 Frequencies --   1227.0705              1256.0730              1317.0008
 Red. masses --      3.0645                 2.6683                 4.0394
 Frc consts  --      2.7186                 2.4804                 4.1279
 IR Inten    --     58.3971                56.4038                91.1974

                     46                     47                     48
                      A                      A                      A
 Frequencies --   1348.9520              1360.8523              1385.3594
 Red. masses --      5.5816                 1.5303                 1.5197
 Frc consts  --      5.9841                 1.6698                 1.7184
 IR Inten    --      4.1746                 7.5624                12.2634

                     49                     50                     51
                      A                      A                      A
 Frequencies --   1410.9624              1432.4704              1434.2421
 Red. masses --      1.3442                 1.3542                 2.5344
 Frc consts  --      1.5767                 1.6372                 3.0717
 IR Inten    --      0.5120                 5.2842                 4.4675

                     52                     53                     54
                      A                      A                      A
 Frequencies --   1477.9111              1498.2137              1508.7015
 Red. masses --      2.4655                 1.0947                 1.0634
 Frc consts  --      3.1729                 1.4477                 1.4262
 IR Inten    --     21.1280                 7.2316                 9.0101

                     55                     56                     57
                      A                      A                      A
 Frequencies --   1580.1187              1602.4533              1620.5719
 Red. masses --      5.2547                 8.2788                 6.4396
 Frc consts  --      7.7300                12.5254                 9.9642
 IR Inten    --     15.6525                41.9619                 9.8227

                     58                     59                     60
                      A                      A                      A
 Frequencies --   1626.5241              1643.4595              1776.6053
 Red. masses --      5.8026                 8.4810                 9.8946
 Frc consts  --      9.0447                13.4963                18.4006
 IR Inten    --     34.9163                 8.2970               393.5076

                     61                     62                     63
                      A                      A                      A
 Frequencies --   2945.0396              3038.1542              3089.0773
 Red. masses --      1.0845                 1.0369                 1.0998
 Frc consts  --      5.5421                 5.6392                 6.1834
 IR Inten    --     82.5110                18.0254                12.1556

                     64                     65                     66
                      A                      A                      A
 Frequencies --   3120.1029              3135.9081              3141.6560
 Red. masses --      1.0864                 1.1009                 1.0898
 Frc consts  --      6.2315                 6.3783                 6.3372
 IR Inten    --      9.1482                 8.3185                47.1495

                     67                     68                     69
                      A                      A                      A
 Frequencies --   3199.3373              3214.6217              3226.9824
 Red. masses --      1.0869                 1.0935                 1.0939
 Frc consts  --      6.5549                 6.6578                 6.7114
 IR Inten    --      2.9164                11.4905                 8.7350

 - Thermochemistry -
 -------------------
 Temperature   298.150 Kelvin.  Pressure   1.00000 Atm.
 Atom     1 has atomic number  6 and mass  12.00000

 Molecular mass:   227.04049 amu.
 Principal axes and moments of inertia in atomic units:
                           1         2         3
     Eigenvalues --  2493.007553716.178285724.10294
           X            0.99991   0.01268   0.00500
           Y           -0.01263   0.99988  -0.00873
           Z           -0.00511   0.00866   0.99995
 This molecule is an asymmetric top.
 Rotational symmetry number  1.
 Warning -- assumption of classical behavior for rotation
           may cause significant error
 Rotational temperatures (Kelvin)      0.03474     0.02331     0.01513
 Rotational constants (GHZ):           0.72392     0.48564     0.31529
 Zero-point vibrational energy     486082.9 (Joules/Mol)
                                  116.17661 (Kcal/Mol)
 Warning -- explicit consideration of  20 degrees of freedom as
           vibrations may cause significant error
 Vibrational temperatures:    100.19   124.99   161.33   190.70   234.22
          (Kelvin)            278.47   290.49   350.02   405.06   473.99
                              509.94   520.08   592.55   638.82   669.58
                              676.03   713.01   742.50   790.06   864.59
                              906.06   939.84  1007.22  1045.91  1048.63
                             1114.85  1157.87  1217.60  1220.32  1264.87
                             1303.81  1316.63  1338.11  1416.33  1457.40
                             1469.95  1535.41  1557.68  1587.18  1648.28
                             1721.35  1739.02  1765.48  1807.21  1894.87
                             1940.84  1957.96  1993.22  2030.06  2061.01
                             2063.55  2126.38  2155.60  2170.68  2273.44
                             2305.57  2331.64  2340.21  2364.57  2556.14
                             4237.26  4371.23  4444.49  4489.13  4511.87
                             4520.14  4603.13  4625.12  4642.91

 Zero-point correction=                           0.185139 (Hartree/Particle)
 Thermal correction to Energy=                    0.198004
 Thermal correction to Enthalpy=                  0.198948
 Thermal correction to Gibbs Free Energy=         0.145958
 Sum of electronic and zero-point Energies=          -1028.747727
 Sum of electronic and thermal Energies=             -1028.734862
 Sum of electronic and thermal Enthalpies=           -1028.733918
 Sum of electronic and thermal Free Energies=        -1028.786908

                     E (Thermal)             CV                S
                      KCal/Mol        Cal/Mol-Kelvin    Cal/Mol-Kelvin
 Total                  124.249             50.668            111.527
 Electronic               0.000              0.000              0.000
 Translational            0.889              2.981             42.162
 Rotational               0.889              2.981             32.339
 Vibrational            122.472             44.707             37.026
 Vibration     1          0.598              1.969              4.164
 Vibration     2          0.601              1.958              3.729
 Vibration     3          0.607              1.939              3.232
 Vibration     4          0.613              1.921              2.909
 Vibration     5          0.623              1.888              2.517
 Vibration     6          0.635              1.849              2.194
 Vibration     7          0.639              1.837              2.116
 Vibration     8          0.659              1.774              1.779
 Vibration     9          0.681              1.708              1.524
 Vibration    10          0.712              1.617              1.263
 Vibration    11          0.730              1.566              1.146
 Vibration    12          0.736              1.552              1.116
 Vibration    13          0.776              1.445              0.920
 Vibration    14          0.804              1.374              0.814
 Vibration    15          0.823              1.327              0.751
 Vibration    16          0.827              1.317              0.738
 Vibration    17          0.851              1.260              0.669
 Vibration    18          0.871              1.214              0.619
 Vibration    19          0.904              1.142              0.546
 Vibration    20          0.959              1.030              0.448

 Optimization completed.
    -- Stationary point found.
 Normal termination of Gaussian 16 at Fri Dec 11 01:23:09 2020.

 ----------------------------------------------------------------------
 # B3LYP/6-311++G(d,p) empiricaldispersion=gd3bj scf=xqc pop=npa geom=c
 heck
 ----------------------------------------------------------------------

 --------------------------------------
 CID_57092394_JID_6939_Energie_neutraal
 --------------------------------------
 Structure from the checkpoint file:  "JID_6939.chk"
 Charge =  0 Multiplicity = 1

 SCF Done:  E(RB3LYP) =  -1029.11911209     A.U. after   17 cycles
 Normal termination of Gaussian 16 at Fri Dec 11 01:27:50 2020.

 ----------------------------------------------------------------------
 # B3LYP/6-311++G(d,p) empiricaldispersion=gd3bj scf=xqc pop=npa geom=c
 heck
 ----------------------------------------------------------------------

 ------------------------------------
 CID_57092394_JID_6939_Energie_kation
 ------------------------------------
 Structure from the checkpoint file:  "JID_6939.chk"
 Charge =  1 Multiplicity = 2

 SCF Done:  E(UB3LYP) =  -1028.81977294     A.U. after   30 cycles
 Normal termination of Gaussian 16 at Fri Dec 11 01:39:38 2020.
 Gaussian 16:  ES64L-G16RevA.03 25-Dec-2016

 ----------------------------------------------------------------------
 # B3LYP/6-311++G(d,p) empiricaldispersion=gd3bj scf=xqc pop=npa geom=c
 heck
 ----------------------------------------------------------------------

 -----------------------------------
 CID_57092394_JID_6939_Energie_anion
 -----------------------------------
 Structure from the checkpoint file:  "JID_6939.chk"
 Charge = -1 Multiplicity = 2

                         Standard orientation:
 ---------------------------------------------------------------------
 Center     Atomic      Atomic             Coordinates (Angstroms)
 Number     Number       Type             X           Y           Z
 ---------------------------------------------------------------------
      1          6           0        0.984181   -2.209525    1.644043
      2          6           0        1.123942   -2.296194    0.146171
      3          6           0        0.127613   -1.953930   -0.706099
      4          6           0       -0.555699   -0.699637   -0.331709
      5          6           0       -1.855069   -0.292001   -0.180089
      6         16           0       -1.990827    1.426651    0.161303
      7          6           0       -0.243063    1.604284    0.083771
      8          6           0        0.463706    2.799606    0.249085
      9          6           0        1.845990    2.754504    0.134027
     10          6           0        2.512739    1.551453   -0.145165
     11          6           0        1.845829    0.333404   -0.297800
     12          6           0        0.405407    0.371951   -0.180042
     13          7           0        2.740828   -0.751263   -0.567050
     14          6           0        2.474496   -1.999271   -0.402538
     15          6           0       -3.041130   -1.136303   -0.259311
     16          8           0       -4.182230   -0.738902   -0.102319
     17          1           0        1.383448   -3.119932    2.110183
     18          1           0       -0.066106   -2.110705    1.932493
     19          1           0        1.545295   -1.363803    2.061133
     20          1           0        0.318854   -2.045349   -1.776763
     21          1           0       -0.054338    3.732481    0.447876
     22          1           0        2.424509    3.666006    0.249772
     23          1           0        3.592291    1.536675   -0.247369
     24          1           0        3.264336   -2.721336   -0.616065
     25          1           0       -2.816666   -2.200459   -0.480254
 ---------------------------------------------------------------------

 SCF Done:  E(UB3LYP) =  -1029.17145687     A.U. after   26 cycles

 The electronic state is 2-A.
 Alpha  occ. eigenvalues --  -88.73923 -18.96123 -14.18876 -10.10361 -10.08738
 Alpha  occ. eigenvalues --  -10.08404 -10.08308 -10.06141 -10.05919 -10.05656
 Alpha  occ. eigenvalues --  -10.05647 -10.05339 -10.05104 -10.05076 -10.04900
 Alpha  occ. eigenvalues --  -10.04008  -7.82554  -5.78874  -5.78517  -5.78093
 Alpha  occ. eigenvalues --   -0.89610  -0.81072  -0.76059  -0.71249  -0.67636
 Alpha  occ. eigenvalues --   -0.64743  -0.61208  -0.59802  -0.55907  -0.53039
 Alpha  occ. eigenvalues --   -0.51171  -0.46455  -0.43874  -0.42025  -0.40143
 Alpha  occ. eigenvalues --   -0.37184  -0.36083  -0.35603  -0.33436  -0.32948
 Alpha  occ. eigenvalues --   -0.30863  -0.30408  -0.29072  -0.28130  -0.27696
 Alpha  occ. eigenvalues --   -0.26538  -0.26028  -0.25778  -0.23903  -0.23157
 Alpha  occ. eigenvalues --   -0.22395  -0.22183  -0.19613  -0.14923  -0.13096
 Alpha  occ. eigenvalues --   -0.12188  -0.11931  -0.10139  -0.09614   0.00314
 Alpha virt. eigenvalues --    0.07486   0.08192   0.08604   0.08927   0.10043
 Alpha virt. eigenvalues --    0.10505   0.11165   0.11809   0.12145   0.12753
 Alpha virt. eigenvalues --    0.13166   0.13904   0.14083   0.14414   0.15050

  Beta  occ. eigenvalues --  -88.73893 -18.95721 -14.18862 -10.10226 -10.08516
  Beta  occ. eigenvalues --  -10.08299 -10.08255 -10.05971 -10.05912 -10.05564
  Beta  occ. eigenvalues --  -10.05514 -10.05235 -10.05095 -10.04931 -10.04921
  Beta  occ. eigenvalues --  -10.03938  -7.82527  -5.78860  -5.78503  -5.77994
  Beta  occ. eigenvalues --   -0.88896  -0.80806  -0.75874  -0.70969  -0.67395
  Beta  occ. eigenvalues --   -0.64432  -0.60870  -0.59609  -0.55707  -0.52624
  Beta  occ. eigenvalues --   -0.50649  -0.46345  -0.43557  -0.41771  -0.39896
  Beta  occ. eigenvalues --   -0.36963  -0.35924  -0.35377  -0.33261  -0.32716
  Beta  occ. eigenvalues --   -0.30608  -0.30147  -0.28775  -0.27572  -0.27452
  Beta  occ. eigenvalues --   -0.26390  -0.25754  -0.24493  -0.23694  -0.23023
  Beta  occ. eigenvalues --   -0.22146  -0.21622  -0.18709  -0.14383  -0.12862
  Beta  occ. eigenvalues --   -0.11751  -0.11066  -0.09532  -0.08542
  Beta virt. eigenvalues --    0.05227   0.08158   0.08648   0.08701   0.09953
  Beta virt. eigenvalues --    0.10087   0.10523   0.11242   0.11798   0.12397
  Beta virt. eigenvalues --    0.12944   0.13349   0.14033   0.14364   0.14793

 Mulliken charges and spin densities:
               1          2
     1  C   -0.754296  -0.013066
     2  C    0.634044   0.123485
     3  C   -0.828951   0.061735
     4  C    0.811077   0.015785
     5  C   -0.056274   0.138830
     6  S   -0.752547   0.045618
     7  C   -0.068605   0.017018
     8  C   -0.249044   0.049903
     9  C   -0.268858   0.081849
    10  C   -0.463403  -0.000306
    11  C   -0.301968   0.091623
    12  C    0.500240   0.007437
    13  N   -0.021168  -0.004257
    14  C   -0.268981   0.159923
    15  C    0.186796   0.095424
    16  O   -0.367050   0.137417
    17  H    0.131741   0.012861
    18  H    0.147022   0.002446
    19  H    0.152618   0.004751
    20  H    0.144027   0.001225
    21  H    0.134347  -0.006095
    22  H    0.124541  -0.006495
    23  H    0.162203   0.001636
    24  H    0.165905  -0.010775
    25  H    0.106584  -0.007973
 Sum of Mulliken charges =  -1.00000   1.00000

 Dipole moment (field-independent basis, Debye):
    X=              4.1642    Y=              0.9283    Z=              0.9073  Tot=              4.3618
 Quadrupole moment (field-independent basis, Debye-Ang):
   XX=           -155.1649   YY=           -114.4810   ZZ=           -108.2881
   XY=             -2.8812   XZ=              1.9138   YZ=             -0.1612

 Summary of Natural Population Analysis:

                                       Natural Population
                Natural  -----------------------------------------------
    Atom  No    Charge         Core      Valence    Rydberg      Total
 -----------------------------------------------------------------------
      C    1   -0.30159      0.99963     2.29666    0.00531     3.30159
      C    2   -0.00252      0.99942     1.99284    0.01026     3.00252
      C    3   -0.09846      0.99931     2.08743    0.01173     3.09846
      C    4   -0.00921      0.99939     1.99515    0.01466     3.00921
      C    5   -0.09996      0.99936     2.08971    0.01089     3.09996
      S    6    0.20434      4.99943     2.77639    0.01984     7.79566
      C    7   -0.08387      0.99941     2.07361    0.01085     3.08387
      C    8   -0.10054      0.99950     2.09124    0.00980     3.10054
      C    9   -0.08803      0.99958     2.07921    0.00924     3.08803
      C   10   -0.10880      0.99955     2.09888    0.01036     3.10880
      C   11    0.09571      0.99933     1.89242    0.01253     2.90429
      C   12   -0.04978      0.99936     2.03899    0.01144     3.04978
      N   13   -0.23585      0.99968     2.72453    0.01164     3.73585
      C   14    0.10271      0.99955     1.88103    0.01671     2.89729
      C   15    0.20801      0.99963     1.77186    0.02050     2.79199
      O   16   -0.25122      0.99988     3.24347    0.00787     4.25122
      H   17    0.09914      0.00000     0.39981    0.00104     0.40086
      H   18    0.10542      0.00000     0.39351    0.00107     0.39458
      H   19    0.10419      0.00000     0.39457    0.00124     0.39581
      H   20    0.09551      0.00000     0.40327    0.00122     0.40449
      H   21    0.09550      0.00000     0.40295    0.00155     0.40450
      H   22    0.09170      0.00000     0.40725    0.00104     0.40830
      H   23    0.10033      0.00000     0.39810    0.00158     0.39967
      H   24    0.07761      0.00000     0.42080    0.00159     0.42239
      H   25    0.04976      0.00000     0.44803    0.00222     0.45024
 =======================================================================
   * Total *    0.00011     19.99201    38.80171    0.20617    58.99989

 Normal termination of Gaussian 16 at Fri Dec 11 01:49:42 2020.
