 Gaussian 16, Revision A.03,

 -----------------------------------------------------------
 # opt freq B3LYP/6-31G(d) empiricaldispersion=gd3bj scf=xqc
 -----------------------------------------------------------

 -------------------------------
 CID_148182215_JID_4198_neutraal
 -------------------------------
 Symbolic Z-matrix:
 Charge =  0 Multiplicity = 1

 SCF Done:  E(RB3LYP) =  -544.385912069     A.U. after   14 cycles
 SCF Done:  E(RB3LYP) =  -544.388369703     A.U. after   12 cycles
 SCF Done:  E(RB3LYP) =  -544.388460693     A.U. after   11 cycles
 SCF Done:  E(RB3LYP) =  -544.388677495     A.U. after   11 cycles
 SCF Done:  E(RB3LYP) =  -544.388709161     A.U. after   10 cycles
 SCF Done:  E(RB3LYP) =  -544.388716119     A.U. after    9 cycles
 SCF Done:  E(RB3LYP) =  -544.388717454     A.U. after    7 cycles
 SCF Done:  E(RB3LYP) =  -544.388719459     A.U. after    9 cycles
 SCF Done:  E(RB3LYP) =  -544.388723738     A.U. after    9 cycles
 SCF Done:  E(RB3LYP) =  -544.388732977     A.U. after   10 cycles
 SCF Done:  E(RB3LYP) =  -544.388816787     A.U. after   11 cycles
 SCF Done:  E(RB3LYP) =  -544.388821099     A.U. after   10 cycles
 SCF Done:  E(RB3LYP) =  -544.388822705     A.U. after   10 cycles
 SCF Done:  E(RB3LYP) =  -544.388823886     A.U. after    8 cycles
 SCF Done:  E(RB3LYP) =  -544.388823979     A.U. after    8 cycles
 Optimization completed.
    -- Stationary point found.
 Normal termination of Gaussian 16 at Thu Dec 10 09:25:50 2020.

 --------------------------------------------------------------------
 #N Geom=AllCheck Guess=TCheck SCRF=Check GenChk RB3LYP/6-31G(d) Freq
 --------------------------------------------------------------------

 Structure from the checkpoint file:  "JID_4198.chk"
 -------------------------------
 CID_148182215_JID_4198_neutraal
 -------------------------------
 Charge =  0 Multiplicity = 1

 SCF Done:  E(RB3LYP) =  -544.388823979     A.U. after    1 cycles

  Exact polarizability: 189.558  -2.243 140.642  -1.894   6.062  99.462
 Approx polarizability: 270.298  -3.861 225.295  -4.136  13.689 148.828

                      1                      2                      3
                      A                      A                      A
 Frequencies --     29.1960                66.4819                96.5351
 Red. masses --      1.0328                 3.2552                 3.3550
 Frc consts  --      0.0005                 0.0085                 0.0184
 IR Inten    --      0.2020                 0.1967                 0.0088

                      4                      5                      6
                      A                      A                      A
 Frequencies --    144.7324               166.5251               213.2972
 Red. masses --      2.9511                 2.3038                 2.8672
 Frc consts  --      0.0364                 0.0376                 0.0769
 IR Inten    --      0.0269                 0.7700                 0.1230

                      7                      8                      9
                      A                      A                      A
 Frequencies --    221.5011               236.7546               256.9097
 Red. masses --      2.5191                 1.2255                 3.1906
 Frc consts  --      0.0728                 0.0405                 0.1241
 IR Inten    --      0.2260                 0.1405                 0.2793

                     10                     11                     12
                      A                      A                      A
 Frequencies --    300.0683               316.2303               336.9305
 Red. masses --      2.4410                 3.2892                 3.1121
 Frc consts  --      0.1295                 0.1938                 0.2082
 IR Inten    --      0.2926                 1.2260                 1.4039

                     13                     14                     15
                      A                      A                      A
 Frequencies --    364.6764               421.7619               448.1913
 Red. masses --      2.1572                 3.6894                 2.3134
 Frc consts  --      0.1690                 0.3867                 0.2738
 IR Inten    --      0.1700                 0.2045                 0.1109

                     16                     17                     18
                      A                      A                      A
 Frequencies --    463.2447               534.6302               545.9752
 Red. masses --      3.1846                 3.0675                 3.1358
 Frc consts  --      0.4026                 0.5166                 0.5507
 IR Inten    --      5.0090                 1.4374                 1.8537

                     19                     20                     21
                      A                      A                      A
 Frequencies --    595.4250               625.5074               648.6416
 Red. masses --      3.1177                 2.8377                 2.5886
 Frc consts  --      0.6512                 0.6542                 0.6417
 IR Inten    --      1.7001                 0.4871                 1.1781

                     22                     23                     24
                      A                      A                      A
 Frequencies --    712.0288               751.3947               763.5141
 Red. masses --      4.8495                 2.6161                 2.8250
 Frc consts  --      1.4486                 0.8703                 0.9703
 IR Inten    --      0.5465                 6.7356                 9.1269

                     25                     26                     27
                      A                      A                      A
 Frequencies --    777.8381               802.0692               846.0258
 Red. masses --      2.0924                 2.3475                 1.5667
 Frc consts  --      0.7459                 0.8898                 0.6607
 IR Inten    --      6.4653                 2.0397                26.1168

                     28                     29                     30
                      A                      A                      A
 Frequencies --    867.5189               884.0991               907.2577
 Red. masses --      2.8068                 1.6347                 1.4553
 Frc consts  --      1.2446                 0.7528                 0.7058
 IR Inten    --      0.6788                 3.9525                 1.3733

                     31                     32                     33
                      A                      A                      A
 Frequencies --    946.5525               956.7309               964.3241
 Red. masses --      2.4368                 1.5308                 1.5776
 Frc consts  --      1.2863                 0.8256                 0.8644
 IR Inten    --      3.3535                 1.2159                 2.1561

                     34                     35                     36
                      A                      A                      A
 Frequencies --    993.9217              1006.6845              1019.9301
 Red. masses --      1.3203                 1.9728                 1.8499
 Frc consts  --      0.7685                 1.1779                 1.1338
 IR Inten    --      1.1566                 1.5830                 1.5247

                     37                     38                     39
                      A                      A                      A
 Frequencies --   1036.0609              1055.9318              1074.9837
 Red. masses --      1.5613                 1.8183                 1.5297
 Frc consts  --      0.9874                 1.1945                 1.0415
 IR Inten    --      6.9902                 2.9718                 5.6207

                     40                     41                     42
                      A                      A                      A
 Frequencies --   1079.3816              1124.3093              1143.4432
 Red. masses --      2.0632                 2.0014                 2.4297
 Frc consts  --      1.4163                 1.4906                 1.8716
 IR Inten    --      6.8538                 0.7900                 0.9506

                     43                     44                     45
                      A                      A                      A
 Frequencies --   1178.8686              1195.5189              1214.2732
 Red. masses --      1.5532                 1.4678                 2.0853
 Frc consts  --      1.2718                 1.2361                 1.8115
 IR Inten    --      0.2794                 0.2291                 2.4719

                     46                     47                     48
                      A                      A                      A
 Frequencies --   1235.1621              1247.2418              1260.7926
 Red. masses --      1.5881                 1.2840                 2.0181
 Frc consts  --      1.4275                 1.1768                 1.8901
 IR Inten    --      1.3613                 1.3071                 0.5996

                     49                     50                     51
                      A                      A                      A
 Frequencies --   1290.1456              1301.4486              1322.8812
 Red. masses --      1.4081                 1.4224                 1.3303
 Frc consts  --      1.3809                 1.4195                 1.3716
 IR Inten    --      1.1855                 2.0316                 1.7185

                     52                     53                     54
                      A                      A                      A
 Frequencies --   1349.3122              1358.8734              1374.8471
 Red. masses --      1.4866                 2.8760                 1.3101
 Frc consts  --      1.5946                 3.1290                 1.4591
 IR Inten    --      0.2190                 1.7241                 1.4663

                     55                     56                     57
                      A                      A                      A
 Frequencies --   1397.9814              1409.0247              1419.7774
 Red. masses --      1.3606                 1.4338                 1.3949
 Frc consts  --      1.5667                 1.6771                 1.6567
 IR Inten    --      1.5284                 0.6068                 1.7895

                     58                     59                     60
                      A                      A                      A
 Frequencies --   1438.0269              1442.0969              1445.6613
 Red. masses --      1.2785                 1.2701                 1.5456
 Frc consts  --      1.5576                 1.5563                 1.9032
 IR Inten    --      7.1555                 1.7845                 5.9627

                     61                     62                     63
                      A                      A                      A
 Frequencies --   1459.4491              1508.6343              1515.6184
 Red. masses --      2.0877                 1.0873                 1.0466
 Frc consts  --      2.6200                 1.4581                 1.4164
 IR Inten    --      1.2082                 1.8438                 4.7120

                     64                     65                     66
                      A                      A                      A
 Frequencies --   1520.4299              1520.7373              1523.8556
 Red. masses --      1.0983                 1.0773                 1.0810
 Frc consts  --      1.4960                 1.4679                 1.4789
 IR Inten    --      4.7503                 5.8063                 3.4297

                     67                     68                     69
                      A                      A                      A
 Frequencies --   1525.0914              1547.3435              1555.4697
 Red. masses --      1.1038                 1.0573                 2.5959
 Frc consts  --      1.5126                 1.4915                 3.7005
 IR Inten    --      7.5978                 1.8797                14.1590

                     70                     71                     72
                      A                      A                      A
 Frequencies --   1617.2138              1671.5220              1730.1480
 Red. masses --      5.8170                 5.6968                 7.0282
 Frc consts  --      8.9637                 9.3779                12.3954
 IR Inten    --      0.9318                10.5810                 0.8371

                     73                     74                     75
                      A                      A                      A
 Frequencies --   3017.5530              3031.0269              3037.7904
 Red. masses --      1.0715                 1.0713                 1.0622
 Frc consts  --      5.7483                 5.7989                 5.7751
 IR Inten    --      5.1400                33.5728                32.3401

                     76                     77                     78
                      A                      A                      A
 Frequencies --   3041.4267              3042.4365              3053.2005
 Red. masses --      1.0389                 1.0617                 1.0446
 Frc consts  --      5.6619                 5.7900                 5.7371
 IR Inten    --     43.3738                32.5464                31.8395

                     79                     80                     81
                      A                      A                      A
 Frequencies --   3060.6945              3077.0500              3082.9570
 Red. masses --      1.0994                 1.1019                 1.1024
 Frc consts  --      6.0680                 6.1471                 6.1735
 IR Inten    --     50.4379                62.3427                37.8119

                     82                     83                     84
                      A                      A                      A
 Frequencies --   3093.9463              3111.3666              3124.6756
 Red. masses --      1.0993                 1.1008                 1.1012
 Frc consts  --      6.2001                 6.2788                 6.3346
 IR Inten    --     21.7939                28.8731                16.1449

                     85                     86                     87
                      A                      A                      A
 Frequencies --   3136.1667              3160.4053              3163.0424
 Red. masses --      1.0836                 1.0947                 1.0899
 Frc consts  --      6.2792                 6.4420                 6.4246
 IR Inten    --      5.2055                49.6046                10.5963

                     88                     89                     90
                      A                      A                      A
 Frequencies --   3165.4368              3171.7278              3190.2365
 Red. masses --      1.0954                 1.0865                 1.0948
 Frc consts  --      6.4667                 6.4396                 6.5648
 IR Inten    --     23.8714                13.4086                28.5551

 - Thermochemistry -
 -------------------
 Temperature   298.150 Kelvin.  Pressure   1.00000 Atm.
 Atom     1 has atomic number  6 and mass  12.00000

 Molecular mass:   186.14085 amu.
 Principal axes and moments of inertia in atomic units:
                           1         2         3
     Eigenvalues --  1525.972093558.716054161.83975
           X            0.99999  -0.00177  -0.00501
           Y            0.00178   1.00000   0.00043
           Z            0.00501  -0.00044   0.99999
 This molecule is an asymmetric top.
 Rotational symmetry number  1.
 Warning -- assumption of classical behavior for rotation
           may cause significant error
 Rotational temperatures (Kelvin)      0.05676     0.02434     0.02081
 Rotational constants (GHZ):           1.18268     0.50713     0.43364
 Zero-point vibrational energy     748179.3 (Joules/Mol)
                                  178.81913 (Kcal/Mol)
 Warning -- explicit consideration of  19 degrees of freedom as
           vibrations may cause significant error
 Vibrational temperatures:     42.01    95.65   138.89   208.24   239.59
          (Kelvin)            306.89   318.69   340.64   369.64   431.73
                              454.98   484.77   524.69   606.82   644.85
                              666.51   769.21   785.54   856.68   899.97
                              933.25  1024.45  1081.09  1098.53  1119.14
                             1154.00  1217.24  1248.17  1272.02  1305.34
                             1361.88  1376.52  1387.45  1430.03  1448.39
                             1467.45  1490.66  1519.25  1546.66  1552.99
                             1617.63  1645.16  1696.13  1720.09  1747.07
                             1777.12  1794.50  1814.00  1856.23  1872.49
                             1903.33  1941.36  1955.12  1978.10  2011.38
                             2027.27  2042.74  2069.00  2074.86  2079.98
                             2099.82  2170.59  2180.64  2187.56  2188.00
                             2192.49  2194.27  2226.28  2237.97  2326.81
                             2404.95  2489.30  4341.59  4360.97  4370.70
                             4375.93  4377.39  4392.87  4403.66  4427.19
                             4435.69  4451.50  4476.56  4495.71  4512.24
                             4547.12  4550.91  4554.36  4563.41  4590.04

 Zero-point correction=                           0.284966 (Hartree/Particle)
 Thermal correction to Energy=                    0.298053
 Thermal correction to Enthalpy=                  0.298997
 Thermal correction to Gibbs Free Energy=         0.245440
 Sum of electronic and zero-point Energies=           -544.103858
 Sum of electronic and thermal Energies=              -544.090771
 Sum of electronic and thermal Enthalpies=            -544.089827
 Sum of electronic and thermal Free Energies=         -544.143384

                     E (Thermal)             CV                S
                      KCal/Mol        Cal/Mol-Kelvin    Cal/Mol-Kelvin
 Total                  187.031             51.852            112.720
 Electronic               0.000              0.000              0.000
 Translational            0.889              2.981             41.570
 Rotational               0.889              2.981             31.492
 Vibrational            185.253             45.890             39.659
 Vibration     1          0.593              1.984              5.883
 Vibration     2          0.598              1.970              4.255
 Vibration     3          0.603              1.952              3.523
 Vibration     4          0.616              1.908              2.740
 Vibration     5          0.624              1.884              2.474
 Vibration     6          0.644              1.821              2.015
 Vibration     7          0.648              1.808              1.947
 Vibration     8          0.656              1.784              1.827
 Vibration     9          0.666              1.751              1.683
 Vibration    10          0.693              1.674              1.417
 Vibration    11          0.703              1.643              1.330
 Vibration    12          0.718              1.602              1.227
 Vibration    13          0.738              1.545              1.102
 Vibration    14          0.784              1.423              0.886
 Vibration    15          0.807              1.365              0.801
 Vibration    16          0.821              1.332              0.757
 Vibration    17          0.890              1.173              0.577
 Vibration    18          0.901              1.148              0.553
 Vibration    19          0.953              1.042              0.458

 Optimization completed.
    -- Stationary point found.
 Normal termination of Gaussian 16 at Thu Dec 10 09:35:43 2020.

 ----------------------------------------------------------------------
 # B3LYP/6-311++G(d,p) empiricaldispersion=gd3bj scf=xqc pop=npa geom=c
 heck
 ----------------------------------------------------------------------

 ---------------------------------------
 CID_148182215_JID_4198_Energie_neutraal
 ---------------------------------------
 Structure from the checkpoint file:  "JID_4198.chk"
 Charge =  0 Multiplicity = 1

 SCF Done:  E(RB3LYP) =  -544.527857767     A.U. after   14 cycles
 Normal termination of Gaussian 16 at Thu Dec 10 09:39:30 2020.

 ----------------------------------------------------------------------
 # B3LYP/6-311++G(d,p) empiricaldispersion=gd3bj scf=xqc pop=npa geom=c
 heck
 ----------------------------------------------------------------------

 -------------------------------------
 CID_148182215_JID_4198_Energie_kation
 -------------------------------------
 Structure from the checkpoint file:  "JID_4198.chk"
 Charge =  1 Multiplicity = 2

 SCF Done:  E(UB3LYP) =  -544.239891933     A.U. after   22 cycles
 Normal termination of Gaussian 16 at Thu Dec 10 09:47:21 2020.
 Gaussian 16:  ES64L-G16RevA.03 25-Dec-2016

 ----------------------------------------------------------------------
 # B3LYP/6-311++G(d,p) empiricaldispersion=gd3bj scf=xqc pop=npa geom=c
 heck
 ----------------------------------------------------------------------

 ------------------------------------
 CID_148182215_JID_4198_Energie_anion
 ------------------------------------
 Structure from the checkpoint file:  "JID_4198.chk"
 Charge = -1 Multiplicity = 2

                         Standard orientation:
 ---------------------------------------------------------------------
 Center     Atomic      Atomic             Coordinates (Angstroms)
 Number     Number       Type             X           Y           Z
 ---------------------------------------------------------------------
      1          6           0       -1.560381   -1.168337    1.852957
      2          6           0       -0.806895   -1.397682    0.533042
      3          6           0       -1.753819   -1.619552   -0.674641
      4          6           0       -2.838954   -0.579862   -0.971956
      5          6           0       -2.307227    0.835061   -1.292782
      6          6           0       -2.098846    1.688744   -0.072865
      7          6           0       -0.984102    1.743476    0.665460
      8          6           0        0.260280    0.989557    0.403827
      9          6           0        0.336909   -0.414896    0.281071
     10          6           0        1.584452   -0.978515   -0.034290
     11          6           0        2.745936   -0.228091   -0.213357
     12          6           0        2.658611    1.158689   -0.041358
     13          6           0        1.439646    1.744433    0.267317
     14          6           0        4.056266   -0.885735   -0.570052
     15          1           0       -2.266769   -1.989347    2.026003
     16          1           0       -2.120534   -0.232685    1.857774
     17          1           0       -0.857682   -1.143656    2.692831
     18          1           0       -0.304391   -2.366679    0.649930
     19          1           0       -2.256115   -2.583073   -0.512069
     20          1           0       -1.131908   -1.745112   -1.571341
     21          1           0       -3.550667   -0.523759   -0.138284
     22          1           0       -3.410482   -0.946590   -1.834311
     23          1           0       -1.366922    0.742663   -1.850853
     24          1           0       -3.020469    1.342276   -1.953513
     25          1           0       -2.943432    2.306009    0.232638
     26          1           0       -0.948851    2.444620    1.499588
     27          1           0        1.649662   -2.060973   -0.127663
     28          1           0        3.546600    1.777035   -0.150514
     29          1           0        1.378235    2.823299    0.388558
     30          1           0        3.989921   -1.975551   -0.494619
     31          1           0        4.356835   -0.642112   -1.597317
     32          1           0        4.865709   -0.550110    0.088922
 ---------------------------------------------------------------------

 SCF Done:  E(UB3LYP) =  -544.512858654     A.U. after   33 cycles
 SCF Done:  E(UB3LYP) =  -544.512858654     a.u. after    1 cycles

 The electronic state is 2-A.
 Alpha  occ. eigenvalues --  -10.07112 -10.07089 -10.06997 -10.06727 -10.06716
 Alpha  occ. eigenvalues --  -10.06265 -10.06203 -10.05926 -10.05823 -10.05819
 Alpha  occ. eigenvalues --  -10.05700 -10.05657 -10.05574 -10.04847  -0.75774
 Alpha  occ. eigenvalues --   -0.71273  -0.68634  -0.67108  -0.63716  -0.61665
 Alpha  occ. eigenvalues --   -0.58679  -0.56065  -0.53150  -0.49585  -0.47270
 Alpha  occ. eigenvalues --   -0.45487  -0.41896  -0.38662  -0.36953  -0.35905
 Alpha  occ. eigenvalues --   -0.35103  -0.34382  -0.32358  -0.32069  -0.31143
 Alpha  occ. eigenvalues --   -0.30250  -0.29883  -0.28763  -0.28449  -0.27137
 Alpha  occ. eigenvalues --   -0.26023  -0.24636  -0.24305  -0.23544  -0.22660
 Alpha  occ. eigenvalues --   -0.21343  -0.21072  -0.20359  -0.15886  -0.13906
 Alpha  occ. eigenvalues --   -0.11929   0.04647
 Alpha virt. eigenvalues --    0.06450   0.07162   0.07820   0.08083   0.08546
 Alpha virt. eigenvalues --    0.08932   0.09305   0.09995   0.10219   0.10319
 Alpha virt. eigenvalues --    0.10958   0.11365   0.12344   0.12777   0.13123

  Beta  occ. eigenvalues --  -10.07104 -10.07077 -10.06912 -10.06711 -10.06673
  Beta  occ. eigenvalues --  -10.06251 -10.06187 -10.05915 -10.05815 -10.05809
  Beta  occ. eigenvalues --  -10.05666 -10.05613 -10.05530 -10.04828  -0.75688
  Beta  occ. eigenvalues --   -0.71198  -0.68543  -0.67017  -0.63640  -0.61610
  Beta  occ. eigenvalues --   -0.58611  -0.56006  -0.53085  -0.49512  -0.47176
  Beta  occ. eigenvalues --   -0.45402  -0.41831  -0.38595  -0.36894  -0.35840
  Beta  occ. eigenvalues --   -0.35032  -0.34327  -0.32307  -0.31954  -0.31092
  Beta  occ. eigenvalues --   -0.30207  -0.29833  -0.28710  -0.28384  -0.27095
  Beta  occ. eigenvalues --   -0.25935  -0.24590  -0.24254  -0.23440  -0.22599
  Beta  occ. eigenvalues --   -0.21294  -0.21026  -0.20312  -0.15620  -0.13767
  Beta  occ. eigenvalues --   -0.11624
  Beta virt. eigenvalues --    0.06709   0.07241   0.07726   0.08322   0.08536
  Beta virt. eigenvalues --    0.09009   0.09163   0.09534   0.10205   0.10454
  Beta virt. eigenvalues --    0.10731   0.11337   0.11652   0.12533   0.12998

 Mulliken charges and spin densities:
               1          2
     1  C    0.223609  -1.025866
     2  C    0.138051   0.372317
     3  C    0.241136  -0.816646
     4  C   -0.093215  -0.368546
     5  C   -0.544252   0.193654
     6  C    0.891803  -1.006416
     7  C   -1.693746   1.113370
     8  C    1.024375  -0.210495
     9  C    0.118110   0.016793
    10  C   -0.141032  -0.615616
    11  C   -0.491978   1.072259
    12  C   -0.186560  -0.105984
    13  C   -0.221667  -0.128558
    14  C    1.385968  -1.870646
    15  H   -0.195385   0.330657
    16  H    0.115354   0.076560
    17  H    0.081898   0.046910
    18  H   -0.133829   0.336647
    19  H    0.001309   0.139206
    20  H    0.067914   0.088358
    21  H   -0.089058   0.227769
    22  H   -0.524846   0.693935
    23  H    0.115384  -0.006400
    24  H   -0.167554   0.337263
    25  H   -0.332152   0.491790
    26  H   -0.072199   0.248698
    27  H    0.001979   0.110880
    28  H   -0.051939   0.195016
    29  H   -0.075431   0.229851
    30  H   -0.296633   0.445312
    31  H    0.086781   0.063314
    32  H   -0.182195   0.324614
 Sum of Mulliken charges =  -1.00000   1.00000

 Dipole moment (field-independent basis, Debye):
    X=              2.2441    Y=              0.6816    Z=             -0.0832  Tot=              2.3468
 Quadrupole moment (field-independent basis, Debye-Ang):
   XX=           -161.8057   YY=           -125.1232   ZZ=           -117.6953
   XY=              4.8593   XZ=             -7.9034   YZ=             -0.5630

 Summary of Natural Population Analysis:

                                       Natural Population
                Natural  -----------------------------------------------
    Atom  No    Charge         Core      Valence    Rydberg      Total
 -----------------------------------------------------------------------
      C    1   -0.28577      0.99964     2.28045    0.00568     3.28577
      C    2   -0.11655      0.99957     2.10564    0.01135     3.11655
      C    3   -0.17999      0.99960     2.17119    0.00921     3.17999
      C    4   -0.18642      0.99961     2.17790    0.00891     3.18642
      C    5   -0.21483      0.99961     2.20482    0.01040     3.21483
      C    6   -0.07169      0.99952     2.06230    0.00988     3.07169
      C    7   -0.10131      0.99950     2.09001    0.01180     3.10131
      C    8   -0.03583      0.99945     2.02638    0.00999     3.03583
      C    9    0.00382      0.99946     1.98605    0.01067     2.99618
      C   10   -0.10066      0.99947     2.09184    0.00934     3.10066
      C   11   -0.00408      0.99951     1.99579    0.00877     3.00408
      C   12   -0.11051      0.99951     2.10193    0.00907     3.11051
      C   13   -0.07958      0.99953     2.07113    0.00892     3.07958
      C   14   -0.29258      0.99964     2.28740    0.00554     3.29258
      H   15    0.09631      0.00000     0.40286    0.00082     0.40369
      H   16    0.10551      0.00000     0.39327    0.00121     0.39449
      H   17    0.09947      0.00000     0.39966    0.00087     0.40053
      H   18    0.09689      0.00000     0.40109    0.00201     0.40311
      H   19    0.09634      0.00000     0.40259    0.00107     0.40366
      H   20    0.09553      0.00000     0.40320    0.00128     0.40447
      H   21    0.09610      0.00000     0.40239    0.00151     0.40390
      H   22    0.09963      0.00000     0.39851    0.00186     0.40037
      H   23    0.10104      0.00000     0.39760    0.00136     0.39896
      H   24    0.10213      0.00000     0.39657    0.00130     0.39787
      H   25    0.09342      0.00000     0.40529    0.00129     0.40658
      H   26    0.09881      0.00000     0.40004    0.00114     0.40119
      H   27    0.09579      0.00000     0.40290    0.00131     0.40421
      H   28    0.09625      0.00000     0.40289    0.00086     0.40375
      H   29    0.09692      0.00000     0.40191    0.00117     0.40308
      H   30    0.10193      0.00000     0.39703    0.00104     0.39807
      H   31    0.10063      0.00000     0.39855    0.00082     0.39937
      H   32    0.10328      0.00000     0.39535    0.00138     0.39672
 =======================================================================
   * Total *   -0.00000     13.99363    36.85455    0.15183    51.00000

 Normal termination of Gaussian 16 at Thu Dec 10 09:59:06 2020.
