 Gaussian 16, Revision A.03,

 -----------------------------------------------------------
 # opt freq B3LYP/6-31G(d) empiricaldispersion=gd3bj scf=xqc
 -----------------------------------------------------------

 --------------------------------
 CID_138994043_JID_10230_neutraal
 --------------------------------
 Symbolic Z-matrix:
 Charge =  0 Multiplicity = 1

 SCF Done:  E(RB3LYP) =  -1293.73231011     A.U. after   15 cycles
 SCF Done:  E(RB3LYP) =  -1293.74238329     A.U. after   12 cycles
 SCF Done:  E(RB3LYP) =  -1293.74360213     A.U. after   12 cycles
 SCF Done:  E(RB3LYP) =  -1293.74400268     A.U. after   12 cycles
 SCF Done:  E(RB3LYP) =  -1293.74434664     A.U. after   12 cycles
 SCF Done:  E(RB3LYP) =  -1293.74470422     A.U. after   12 cycles
 SCF Done:  E(RB3LYP) =  -1293.74509860     A.U. after   13 cycles
 SCF Done:  E(RB3LYP) =  -1293.74522363     A.U. after   11 cycles
 SCF Done:  E(RB3LYP) =  -1293.74527996     A.U. after   11 cycles
 SCF Done:  E(RB3LYP) =  -1293.74531651     A.U. after   11 cycles
 SCF Done:  E(RB3LYP) =  -1293.74776259     A.U. after    8 cycles
 SCF Done:  E(RB3LYP) =  -1293.74776342     A.U. after    8 cycles
 SCF Done:  E(RB3LYP) =  -1293.74776325     A.U. after    9 cycles
 SCF Done:  E(RB3LYP) =  -1293.74776406     A.U. after   10 cycles
 SCF Done:  E(RB3LYP) =  -1293.74776433     A.U. after    8 cycles
 SCF Done:  E(RB3LYP) =  -1293.74776441     A.U. after    8 cycles
 Optimization completed.
    -- Stationary point found.
 Normal termination of Gaussian 16 at Sun Dec 13 17:26:17 2020.

 --------------------------------------------------------------------
 #N Geom=AllCheck Guess=TCheck SCRF=Check GenChk RB3LYP/6-31G(d) Freq
 --------------------------------------------------------------------

 Structure from the checkpoint file:  "JID_10230.chk"
 --------------------------------
 CID_138994043_JID_10230_neutraal
 --------------------------------
 Charge =  0 Multiplicity = 1

 SCF Done:  E(RB3LYP) =  -1293.74776441     A.U. after    1 cycles

  Exact polarizability: 250.995  -7.720 168.907  -4.244  -5.315 125.137
 Approx polarizability: 327.020 -26.163 292.591 -12.123 -20.725 189.417

                      1                      2                      3
                      A                      A                      A
 Frequencies --     13.1066                15.1322                34.2941
 Red. masses --      3.4677                 3.2364                 4.9450
 Frc consts  --      0.0004                 0.0004                 0.0034
 IR Inten    --      0.3690                 1.2339                 0.6146

                      4                      5                      6
                      A                      A                      A
 Frequencies --     52.1897                65.8468                68.1199
 Red. masses --      4.0310                 4.0986                 7.4652
 Frc consts  --      0.0065                 0.0105                 0.0204
 IR Inten    --      0.2604                 1.2683                 0.7689

                      7                      8                      9
                      A                      A                      A
 Frequencies --     74.0799               119.0177               131.2056
 Red. masses --      2.0995                 3.2160                 4.0793
 Frc consts  --      0.0068                 0.0268                 0.0414
 IR Inten    --      3.3721                 0.8997                 3.4678

                     10                     11                     12
                      A                      A                      A
 Frequencies --    170.7849               195.0989               204.1540
 Red. masses --      3.0917                 2.3170                 1.9601
 Frc consts  --      0.0531                 0.0520                 0.0481
 IR Inten    --      0.8380                 0.5820                 3.5737

                     13                     14                     15
                      A                      A                      A
 Frequencies --    224.1264               243.3372               258.6080
 Red. masses --      1.6029                 1.7965                 2.9008
 Frc consts  --      0.0474                 0.0627                 0.1143
 IR Inten    --      0.8696                 4.5254                 2.8584

                     16                     17                     18
                      A                      A                      A
 Frequencies --    273.8067               280.3448               303.5358
 Red. masses --      2.1826                 1.5692                 4.4785
 Frc consts  --      0.0964                 0.0727                 0.2431
 IR Inten    --      5.5896                 0.7687                 3.9988

                     19                     20                     21
                      A                      A                      A
 Frequencies --    309.0643               361.6056               372.5507
 Red. masses --      5.1497                 2.7838                 4.7559
 Frc consts  --      0.2898                 0.2145                 0.3889
 IR Inten    --      1.6081                 1.2944                 3.3181

                     22                     23                     24
                      A                      A                      A
 Frequencies --    395.9760               428.8495               479.1608
 Red. masses --      4.7349                 6.1763                 6.3092
 Frc consts  --      0.4374                 0.6692                 0.8535
 IR Inten    --      1.8564                 2.4754                 3.5823

                     25                     26                     27
                      A                      A                      A
 Frequencies --    505.2089               525.4834               544.1627
 Red. masses --      5.2646                 4.8473                 5.2835
 Frc consts  --      0.7917                 0.7886                 0.9218
 IR Inten    --      5.2956                 1.1993                 0.9878

                     28                     29                     30
                      A                      A                      A
 Frequencies --    605.7550               613.5796               647.0523
 Red. masses --      1.9586                 3.8837                 6.2633
 Frc consts  --      0.4234                 0.8615                 1.5450
 IR Inten    --      1.3670                12.4650                 4.5180

                     31                     32                     33
                      A                      A                      A
 Frequencies --    668.0340               702.6260               726.9949
 Red. masses --     10.5951                 4.4875                 4.6813
 Frc consts  --      2.7858                 1.3053                 1.4577
 IR Inten    --      0.7634                10.6296                 5.7406

                     34                     35                     36
                      A                      A                      A
 Frequencies --    735.5968               780.3209               802.5546
 Red. masses --      3.8603                 2.6833                 2.5728
 Frc consts  --      1.2307                 0.9626                 0.9764
 IR Inten    --      5.8052                21.9657                 4.8065

                     37                     38                     39
                      A                      A                      A
 Frequencies --    837.8160               851.4022               870.7686
 Red. masses --      3.3352                 4.1873                 1.8970
 Frc consts  --      1.3794                 1.7884                 0.8475
 IR Inten    --     11.3807                55.1983                 5.6042

                     40                     41                     42
                      A                      A                      A
 Frequencies --    902.9414               916.4463               922.3053
 Red. masses --      3.2256                 2.3863                10.3209
 Frc consts  --      1.5495                 1.1808                 5.1727
 IR Inten    --      3.8654                 8.6762                13.0757

                     43                     44                     45
                      A                      A                      A
 Frequencies --    929.6822               944.3859               945.5687
 Red. masses --      2.9888                 2.4668                 2.5393
 Frc consts  --      1.5220                 1.2962                 1.3377
 IR Inten    --     13.8181                 9.8611                 5.2189

                     46                     47                     48
                      A                      A                      A
 Frequencies --    954.6449               963.7683              1009.3103
 Red. masses --      1.4772                 3.1269                 6.3094
 Frc consts  --      0.7932                 1.7112                 3.7869
 IR Inten    --      0.1537                17.4881                 2.3212

                     49                     50                     51
                      A                      A                      A
 Frequencies --   1032.4910              1038.3552              1049.1348
 Red. masses --      1.8426                 2.7727                 1.9657
 Frc consts  --      1.1573                 1.7614                 1.2748
 IR Inten    --      3.2220                 1.1578                11.4669

                     52                     53                     54
                      A                      A                      A
 Frequencies --   1107.6135              1116.6605              1124.4808
 Red. masses --      8.1378                 1.8744                 5.1634
 Frc consts  --      5.8821                 1.3771                 3.8467
 IR Inten    --    121.9341                11.9089                89.1382

                     55                     56                     57
                      A                      A                      A
 Frequencies --   1127.6533              1185.1300              1190.8759
 Red. masses --      2.2879                 3.1761                 1.2895
 Frc consts  --      1.7141                 2.6283                 1.0774
 IR Inten    --     30.6160                19.1061                 1.0546

                     58                     59                     60
                      A                      A                      A
 Frequencies --   1199.8178              1212.8560              1221.9438
 Red. masses --      1.7611                 2.8571                 1.3747
 Frc consts  --      1.4937                 2.4762                 1.2093
 IR Inten    --     18.5048               137.4657                 2.6608

                     61                     62                     63
                      A                      A                      A
 Frequencies --   1224.5682              1228.9471              1246.1101
 Red. masses --      2.4193                 1.3765                 3.1988
 Frc consts  --      2.1375                 1.2249                 2.9265
 IR Inten    --     76.6756                 5.4071                57.7494

                     64                     65                     66
                      A                      A                      A
 Frequencies --   1266.5948              1270.5519              1320.5988
 Red. masses --      1.2116                 2.4843                 1.2944
 Frc consts  --      1.1452                 2.3629                 1.3300
 IR Inten    --      2.3216                19.1127                 1.1057

                     67                     68                     69
                      A                      A                      A
 Frequencies --   1328.3982              1353.7968              1364.4255
 Red. masses --      1.2725                 1.4644                 1.4434
 Frc consts  --      1.3230                 1.5814                 1.5832
 IR Inten    --      4.6376                 8.1022                18.5126

                     70                     71                     72
                      A                      A                      A
 Frequencies --   1371.7380              1404.3347              1407.5739
 Red. masses --      4.5986                 1.6029                 3.3747
 Frc consts  --      5.0983                 1.8625                 3.9394
 IR Inten    --     65.9631                 5.7043                 9.3061

                     73                     74                     75
                      A                      A                      A
 Frequencies --   1424.2874              1441.6773              1486.9940
 Red. masses --      1.3739                 1.2465                 6.8565
 Frc consts  --      1.6421                 1.5265                 8.9324
 IR Inten    --      5.9836                16.6486                17.3468

                     76                     77                     78
                      A                      A                      A
 Frequencies --   1499.9646              1507.6598              1512.7203
 Red. masses --      1.1184                 1.0656                 1.0514
 Frc consts  --      1.4825                 1.4271                 1.4175
 IR Inten    --      0.4497                 2.2353                 0.1109

                     79                     80                     81
                      A                      A                      A
 Frequencies --   1517.7135              1521.1988              1524.7455
 Red. masses --      1.0889                 1.0959                 1.0562
 Frc consts  --      1.4778                 1.4942                 1.4467
 IR Inten    --      1.0827                 2.8720                 1.3506

                     82                     83                     84
                      A                      A                      A
 Frequencies --   1534.5131              1536.3611              1540.0360
 Red. masses --      1.0937                 1.2286                 1.1527
 Frc consts  --      1.5173                 1.7087                 1.6107
 IR Inten    --      4.4427                 9.5311                 1.6118

                     85                     86                     87
                      A                      A                      A
 Frequencies --   1550.1108              1556.0331              1580.0004
 Red. masses --      1.1035                 3.1383                11.0988
 Frc consts  --      1.5622                 4.4770                16.3246
 IR Inten    --      1.9578                15.3004                 8.5459

                     88                     89                     90
                      A                      A                      A
 Frequencies --   1650.1405              3012.8048              3020.5856
 Red. masses --     11.3909                 1.0718                 1.0347
 Frc consts  --     18.2747                 5.7319                 5.5623
 IR Inten    --    181.3064                42.6524                45.9697

                     91                     92                     93
                      A                      A                      A
 Frequencies --   3067.0206              3070.4559              3070.9478
 Red. masses --      1.0380                 1.0853                 1.0708
 Frc consts  --      5.7531                 6.0286                 5.9499
 IR Inten    --     11.4835                15.7621                13.8928

                     94                     95                     96
                      A                      A                      A
 Frequencies --   3075.5928              3077.8373              3103.0503
 Red. masses --      1.0643                 1.0618                 1.0619
 Frc consts  --      5.9318                 5.9260                 6.0244
 IR Inten    --     66.8506                25.3390                14.2901

                     97                     98                     99
                      A                      A                      A
 Frequencies --   3124.8415              3134.7225              3138.8100
 Red. masses --      1.1019                 1.0972                 1.1036
 Frc consts  --      6.3392                 6.3525                 6.4059
 IR Inten    --     13.4913                39.5696                 3.7511

                    100                    101                    102
                      A                      A                      A
 Frequencies --   3141.3878              3146.9632              3150.4097
 Red. masses --      1.0990                 1.1030                 1.1071
 Frc consts  --      6.3899                 6.4360                 6.4741
 IR Inten    --     30.4778                36.0282                25.9625

                    103                    104                    105
                      A                      A                      A
 Frequencies --   3152.1439              3162.0007              3286.5754
 Red. masses --      1.1021                 1.1029                 1.0947
 Frc consts  --      6.4518                 6.4968                 6.9665
 IR Inten    --     17.9588                12.2621                 4.7715

 - Thermochemistry -
 -------------------
 Temperature   298.150 Kelvin.  Pressure   1.00000 Atm.
 Atom     1 has atomic number  6 and mass  12.00000

 Molecular mass:   295.09906 amu.
 Principal axes and moments of inertia in atomic units:
                           1         2         3
     Eigenvalues --  2515.01901********************
           X            0.99997   0.00643   0.00399
           Y           -0.00651   0.99977   0.02057
           Z           -0.00386  -0.02060   0.99978
 This molecule is an asymmetric top.
 Rotational symmetry number  1.
 Warning -- assumption of classical behavior for rotation
           may cause significant error
 Rotational temperatures (Kelvin)      0.03444     0.00632     0.00578
 Rotational constants (GHZ):           0.71759     0.13163     0.12038
 Zero-point vibrational energy     781731.9 (Joules/Mol)
                                  186.83840 (Kcal/Mol)
 Warning -- explicit consideration of  29 degrees of freedom as
           vibrations may cause significant error
 Vibrational temperatures:     18.86    21.77    49.34    75.09    94.74
          (Kelvin)             98.01   106.58   171.24   188.78   245.72
                              280.70   293.73   322.47   350.11   372.08
                              393.95   403.35   436.72   444.67   520.27
                              536.02   569.72   617.02   689.41   726.88
                              756.05   782.93   871.55   882.80   930.96
                              961.15  1010.92  1045.98  1058.36  1122.71
                             1154.70  1205.43  1224.98  1252.84  1299.13
                             1318.56  1326.99  1337.61  1358.76  1360.46
                             1373.52  1386.65  1452.17  1485.52  1493.96
                             1509.47  1593.61  1606.63  1617.88  1622.44
                             1705.14  1713.40  1726.27  1745.03  1758.10
                             1761.88  1768.18  1792.87  1822.35  1828.04
                             1900.05  1911.27  1947.81  1963.10  1973.63
                             2020.52  2025.18  2049.23  2074.25  2139.45
                             2158.11  2169.19  2176.47  2183.65  2188.67
                             2193.77  2207.82  2210.48  2215.77  2230.26
                             2238.78  2273.27  2374.18  4334.75  4345.95
                             4412.76  4417.70  4418.41  4425.09  4428.32
                             4464.60  4495.95  4510.17  4516.05  4519.76
                             4527.78  4532.74  4535.23  4549.41  4728.65

 Zero-point correction=                           0.297746 (Hartree/Particle)
 Thermal correction to Energy=                    0.317080
 Thermal correction to Enthalpy=                  0.318024
 Thermal correction to Gibbs Free Energy=         0.246208
 Sum of electronic and zero-point Energies=          -1293.450018
 Sum of electronic and thermal Energies=             -1293.430685
 Sum of electronic and thermal Enthalpies=           -1293.429740
 Sum of electronic and thermal Free Energies=        -1293.501557

                     E (Thermal)             CV                S
                      KCal/Mol        Cal/Mol-Kelvin    Cal/Mol-Kelvin
 Total                  198.971             71.313            151.150
 Electronic               0.000              0.000              0.000
 Translational            0.889              2.981             42.944
 Rotational               0.889              2.981             34.602
 Vibrational            197.193             65.352             73.605
 Vibration     1          0.593              1.987              7.474
 Vibration     2          0.593              1.986              7.188
 Vibration     3          0.594              1.983              5.564
 Vibration     4          0.596              1.977              4.733
 Vibration     5          0.597              1.971              4.274
 Vibration     6          0.598              1.969              4.207
 Vibration     7          0.599              1.966              4.042
 Vibration     8          0.609              1.933              3.116
 Vibration     9          0.612              1.922              2.928
 Vibration    10          0.626              1.878              2.427
 Vibration    11          0.636              1.847              2.179
 Vibration    12          0.640              1.834              2.095
 Vibration    13          0.649              1.804              1.926
 Vibration    14          0.659              1.774              1.778
 Vibration    15          0.667              1.748              1.671
 Vibration    16          0.676              1.722              1.572
 Vibration    17          0.680              1.710              1.532
 Vibration    18          0.695              1.667              1.397
 Vibration    19          0.698              1.656              1.367
 Vibration    20          0.736              1.551              1.115
 Vibration    21          0.744              1.529              1.069
 Vibration    22          0.763              1.479              0.978
 Vibration    23          0.790              1.407              0.862
 Vibration    24          0.836              1.296              0.712
 Vibration    25          0.860              1.238              0.645
 Vibration    26          0.880              1.194              0.597
 Vibration    27          0.899              1.152              0.556
 Vibration    28          0.964              1.020              0.440
 Vibration    29          0.973              1.003              0.427

                           ! Non-Optimized Parameters !
 Normal termination of Gaussian 16 at Sun Dec 13 17:44:43 2020.

 ----------------------------------------------------------------------
 # B3LYP/6-311++G(d,p) empiricaldispersion=gd3bj scf=xqc pop=npa geom=c
 heck
 ----------------------------------------------------------------------

 ----------------------------------------
 CID_138994043_JID_10230_Energie_neutraal
 ----------------------------------------
 Structure from the checkpoint file:  "JID_10230.chk"
 Charge =  0 Multiplicity = 1

 SCF Done:  E(RB3LYP) =  -1294.01519819     A.U. after   16 cycles
 Normal termination of Gaussian 16 at Sun Dec 13 17:53:56 2020.

 ----------------------------------------------------------------------
 # B3LYP/6-311++G(d,p) empiricaldispersion=gd3bj scf=xqc pop=npa geom=c
 heck
 ----------------------------------------------------------------------

 --------------------------------------
 CID_138994043_JID_10230_Energie_kation
 --------------------------------------
 Structure from the checkpoint file:  "JID_10230.chk"
 Charge =  1 Multiplicity = 2

 SCF Done:  E(UB3LYP) =  -1293.70087777     A.U. after   28 cycles
 Normal termination of Gaussian 16 at Sun Dec 13 18:16:41 2020.
 Gaussian 16:  ES64L-G16RevA.03 25-Dec-2016

 ----------------------------------------------------------------------
 # B3LYP/6-311++G(d,p) empiricaldispersion=gd3bj scf=xqc pop=npa geom=c
 heck
 ----------------------------------------------------------------------

 -------------------------------------
 CID_138994043_JID_10230_Energie_anion
 -------------------------------------
 Structure from the checkpoint file:  "JID_10230.chk"
 Charge = -1 Multiplicity = 2

                         Standard orientation:
 ---------------------------------------------------------------------
 Center     Atomic      Atomic             Coordinates (Angstroms)
 Number     Number       Type             X           Y           Z
 ---------------------------------------------------------------------
      1          6           0        3.924719   -1.916400   -1.272569
      2          6           0        4.171470   -0.739142   -0.324582
      3          6           0        5.446501    0.020415   -0.709016
      4          6           0        2.957366    0.169945   -0.344619
      5          7           0        3.025490    1.450432   -0.616969
      6          8           0        1.686666    1.878560   -0.510647
      7          6           0        0.964730    0.786094   -0.174696
      8          7           0        1.688984   -0.291803   -0.058342
      9          6           0       -0.467737    0.953957    0.001787
     10          6           0       -1.140461    2.140495   -0.160528
     11         16           0       -2.827072    1.916152    0.127421
     12          6           0       -2.495591    0.212430    0.451935
     13          7           0       -1.250674   -0.131050    0.346465
     14          6           0       -3.628337   -0.704748    0.843006
     15          6           0       -3.580961   -2.067328    0.097324
     16          6           0       -4.933499   -2.113585   -0.643690
     17          6           0       -5.310817   -0.635216   -0.728973
     18          8           0       -4.874838   -0.086060    0.520680
     19          8           0        4.281218   -1.344421    0.968358
     20          6           0        4.446549   -0.463708    2.065062
     21          1           0        3.820263   -1.567097   -2.304528
     22          1           0        3.013777   -2.442538   -0.978817
     23          1           0        4.771721   -2.606357   -1.213461
     24          1           0        5.389344    0.366032   -1.744884
     25          1           0        5.608464    0.898568   -0.079558
     26          1           0        6.301296   -0.654873   -0.606463
     27          1           0       -0.726300    3.098664   -0.439861
     28          1           0       -3.611417   -0.832135    1.931116
     29          1           0       -2.734358   -2.086773   -0.592568
     30          1           0       -3.456895   -2.898679    0.794620
     31          1           0       -4.862305   -2.591894   -1.624750
     32          1           0       -5.680855   -2.652280   -0.052340
     33          1           0       -4.794607   -0.139577   -1.565606
     34          1           0       -6.382727   -0.442207   -0.811868
     35          1           0        5.407867    0.067014    2.035537
     36          1           0        3.637815    0.277639    2.126286
     37          1           0        4.417494   -1.088899    2.960568
 ---------------------------------------------------------------------

 SCF Done:  E(UB3LYP) =  -1294.02903212     A.U. after   27 cycles

 The electronic state is 2-A.
 Alpha  occ. eigenvalues --  -88.73167 -19.05377 -19.02872 -19.01971 -14.21144
 Alpha  occ. eigenvalues --  -14.17914 -14.15843 -10.13291 -10.12652 -10.12590
 Alpha  occ. eigenvalues --  -10.10946 -10.10858 -10.09226 -10.09209 -10.08583
 Alpha  occ. eigenvalues --  -10.07543 -10.06205 -10.05952 -10.05672 -10.03398
 Alpha  occ. eigenvalues --   -7.81809  -5.78086  -5.77732  -5.77460  -1.00660
 Alpha  occ. eigenvalues --   -0.94799  -0.93281  -0.82738  -0.78498  -0.72985
 Alpha  occ. eigenvalues --   -0.69286  -0.68213  -0.66213  -0.65486  -0.60449
 Alpha  occ. eigenvalues --   -0.59500  -0.57456  -0.52433  -0.51612  -0.50869
 Alpha  occ. eigenvalues --   -0.48270  -0.45631  -0.42753  -0.42046  -0.41090
 Alpha  occ. eigenvalues --   -0.39514  -0.38631  -0.37427  -0.36215  -0.35103
 Alpha  occ. eigenvalues --   -0.34179  -0.33254  -0.32720  -0.32371  -0.31999
 Alpha  occ. eigenvalues --   -0.30516  -0.29628  -0.29223  -0.28170  -0.27872
 Alpha  occ. eigenvalues --   -0.26721  -0.26628  -0.25633  -0.25540  -0.25404
 Alpha  occ. eigenvalues --   -0.23718  -0.23329  -0.22121  -0.20970  -0.19501
 Alpha  occ. eigenvalues --   -0.18447  -0.17140  -0.16932  -0.15999  -0.15077
 Alpha  occ. eigenvalues --   -0.14755  -0.13891  -0.10069   0.04215
 Alpha virt. eigenvalues --    0.06435   0.07488   0.08379   0.08768   0.09161
 Alpha virt. eigenvalues --    0.09610   0.09945   0.10698   0.11011   0.11291
 Alpha virt. eigenvalues --    0.11642   0.11855   0.12442   0.13060   0.13268

  Beta  occ. eigenvalues --  -88.73099 -19.05145 -19.02869 -19.01963 -14.20867
  Beta  occ. eigenvalues --  -14.17974 -14.15767 -10.13292 -10.12659 -10.12589
  Beta  occ. eigenvalues --  -10.10946 -10.10584 -10.09215 -10.09120 -10.08580
  Beta  occ. eigenvalues --  -10.07537 -10.06205 -10.05943 -10.05671 -10.02787
  Beta  occ. eigenvalues --   -7.81748  -5.78058  -5.77708  -5.77228  -1.00263
  Beta  occ. eigenvalues --   -0.94789  -0.93265  -0.82635  -0.78235  -0.72600
  Beta  occ. eigenvalues --   -0.69267  -0.68113  -0.66116  -0.64972  -0.60283
  Beta  occ. eigenvalues --   -0.59299  -0.57452  -0.52348  -0.51409  -0.50818
  Beta  occ. eigenvalues --   -0.47624  -0.45393  -0.42529  -0.41968  -0.41032
  Beta  occ. eigenvalues --   -0.39410  -0.38513  -0.37312  -0.36143  -0.34937
  Beta  occ. eigenvalues --   -0.33714  -0.32893  -0.32601  -0.32316  -0.31809
  Beta  occ. eigenvalues --   -0.30393  -0.29578  -0.28995  -0.28021  -0.27843
  Beta  occ. eigenvalues --   -0.26628  -0.26311  -0.25556  -0.25454  -0.25240
  Beta  occ. eigenvalues --   -0.23524  -0.23232  -0.21776  -0.20931  -0.19149
  Beta  occ. eigenvalues --   -0.17562  -0.17086  -0.15999  -0.15440  -0.14942
  Beta  occ. eigenvalues --   -0.13827  -0.13573  -0.08193
  Beta virt. eigenvalues --    0.06385   0.07462   0.08318   0.08737   0.09082
  Beta virt. eigenvalues --    0.09583   0.09942   0.10471   0.10733   0.11174
  Beta virt. eigenvalues --    0.11397   0.11777   0.12310   0.12453   0.13114

 Mulliken charges and spin densities:
               1          2
     1  C   -0.645248   0.010643
     2  C    0.281499  -0.034845
     3  C   -0.601125   0.001696
     4  C   -0.320522   0.001761
     5  N   -0.383512   0.134651
     6  O    0.195022   0.049970
     7  C   -0.058674   0.178495
     8  N    0.046319   0.031801
     9  C   -1.042647  -0.004552
    10  C    0.387378   0.451937
    11  S   -0.511382   0.135288
    12  C   -0.118370   0.025605
    13  N    0.183844  -0.030480
    14  C    0.376249  -0.035665
    15  C   -0.403450  -0.051475
    16  C   -0.307262  -0.046121
    17  C   -0.226674  -0.006874
    18  O   -0.104641  -0.006528
    19  O   -0.035982   0.006739
    20  C   -0.241361   0.005591
    21  H    0.140639  -0.000227
    22  H    0.186657   0.002041
    23  H    0.138633   0.006014
    24  H    0.165681   0.001657
    25  H    0.170306   0.002042
    26  H    0.146598   0.000184
    27  H    0.254063  -0.030976
    28  H    0.117335   0.111480
    29  H    0.195850   0.007204
    30  H    0.102376   0.025710
    31  H    0.114770   0.005734
    32  H    0.092702   0.051175
    33  H    0.128554  -0.002023
    34  H    0.142114   0.001856
    35  H    0.095692  -0.000107
    36  H    0.195829   0.000593
    37  H    0.142738   0.000009
 Sum of Mulliken charges =  -1.00000   1.00000

 Dipole moment (field-independent basis, Debye):
    X=             -0.7227    Y=             -3.1682    Z=             -0.9399  Tot=              3.3827
 Quadrupole moment (field-independent basis, Debye-Ang):
   XX=           -174.1003   YY=           -148.8501   ZZ=           -132.4970
   XY=              6.9164   XZ=              8.9576   YZ=              3.9518

 Summary of Natural Population Analysis:

                                       Natural Population
                Natural  -----------------------------------------------
    Atom  No    Charge         Core      Valence    Rydberg      Total
 -----------------------------------------------------------------------
      C    1   -0.28375      0.99962     2.27846    0.00567     3.28375
      C    2    0.11917      0.99949     1.86675    0.01459     2.88083
      C    3   -0.29797      0.99963     2.29270    0.00564     3.29797
      C    4    0.14150      0.99959     1.83684    0.02207     2.85850
      N    5   -0.07211      0.99965     2.56071    0.01175     3.57211
      O    6   -0.15842      0.99986     3.14827    0.01029     4.15842
      C    7    0.32075      0.99947     1.66129    0.01849     2.67925
      N    8   -0.25771      0.99967     2.75144    0.00661     3.75771
      C    9    0.00310      0.99945     1.98370    0.01375     2.99690
      C   10   -0.06583      0.99952     2.05698    0.00933     3.06583
      S   11    0.20302      4.99943     2.77616    0.02139     7.79698
      C   12    0.02903      0.99959     1.95362    0.01775     2.97097
      N   13   -0.24170      0.99962     2.73015    0.01193     3.74170
      C   14    0.04271      0.99950     1.93911    0.01867     2.95729
      C   15   -0.19973      0.99963     2.19216    0.00794     3.19973
      C   16   -0.20533      0.99964     2.19904    0.00665     3.20533
      C   17   -0.01280      0.99961     2.00294    0.01026     3.01280
      O   18   -0.30064      0.99990     3.29149    0.00926     4.30064
      O   19   -0.30340      0.99987     3.29193    0.01160     4.30340
      C   20   -0.10086      0.99961     2.09254    0.00872     3.10086
      H   21    0.09829      0.00000     0.40098    0.00073     0.40171
      H   22    0.11529      0.00000     0.38372    0.00099     0.38471
      H   23    0.09471      0.00000     0.40432    0.00097     0.40529
      H   24    0.10611      0.00000     0.39297    0.00091     0.39389
      H   25    0.10600      0.00000     0.39308    0.00092     0.39400
      H   26    0.09498      0.00000     0.40406    0.00096     0.40502
      H   27    0.10491      0.00000     0.39431    0.00078     0.39509
      H   28    0.09835      0.00000     0.39995    0.00170     0.40165
      H   29    0.11198      0.00000     0.38667    0.00135     0.38802
      H   30    0.10091      0.00000     0.39766    0.00143     0.39909
      H   31    0.09906      0.00000     0.40000    0.00094     0.40094
      H   32    0.09373      0.00000     0.40463    0.00164     0.40627
      H   33    0.08251      0.00000     0.41609    0.00140     0.41749
      H   34    0.08687      0.00000     0.41203    0.00109     0.41313
      H   35    0.07287      0.00000     0.42568    0.00145     0.42713
      H   36    0.08883      0.00000     0.40982    0.00135     0.41117
      H   37    0.08625      0.00000     0.41289    0.00086     0.41375
 =======================================================================
   * Total *    0.00067     23.99236    53.74516    0.26181    77.99933

 Normal termination of Gaussian 16 at Sun Dec 13 18:37:54 2020.
