 Gaussian 16, Revision A.03,

 -----------------------------------------------------------
 # opt freq B3LYP/6-31G(d) empiricaldispersion=gd3bj scf=xqc
 -----------------------------------------------------------

 ------------------------------
 CID_61453450_JID_5217_neutraal
 ------------------------------
 Symbolic Z-matrix:
 Charge =  0 Multiplicity = 1

 SCF Done:  E(RB3LYP) =  -978.245534137     A.U. after   14 cycles
 SCF Done:  E(RB3LYP) =  -978.249072362     A.U. after   12 cycles
 SCF Done:  E(RB3LYP) =  -978.249028771     A.U. after   13 cycles
 SCF Done:  E(RB3LYP) =  -978.250627480     A.U. after   12 cycles
 SCF Done:  E(RB3LYP) =  -978.251550186     A.U. after   12 cycles
 SCF Done:  E(RB3LYP) =  -978.251936112     A.U. after   13 cycles
 SCF Done:  E(RB3LYP) =  -978.252471517     A.U. after   11 cycles
 SCF Done:  E(RB3LYP) =  -978.252580334     A.U. after   11 cycles
 SCF Done:  E(RB3LYP) =  -978.252626646     A.U. after   11 cycles
 SCF Done:  E(RB3LYP) =  -978.252640983     A.U. after   10 cycles
 SCF Done:  E(RB3LYP) =  -978.252644974     A.U. after    9 cycles
 SCF Done:  E(RB3LYP) =  -978.252646100     A.U. after    9 cycles
 SCF Done:  E(RB3LYP) =  -978.252646439     A.U. after    7 cycles
 SCF Done:  E(RB3LYP) =  -978.252646500     A.U. after    7 cycles
 Optimization completed.
    -- Stationary point found.
 Normal termination of Gaussian 16 at Thu Dec 10 14:57:20 2020.

 --------------------------------------------------------------------
 #N Geom=AllCheck Guess=TCheck SCRF=Check GenChk RB3LYP/6-31G(d) Freq
 --------------------------------------------------------------------

 Structure from the checkpoint file:  "JID_5217.chk"
 ------------------------------
 CID_61453450_JID_5217_neutraal
 ------------------------------
 Charge =  0 Multiplicity = 1

 SCF Done:  E(RB3LYP) =  -978.252646500     A.U. after    1 cycles

  Exact polarizability: 179.432   2.168 146.059  -4.101 -14.532 127.504
 Approx polarizability: 251.884  -2.280 215.584  -2.567 -35.834 204.986

                      1                      2                      3
                      A                      A                      A
 Frequencies --     20.7101                25.7871                48.7232
 Red. masses --      3.8380                 3.7149                 4.6433
 Frc consts  --      0.0010                 0.0015                 0.0065
 IR Inten    --      0.3869                 0.1372                 0.1483

                      4                      5                      6
                      A                      A                      A
 Frequencies --     54.3011                70.1034                85.6870
 Red. masses --      3.6176                 3.2172                 3.5564
 Frc consts  --      0.0063                 0.0093                 0.0154
 IR Inten    --      1.1684                 0.6666                 0.2933

                      7                      8                      9
                      A                      A                      A
 Frequencies --    120.1346               153.2135               200.2789
 Red. masses --      3.1419                 3.5587                 1.7645
 Frc consts  --      0.0267                 0.0492                 0.0417
 IR Inten    --      2.2035                 0.4588                19.3438

                     10                     11                     12
                      A                      A                      A
 Frequencies --    225.4989               234.6289               263.9164
 Red. masses --      1.8915                 2.4604                 1.6724
 Frc consts  --      0.0567                 0.0798                 0.0686
 IR Inten    --      0.9483                 4.3667                15.3011

                     13                     14                     15
                      A                      A                      A
 Frequencies --    274.9517               277.7907               301.0307
 Red. masses --      1.5368                 1.2931                 1.8834
 Frc consts  --      0.0685                 0.0588                 0.1006
 IR Inten    --      1.0264                 6.2577                 8.7986

                     16                     17                     18
                      A                      A                      A
 Frequencies --    318.4330               348.0733               380.2240
 Red. masses --      2.3344                 2.0228                 2.2059
 Frc consts  --      0.1395                 0.1444                 0.1879
 IR Inten    --      5.8884                 1.7452                 3.0232

                     19                     20                     21
                      A                      A                      A
 Frequencies --    381.5967               449.1743               472.1069
 Red. masses --      2.2324                 2.1941                 2.9954
 Frc consts  --      0.1915                 0.2608                 0.3934
 IR Inten    --      1.4685                 3.6253                 8.4973

                     22                     23                     24
                      A                      A                      A
 Frequencies --    494.8747               522.3625               574.1836
 Red. masses --      4.0686                 2.5136                 3.1570
 Frc consts  --      0.5871                 0.4041                 0.6132
 IR Inten    --      2.9075                 4.4459                 0.7228

                     25                     26                     27
                      A                      A                      A
 Frequencies --    605.3920               611.0937               699.3342
 Red. masses --      6.2380                 2.9793                 1.2122
 Frc consts  --      1.3470                 0.6555                 0.3493
 IR Inten    --      2.8898                 3.8967                52.9925

                     28                     29                     30
                      A                      A                      A
 Frequencies --    718.3829               749.5564               758.5830
 Red. masses --      2.0470                 5.6540                 3.1878
 Frc consts  --      0.6224                 1.8716                 1.0808
 IR Inten    --     10.3519                 1.4875                 2.6439

                     31                     32                     33
                      A                      A                      A
 Frequencies --    775.1997               814.1647               843.7058
 Red. masses --      1.9648                 2.1478                 1.3675
 Frc consts  --      0.6957                 0.8388                 0.5735
 IR Inten    --      2.2776                 2.8806                 9.4170

                     34                     35                     36
                      A                      A                      A
 Frequencies --    864.8107               877.0916               892.0250
 Red. masses --      4.0233                 1.3455                 2.2936
 Frc consts  --      1.7729                 0.6098                 1.0753
 IR Inten    --     21.5433               147.9977                 8.4473

                     37                     38                     39
                      A                      A                      A
 Frequencies --    911.4354               923.3739               932.8674
 Red. masses --      1.3390                 1.9948                 1.2295
 Frc consts  --      0.6554                 1.0021                 0.6304
 IR Inten    --      1.5883                 1.6470                 0.2197

                     40                     41                     42
                      A                      A                      A
 Frequencies --    949.2833               956.8166               987.9155
 Red. masses --      1.8446                 1.3983                 2.0093
 Frc consts  --      0.9793                 0.7543                 1.1554
 IR Inten    --      0.4965                 0.0312                13.6959

                     43                     44                     45
                      A                      A                      A
 Frequencies --   1020.9676              1053.7644              1070.0419
 Red. masses --      1.6908                 1.8176                 1.7444
 Frc consts  --      1.0384                 1.1892                 1.1768
 IR Inten    --      2.0000                35.2674                 4.5643

                     46                     47                     48
                      A                      A                      A
 Frequencies --   1078.2616              1097.7581              1112.5092
 Red. masses --      2.0986                 1.7076                 1.2644
 Frc consts  --      1.4376                 1.2124                 0.9220
 IR Inten    --     24.0701                17.4534                 2.6644

                     49                     50                     51
                      A                      A                      A
 Frequencies --   1128.9179              1143.3219              1151.4864
 Red. masses --      2.1506                 2.2690                 2.1849
 Frc consts  --      1.6149                 1.7475                 1.7069
 IR Inten    --      8.7427                 8.0016                11.9532

                     52                     53                     54
                      A                      A                      A
 Frequencies --   1161.3121              1191.2779              1219.6889
 Red. masses --      1.8564                 2.0328                 1.9218
 Frc consts  --      1.4751                 1.6997                 1.6844
 IR Inten    --     10.6416                 7.4589                29.2842

                     55                     56                     57
                      A                      A                      A
 Frequencies --   1228.6779              1243.4641              1259.5098
 Red. masses --      1.6381                 1.6502                 1.4913
 Frc consts  --      1.4571                 1.5033                 1.3939
 IR Inten    --     23.2484                 8.0363                13.5233

                     58                     59                     60
                      A                      A                      A
 Frequencies --   1295.8872              1316.5072              1343.6150
 Red. masses --      1.3397                 1.2027                 1.2981
 Frc consts  --      1.3256                 1.2281                 1.3808
 IR Inten    --      6.6064                 4.6690                13.2246

                     61                     62                     63
                      A                      A                      A
 Frequencies --   1363.8580              1367.0328              1386.3427
 Red. masses --      1.1450                 1.3477                 1.5268
 Frc consts  --      1.2549                 1.4839                 1.7289
 IR Inten    --      6.9782                 4.9109                39.3540

                     64                     65                     66
                      A                      A                      A
 Frequencies --   1395.4472              1407.8727              1414.6582
 Red. masses --      1.4010                 1.6841                 1.4812
 Frc consts  --      1.6074                 1.9667                 1.7464
 IR Inten    --     10.4431                 2.7318                15.1803

                     67                     68                     69
                      A                      A                      A
 Frequencies --   1425.3847              1436.4911              1447.2247
 Red. masses --      1.2675                 1.2529                 1.3830
 Frc consts  --      1.5173                 1.5233                 1.7067
 IR Inten    --     12.3034                 6.0151                 2.8251

                     70                     71                     72
                      A                      A                      A
 Frequencies --   1453.2465              1457.3229              1496.9638
 Red. masses --      1.3150                 1.3518                 6.0145
 Frc consts  --      1.6363                 1.6915                 7.9409
 IR Inten    --     13.4402                 9.3122                 6.2711

                     73                     74                     75
                      A                      A                      A
 Frequencies --   1499.7825              1511.4960              1514.3621
 Red. masses --      1.0956                 1.0601                 1.0684
 Frc consts  --      1.4520                 1.4269                 1.4436
 IR Inten    --      4.2499                 2.2998                 0.8063

                     76                     77                     78
                      A                      A                      A
 Frequencies --   1526.1800              1529.1129              1532.9821
 Red. masses --      1.0562                 1.0810                 1.0592
 Frc consts  --      1.4494                 1.4893                 1.4666
 IR Inten    --      1.3367                 4.3153                 9.5254

                     79                     80                     81
                      A                      A                      A
 Frequencies --   1535.9780              1546.0682              1550.8236
 Red. masses --      1.0787                 1.0704                 1.0840
 Frc consts  --      1.4994                 1.5075                 1.5360
 IR Inten    --      1.8913                 2.9076                 6.6608

                     82                     83                     84
                      A                      A                      A
 Frequencies --   1605.4312              1699.8691              2942.4469
 Red. masses --      5.1818                 1.0878                 1.0736
 Frc consts  --      7.8690                 1.8520                 5.4764
 IR Inten    --      0.2545                29.2125                65.0416

                     85                     86                     87
                      A                      A                      A
 Frequencies --   2965.9737              2969.7694              3043.9028
 Red. masses --      1.0730                 1.0723                 1.0617
 Frc consts  --      5.5616                 5.5722                 5.7958
 IR Inten    --    106.6969                61.3552                21.1517

                     88                     89                     90
                      A                      A                      A
 Frequencies --   3049.7929              3053.0745              3055.6282
 Red. masses --      1.0361                 1.0843                 1.0706
 Frc consts  --      5.6780                 5.9547                 5.8896
 IR Inten    --     27.1722                14.0419                 8.8806

                     91                     92                     93
                      A                      A                      A
 Frequencies --   3056.6257              3063.3517              3071.8189
 Red. masses --      1.0442                 1.0895                 1.0837
 Frc consts  --      5.7480                 6.0240                 6.0249
 IR Inten    --     33.1715                 3.4302                59.3203

                     94                     95                     96
                      A                      A                      A
 Frequencies --   3073.8193              3083.6687              3104.1963
 Red. masses --      1.0835                 1.0926                 1.1031
 Frc consts  --      6.0318                 6.1215                 6.2626
 IR Inten    --     19.5193                72.2356                60.4857

                     97                     98                     99
                      A                      A                      A
 Frequencies --   3116.2106              3121.0221              3125.7706
 Red. masses --      1.1018                 1.1000                 1.0991
 Frc consts  --      6.3036                 6.3131                 6.3268
 IR Inten    --     25.5751                13.3022                60.1317

                    100                    101                    102
                      A                      A                      A
 Frequencies --   3155.9320              3216.3380              3231.5801
 Red. masses --      1.1006                 1.0884                 1.0956
 Frc consts  --      6.4588                 6.6340                 6.7409
 IR Inten    --     27.3373                 9.3739                 4.9770

                    103                    104                    105
                      A                      A                      A
 Frequencies --   3272.4787              3465.6077              3548.0053
 Red. masses --      1.0968                 1.0498                 1.0919
 Frc consts  --      6.9202                 7.4287                 8.0985
 IR Inten    --      1.4649                 2.3394                 1.5127

 - Thermochemistry -
 -------------------
 Temperature   298.150 Kelvin.  Pressure   1.00000 Atm.
 Atom     1 has atomic number  6 and mass  12.00000

 Molecular mass:   226.15037 amu.
 Principal axes and moments of inertia in atomic units:
                           1         2         3
     Eigenvalues --  2284.454465676.827926760.79690
           X            0.99990  -0.01007  -0.00969
           Y            0.01006   0.99995  -0.00130
           Z            0.00970   0.00120   0.99995
 This molecule is an asymmetric top.
 Rotational symmetry number  1.
 Warning -- assumption of classical behavior for rotation
           may cause significant error
 Rotational temperatures (Kelvin)      0.03791     0.01526     0.01281
 Rotational constants (GHZ):           0.79001     0.31791     0.26694
 Zero-point vibrational energy     868349.7 (Joules/Mol)
                                  207.54056 (Kcal/Mol)
 Warning -- explicit consideration of  26 degrees of freedom as
           vibrations may cause significant error
 Vibrational temperatures:     29.80    37.10    70.10    78.13   100.86
          (Kelvin)            123.28   172.85   220.44   288.16   324.44
                              337.58   379.72   395.59   399.68   433.12
                              458.15   500.80   547.06   549.03   646.26
                              679.26   712.01   751.56   826.12   871.02
                              879.23  1006.19  1033.59  1078.44  1091.43
                             1115.34  1171.40  1213.90  1244.27  1261.94
                             1283.43  1311.35  1328.53  1342.19  1365.81
                             1376.65  1421.39  1468.94  1516.13  1539.55
                             1551.38  1579.43  1600.65  1624.26  1644.99
                             1656.73  1670.87  1713.98  1754.86  1767.79
                             1789.07  1812.15  1864.49  1894.16  1933.16
                             1962.29  1966.86  1994.64  2007.74  2025.61
                             2035.38  2050.81  2066.79  2082.23  2090.90
                             2096.76  2153.80  2157.85  2174.71  2178.83
                             2195.83  2200.05  2205.62  2209.93  2224.45
                             2231.29  2309.86  2445.73  4233.52  4267.37
                             4272.84  4379.50  4387.97  4392.69  4396.37
                             4397.80  4407.48  4419.66  4422.54  4436.71
                             4466.25  4483.53  4490.45  4497.29  4540.68
                             4627.59  4649.52  4708.37  4986.24  5104.79

 Zero-point correction=                           0.330737 (Hartree/Particle)
 Thermal correction to Energy=                    0.347703
 Thermal correction to Enthalpy=                  0.348647
 Thermal correction to Gibbs Free Energy=         0.284183
 Sum of electronic and zero-point Energies=           -977.921910
 Sum of electronic and thermal Energies=              -977.904944
 Sum of electronic and thermal Enthalpies=            -977.903999
 Sum of electronic and thermal Free Energies=         -977.968464

                     E (Thermal)             CV                S
                      KCal/Mol        Cal/Mol-Kelvin    Cal/Mol-Kelvin
 Total                  218.187             63.709            135.676
 Electronic               0.000              0.000              0.000
 Translational            0.889              2.981             42.150
 Rotational               0.889              2.981             32.839
 Vibrational            216.409             57.748             60.687
 Vibration     1          0.593              1.986              6.565
 Vibration     2          0.593              1.985              6.130
 Vibration     3          0.595              1.978              4.869
 Vibration     4          0.596              1.976              4.654
 Vibration     5          0.598              1.968              4.150
 Vibration     6          0.601              1.959              3.756
 Vibration     7          0.609              1.932              3.098
 Vibration     8          0.619              1.899              2.632
 Vibration     9          0.638              1.839              2.131
 Vibration    10          0.650              1.802              1.914
 Vibration    11          0.654              1.788              1.843
 Vibration    12          0.670              1.739              1.636
 Vibration    13          0.677              1.720              1.565
 Vibration    14          0.679              1.715              1.547
 Vibration    15          0.693              1.672              1.411
 Vibration    16          0.705              1.638              1.318
 Vibration    17          0.726              1.579              1.175
 Vibration    18          0.750              1.512              1.038
 Vibration    19          0.751              1.509              1.033
 Vibration    20          0.808              1.363              0.798
 Vibration    21          0.829              1.312              0.732
 Vibration    22          0.850              1.261              0.671
 Vibration    23          0.877              1.200              0.605
 Vibration    24          0.930              1.087              0.496
 Vibration    25          0.964              1.020              0.440
 Vibration    26          0.970              1.008              0.431

                           ! Non-Optimized Parameters !
 Normal termination of Gaussian 16 at Thu Dec 10 15:12:24 2020.

 ----------------------------------------------------------------------
 # B3LYP/6-311++G(d,p) empiricaldispersion=gd3bj scf=xqc pop=npa geom=c
 heck
 ----------------------------------------------------------------------

 --------------------------------------
 CID_61453450_JID_5217_Energie_neutraal
 --------------------------------------
 Structure from the checkpoint file:  "JID_5217.chk"
 Charge =  0 Multiplicity = 1

 SCF Done:  E(RB3LYP) =  -978.447610475     A.U. after   15 cycles
 Normal termination of Gaussian 16 at Thu Dec 10 15:20:31 2020.

 ----------------------------------------------------------------------
 # B3LYP/6-311++G(d,p) empiricaldispersion=gd3bj scf=xqc pop=npa geom=c
 heck
 ----------------------------------------------------------------------

 ------------------------------------
 CID_61453450_JID_5217_Energie_kation
 ------------------------------------
 Structure from the checkpoint file:  "JID_5217.chk"
 Charge =  1 Multiplicity = 2

 SCF Done:  E(UB3LYP) =  -978.170012634     A.U. after   28 cycles
 Normal termination of Gaussian 16 at Thu Dec 10 15:41:58 2020.
 Gaussian 16:  ES64L-G16RevA.03 25-Dec-2016

 ----------------------------------------------------------------------
 # B3LYP/6-311++G(d,p) empiricaldispersion=gd3bj scf=xqc pop=npa geom=c
 heck
 ----------------------------------------------------------------------

 -----------------------------------
 CID_61453450_JID_5217_Energie_anion
 -----------------------------------
 Structure from the checkpoint file:  "JID_5217.chk"
 Charge = -1 Multiplicity = 2

                         Standard orientation:
 ---------------------------------------------------------------------
 Center     Atomic      Atomic             Coordinates (Angstroms)
 Number     Number       Type             X           Y           Z
 ---------------------------------------------------------------------
      1          6           0       -0.572322    2.956120   -0.246992
      2          6           0        0.146514    1.862894    0.561808
      3          6           0       -0.673077    1.458439    1.793575
      4          7           0        0.586337    0.698170   -0.243425
      5          6           0        1.887876    0.918934   -0.880694
      6          6           0        3.063493    0.863043    0.105886
      7          6           0        3.069613   -0.380168    1.006519
      8          6           0        3.017332   -1.710346    0.252108
      9          7           0        4.168515   -1.859730   -0.648781
     10          6           0       -0.402305    0.158899   -1.177789
     11          6           0       -1.536708   -0.550599   -0.490162
     12          6           0       -1.464421   -1.557157    0.435217
     13          6           0       -2.743262   -1.994318    0.895337
     14          6           0       -3.778330   -1.315455    0.312248
     15         16           0       -3.197663   -0.128920   -0.814397
     16          1           0       -1.573940    2.637225   -0.554998
     17          1           0       -0.008378    3.233846   -1.144907
     18          1           0       -0.690614    3.856888    0.364934
     19          1           0        1.073826    2.302626    0.942316
     20          1           0       -1.674810    1.112456    1.529431
     21          1           0       -0.170068    0.654553    2.338672
     22          1           0       -0.779724    2.321124    2.462276
     23          1           0        2.021355    0.124793   -1.624115
     24          1           0        1.929120    1.869508   -1.445437
     25          1           0        3.992577    0.909238   -0.477789
     26          1           0        3.074377    1.758404    0.739447
     27          1           0        3.975985   -0.362881    1.623439
     28          1           0        2.206102   -0.336738    1.679276
     29          1           0        3.064750   -2.528007    0.981333
     30          1           0        2.039368   -1.799136   -0.253276
     31          1           0        4.153903   -2.786802   -1.070666
     32          1           0        4.084817   -1.203564   -1.423752
     33          1           0       -0.805149    0.914967   -1.873975
     34          1           0        0.123314   -0.571095   -1.804605
     35          1           0       -0.517981   -1.947636    0.791883
     36          1           0       -2.886032   -2.780359    1.629002
     37          1           0       -4.840576   -1.447482    0.464935
 ---------------------------------------------------------------------

 SCF Done:  E(UB3LYP) =  -978.434539307     A.U. after   33 cycles
 SCF Done:  E(UB3LYP) =  -978.434539306     a.u. after    1 cycles

 The electronic state is 2-A.
 Alpha  occ. eigenvalues --  -88.77732 -14.20372 -14.18588 -10.10539 -10.10312
 Alpha  occ. eigenvalues --  -10.10005 -10.09955 -10.08999 -10.08334 -10.08125
 Alpha  occ. eigenvalues --  -10.07133 -10.06462 -10.06459 -10.05896 -10.05742
 Alpha  occ. eigenvalues --   -7.86363  -5.82637  -5.82280  -5.81981  -0.82807
 Alpha  occ. eigenvalues --   -0.78172  -0.77622  -0.68756  -0.67828  -0.64515
 Alpha  occ. eigenvalues --   -0.63626  -0.59830  -0.59159  -0.56264  -0.52987
 Alpha  occ. eigenvalues --   -0.48051  -0.46620  -0.44905  -0.43262  -0.40742
 Alpha  occ. eigenvalues --   -0.39904  -0.39155  -0.37123  -0.36774  -0.34041
 Alpha  occ. eigenvalues --   -0.33666  -0.32418  -0.31589  -0.31152  -0.30392
 Alpha  occ. eigenvalues --   -0.30125  -0.29443  -0.28612  -0.28052  -0.27786
 Alpha  occ. eigenvalues --   -0.26397  -0.25627  -0.24895  -0.24704  -0.23646
 Alpha  occ. eigenvalues --   -0.23083  -0.23027  -0.21911  -0.15916  -0.14073
 Alpha  occ. eigenvalues --   -0.13632  -0.11587   0.04374
 Alpha virt. eigenvalues --    0.06079   0.06346   0.07046   0.07509   0.08111
 Alpha virt. eigenvalues --    0.08368   0.09061   0.09472   0.10197   0.10319
 Alpha virt. eigenvalues --    0.10834   0.11355   0.11682   0.12225   0.12442

  Beta  occ. eigenvalues --  -88.77722 -14.20366 -14.18542 -10.10530 -10.10304
  Beta  occ. eigenvalues --  -10.09941 -10.09905 -10.08966 -10.08314 -10.08123
  Beta  occ. eigenvalues --  -10.07124 -10.06448 -10.06441 -10.05893 -10.05734
  Beta  occ. eigenvalues --   -7.86353  -5.82632  -5.82276  -5.81951  -0.82782
  Beta  occ. eigenvalues --   -0.78111  -0.77549  -0.68720  -0.67781  -0.64446
  Beta  occ. eigenvalues --   -0.63575  -0.59765  -0.59129  -0.56212  -0.52920
  Beta  occ. eigenvalues --   -0.48000  -0.46552  -0.44848  -0.43190  -0.40690
  Beta  occ. eigenvalues --   -0.39849  -0.39112  -0.37069  -0.36731  -0.33994
  Beta  occ. eigenvalues --   -0.33622  -0.32387  -0.31525  -0.31110  -0.30352
  Beta  occ. eigenvalues --   -0.30086  -0.29399  -0.28556  -0.28014  -0.27720
  Beta  occ. eigenvalues --   -0.26354  -0.25591  -0.24863  -0.24651  -0.23605
  Beta  occ. eigenvalues --   -0.23049  -0.22999  -0.21882  -0.15797  -0.14011
  Beta  occ. eigenvalues --   -0.13393  -0.11527
  Beta virt. eigenvalues --    0.06281   0.06738   0.07087   0.07635   0.07897
  Beta virt. eigenvalues --    0.08322   0.08800   0.09304   0.09747   0.10464
  Beta virt. eigenvalues --    0.10473   0.10969   0.11753   0.11886   0.12495

 Mulliken charges and spin densities:
               1          2
     1  C    0.231996  -0.700441
     2  C   -0.823598   0.533832
     3  C   -0.292262  -0.234220
     4  N    0.372709   0.132385
     5  C   -0.097379  -0.228122
     6  C    0.627482  -0.978135
     7  C   -0.425295   0.305881
     8  C    0.939171  -1.405198
     9  N   -0.458437   0.108133
    10  C    2.110339  -3.401348
    11  C   -1.859797   2.720312
    12  C    0.120962   0.002821
    13  C    0.037242  -0.520168
    14  C   -0.222893   0.038078
    15  S   -0.168827   0.089246
    16  H    0.036637   0.098815
    17  H    0.030996   0.111030
    18  H   -0.104544   0.244084
    19  H    0.005621   0.141801
    20  H    0.210849  -0.066950
    21  H    0.017352   0.104476
    22  H   -0.032016   0.161800
    23  H    0.033033   0.126329
    24  H   -0.334184   0.454116
    25  H   -0.064309   0.249048
    26  H    0.004626   0.101809
    27  H    0.074133   0.074780
    28  H    0.142637  -0.035460
    29  H   -0.104595   0.269461
    30  H   -0.447462   0.592021
    31  H   -0.208838   0.450874
    32  H   -0.018392   0.233000
    33  H    0.090664   0.034178
    34  H   -0.216254   0.426092
    35  H    0.324869  -0.157750
    36  H   -0.303880   0.455901
    37  H   -0.228355   0.467488
 Sum of Mulliken charges =  -1.00000   1.00000

 Dipole moment (field-independent basis, Debye):
    X=             -4.1643    Y=              2.9624    Z=              2.4628  Tot=              5.6730
 Quadrupole moment (field-independent basis, Debye-Ang):
   XX=           -180.1867   YY=           -153.6973   ZZ=           -137.0660
   XY=              6.2145   XZ=             10.5582   YZ=             -4.0925

 Summary of Natural Population Analysis:

                                       Natural Population
                Natural  -----------------------------------------------
    Atom  No    Charge         Core      Valence    Rydberg      Total
 -----------------------------------------------------------------------
      C    1   -0.29859      0.99964     2.29333    0.00562     3.29859
      C    2   -0.00577      0.99959     1.99471    0.01147     3.00577
      C    3   -0.28741      0.99964     2.28156    0.00622     3.28741
      N    4   -0.28945      0.99970     2.77469    0.01506     3.78945
      C    5   -0.08296      0.99960     2.07167    0.01169     3.08296
      C    6   -0.19601      0.99962     2.18795    0.00845     3.19601
      C    7   -0.19241      0.99962     2.18482    0.00797     3.19241
      C    8   -0.09183      0.99963     2.08068    0.01152     3.09183
      N    9   -0.42498      0.99977     2.91474    0.01046     3.92498
      C   10   -0.10078      0.99954     2.08735    0.01390     3.10078
      C   11   -0.09107      0.99949     2.07690    0.01468     3.09107
      C   12   -0.12713      0.99944     2.11628    0.01141     3.12713
      C   13   -0.12662      0.99953     2.11598    0.01111     3.12662
      C   14   -0.19481      0.99954     2.18476    0.01051     3.19481
      S   15    0.20318      4.99939     2.77782    0.01962     7.79682
      H   16    0.09794      0.00000     0.40097    0.00109     0.40206
      H   17    0.10118      0.00000     0.39792    0.00090     0.39882
      H   18    0.10064      0.00000     0.39854    0.00082     0.39936
      H   19    0.09354      0.00000     0.40434    0.00212     0.40646
      H   20    0.10279      0.00000     0.39594    0.00127     0.39721
      H   21    0.10231      0.00000     0.39659    0.00110     0.39769
      H   22    0.09461      0.00000     0.40475    0.00064     0.40539
      H   23    0.09673      0.00000     0.40100    0.00227     0.40327
      H   24    0.08496      0.00000     0.41354    0.00150     0.41504
      H   25    0.10007      0.00000     0.39884    0.00109     0.39993
      H   26    0.09467      0.00000     0.40407    0.00127     0.40533
      H   27    0.09587      0.00000     0.40300    0.00113     0.40413
      H   28    0.09951      0.00000     0.39895    0.00153     0.40049
      H   29    0.08868      0.00000     0.41022    0.00109     0.41132
      H   30    0.08131      0.00000     0.41596    0.00272     0.41869
      H   31    0.17697      0.00000     0.32037    0.00266     0.32303
      H   32    0.17273      0.00000     0.32485    0.00242     0.32727
      H   33    0.08811      0.00000     0.41046    0.00143     0.41189
      H   34    0.11000      0.00000     0.38795    0.00205     0.39000
      H   35    0.11124      0.00000     0.38710    0.00166     0.38876
      H   36    0.10524      0.00000     0.39383    0.00093     0.39476
      H   37    0.10757      0.00000     0.39146    0.00097     0.39243
 =======================================================================
   * Total *   -0.00000     18.99374    42.80392    0.20235    62.00000

 Normal termination of Gaussian 16 at Thu Dec 10 16:07:41 2020.
