 Gaussian 16, Revision A.03,

 -----------------------------------------------------------
 # opt freq B3LYP/6-31G(d) empiricaldispersion=gd3bj scf=xqc
 -----------------------------------------------------------

 -------------------------------
 CID_144252308_JID_7487_neutraal
 -------------------------------
 Symbolic Z-matrix:
 Charge =  0 Multiplicity = 1

 SCF Done:  E(RB3LYP) =  -662.304023728     A.U. after   14 cycles
 SCF Done:  E(RB3LYP) =  -662.306520513     A.U. after   12 cycles
 SCF Done:  E(RB3LYP) =  -662.306516912     A.U. after   12 cycles
 SCF Done:  E(RB3LYP) =  -662.306704919     A.U. after   11 cycles
 SCF Done:  E(RB3LYP) =  -662.307142727     A.U. after   11 cycles
 SCF Done:  E(RB3LYP) =  -662.307240079     A.U. after   11 cycles
 SCF Done:  E(RB3LYP) =  -662.307381919     A.U. after   11 cycles
 SCF Done:  E(RB3LYP) =  -662.307403324     A.U. after   11 cycles
 SCF Done:  E(RB3LYP) =  -662.307424421     A.U. after   11 cycles
 SCF Done:  E(RB3LYP) =  -662.307432767     A.U. after    9 cycles
 SCF Done:  E(RB3LYP) =  -662.307460062     A.U. after   11 cycles
 SCF Done:  E(RB3LYP) =  -662.307460429     A.U. after    8 cycles
 SCF Done:  E(RB3LYP) =  -662.307460364     A.U. after    8 cycles
 SCF Done:  E(RB3LYP) =  -662.307460419     A.U. after    6 cycles
 SCF Done:  E(RB3LYP) =  -662.307460449     A.U. after    7 cycles
 Optimization completed.
    -- Stationary point found.
 Normal termination of Gaussian 16 at Fri Dec 11 12:38:30 2020.

 --------------------------------------------------------------------
 #N Geom=AllCheck Guess=TCheck SCRF=Check GenChk RB3LYP/6-31G(d) Freq
 --------------------------------------------------------------------

 Structure from the checkpoint file:  "JID_7487.chk"
 -------------------------------
 CID_144252308_JID_7487_neutraal
 -------------------------------
 Charge =  0 Multiplicity = 1

 SCF Done:  E(RB3LYP) =  -662.307460449     A.U. after    1 cycles

  Exact polarizability: 216.141  -3.570 177.318  -2.130  14.335 134.563
 Approx polarizability: 296.750  -5.833 266.621  -4.471  34.078 201.853

                      1                      2                      3
                      A                      A                      A
 Frequencies --     23.8276                27.4647                39.3955
 Red. masses --      1.0361                 3.4268                 3.3902
 Frc consts  --      0.0003                 0.0015                 0.0031
 IR Inten    --      0.2423                 0.0460                 0.0165

                      4                      5                      6
                      A                      A                      A
 Frequencies --     52.5305                58.6255                73.3683
 Red. masses --      3.2531                 3.4246                 2.8315
 Frc consts  --      0.0053                 0.0069                 0.0090
 IR Inten    --      0.0238                 0.0068                 0.0369

                      7                      8                      9
                      A                      A                      A
 Frequencies --     99.8248               102.0636               137.5912
 Red. masses --      2.4563                 3.1700                 2.9100
 Frc consts  --      0.0144                 0.0195                 0.0325
 IR Inten    --      0.0105                 0.2304                 0.6506

                     10                     11                     12
                      A                      A                      A
 Frequencies --    160.7375               179.0677               187.9550
 Red. masses --      2.3693                 1.1321                 2.4770
 Frc consts  --      0.0361                 0.0214                 0.0516
 IR Inten    --      0.3321                 0.0178                 0.3103

                     13                     14                     15
                      A                      A                      A
 Frequencies --    222.8390               258.5903               265.1613
 Red. masses --      3.1120                 1.9736                 2.2899
 Frc consts  --      0.0910                 0.0778                 0.0949
 IR Inten    --      0.2275                 0.2244                 0.8532

                     16                     17                     18
                      A                      A                      A
 Frequencies --    287.9270               299.0497               327.5844
 Red. masses --      1.5242                 2.3130                 2.8487
 Frc consts  --      0.0744                 0.1219                 0.1801
 IR Inten    --      0.6312                 0.5187                 0.1044

                     19                     20                     21
                      A                      A                      A
 Frequencies --    332.9095               366.7876               403.5336
 Red. masses --      2.7869                 3.0084                 2.5416
 Frc consts  --      0.1820                 0.2385                 0.2438
 IR Inten    --      0.0982                 0.6324                 0.3106

                     22                     23                     24
                      A                      A                      A
 Frequencies --    431.4736               453.6103               473.2418
 Red. masses --      1.9674                 2.0666                 3.6633
 Frc consts  --      0.2158                 0.2505                 0.4834
 IR Inten    --      0.4161                 2.7070                 0.3209

                     25                     26                     27
                      A                      A                      A
 Frequencies --    478.2994               504.0768               519.5243
 Red. masses --      2.7505                 2.7635                 2.0278
 Frc consts  --      0.3707                 0.4137                 0.3225
 IR Inten    --      5.1767                 1.0463                 4.5118

                     28                     29                     30
                      A                      A                      A
 Frequencies --    595.9057               618.5342               660.3184
 Red. masses --      3.4199                 2.9022                 1.8352
 Frc consts  --      0.7155                 0.6542                 0.4715
 IR Inten    --      0.7646                 0.1393                 4.3254

                     31                     32                     33
                      A                      A                      A
 Frequencies --    718.4427               734.9960               755.4125
 Red. masses --      2.9140                 3.1249                 3.1951
 Frc consts  --      0.8862                 0.9946                 1.0742
 IR Inten    --      3.7480                 2.4850                 0.9241

                     34                     35                     36
                      A                      A                      A
 Frequencies --    781.0521               826.6967               848.7672
 Red. masses --      3.6869                 1.2729                 2.3643
 Frc consts  --      1.3252                 0.5125                 1.0035
 IR Inten    --      1.3142                15.9335                 1.0517

                     37                     38                     39
                      A                      A                      A
 Frequencies --    887.1695               897.9161               908.8766
 Red. masses --      2.1041                 1.5645                 1.3935
 Frc consts  --      0.9757                 0.7432                 0.6782
 IR Inten    --      7.7345                 1.8940                 3.5916

                     40                     41                     42
                      A                      A                      A
 Frequencies --    931.9104               936.2572               936.5542
 Red. masses --      1.8799                 1.3632                 1.4491
 Frc consts  --      0.9619                 0.7040                 0.7489
 IR Inten    --      5.2954                18.9406                45.8828

                     43                     44                     45
                      A                      A                      A
 Frequencies --    949.3077               952.8340               966.9413
 Red. masses --      1.5936                 1.2933                 1.9834
 Frc consts  --      0.8461                 0.6918                 1.0926
 IR Inten    --      4.5268                 0.0801                 0.7374

                     46                     47                     48
                      A                      A                      A
 Frequencies --   1009.0338              1024.3018              1032.9333
 Red. masses --      1.7187                 2.0583                 1.4971
 Frc consts  --      1.0310                 1.2724                 0.9411
 IR Inten    --      3.2196                 9.6981                 2.8445

                     49                     50                     51
                      A                      A                      A
 Frequencies --   1038.3040              1043.5997              1048.9876
 Red. masses --      1.1382                 1.3629                 1.3866
 Frc consts  --      0.7230                 0.8745                 0.8990
 IR Inten    --     10.3813                 1.2950                 9.3379

                     52                     53                     54
                      A                      A                      A
 Frequencies --   1068.4544              1072.2035              1077.2786
 Red. masses --      1.7809                 1.5510                 1.5296
 Frc consts  --      1.1979                 1.0506                 1.0459
 IR Inten    --      3.5973                 3.5294                 9.9868

                     55                     56                     57
                      A                      A                      A
 Frequencies --   1088.0168              1114.9780              1139.2126
 Red. masses --      2.0961                 2.2134                 1.9000
 Frc consts  --      1.4620                 1.6212                 1.4528
 IR Inten    --      1.2298                 7.1801                 0.1923

                     58                     59                     60
                      A                      A                      A
 Frequencies --   1162.1157              1193.5457              1201.8810
 Red. masses --      1.9461                 1.6398                 1.9448
 Frc consts  --      1.5485                 1.3763                 1.6552
 IR Inten    --      7.6372                 1.8692                 1.4667

                     61                     62                     63
                      A                      A                      A
 Frequencies --   1242.8049              1254.1231              1277.8386
 Red. masses --      1.8107                 1.3791                 1.5096
 Frc consts  --      1.6478                 1.2780                 1.4524
 IR Inten    --      1.1209                 0.4950                 3.4615

                     64                     65                     66
                      A                      A                      A
 Frequencies --   1278.6767              1296.1662              1318.8884
 Red. masses --      1.9667                 1.4956                 1.6814
 Frc consts  --      1.8945                 1.4804                 1.7232
 IR Inten    --      1.7781                 1.5230                 7.5211

                     67                     68                     69
                      A                      A                      A
 Frequencies --   1326.8166              1332.4786              1339.4284
 Red. masses --      1.4193                 1.2461                 1.7315
 Frc consts  --      1.4721                 1.3035                 1.8302
 IR Inten    --      1.9647                 0.8814                 0.2618

                     70                     71                     72
                      A                      A                      A
 Frequencies --   1345.4630              1369.6685              1379.6456
 Red. masses --      1.4759                 1.3667                 1.6123
 Frc consts  --      1.5741                 1.5106                 1.8081
 IR Inten    --      1.0530                 3.8361                 2.8549

                     73                     74                     75
                      A                      A                      A
 Frequencies --   1403.5501              1413.2931              1435.1212
 Red. masses --      1.3228                 1.4413                 1.2273
 Frc consts  --      1.5353                 1.6962                 1.4893
 IR Inten    --      2.1805                 1.0041                 3.4808

                     76                     77                     78
                      A                      A                      A
 Frequencies --   1442.3471              1447.4106              1460.6162
 Red. masses --      1.2530                 1.2782                 2.2797
 Frc consts  --      1.5359                 1.5778                 2.8655
 IR Inten    --      0.4656                 1.9563                 1.2008

                     79                     80                     81
                      A                      A                      A
 Frequencies --   1475.2355              1477.7535              1510.3018
 Red. masses --      1.1794                 1.1954                 1.0979
 Frc consts  --      1.5122                 1.5380                 1.4755
 IR Inten    --      1.2026                 3.1673                 1.9956

                     82                     83                     84
                      A                      A                      A
 Frequencies --   1517.2440              1518.2533              1520.7620
 Red. masses --      1.0561                 1.0507                 1.0760
 Frc consts  --      1.4324                 1.4269                 1.4661
 IR Inten    --      0.3148                10.4832                 0.6399

                     85                     86                     87
                      A                      A                      A
 Frequencies --   1522.8414              1528.4088              1532.1064
 Red. masses --      1.0991                 1.0747                 1.1006
 Frc consts  --      1.5017                 1.4791                 1.5222
 IR Inten    --      9.6157                17.6014                17.6698

                     88                     89                     90
                      A                      A                      A
 Frequencies --   1534.1255              1554.6073              1632.5601
 Red. masses --      1.0716                 2.6909                 5.4944
 Frc consts  --      1.4860                 3.8317                 8.6279
 IR Inten    --      3.8284                19.9912                 2.6963

                     91                     92                     93
                      A                      A                      A
 Frequencies --   1676.5174              1731.5514              1732.5820
 Red. masses --      5.8248                 4.4577                 4.4886
 Frc consts  --      9.6461                 7.8746                 7.9387
 IR Inten    --      8.7764                 7.7657                 9.9060

                     94                     95                     96
                      A                      A                      A
 Frequencies --   3027.7813              3034.2663              3040.5122
 Red. masses --      1.0718                 1.0755                 1.0401
 Frc consts  --      5.7892                 5.8341                 5.6655
 IR Inten    --      4.8008                25.4810                42.6522

                     97                     98                     99
                      A                      A                      A
 Frequencies --   3042.1121              3049.0999              3050.2415
 Red. masses --      1.0387                 1.0468                 1.0514
 Frc consts  --      5.6638                 5.7341                 5.7637
 IR Inten    --     16.7790                33.7273                14.8861

                    100                    101                    102
                      A                      A                      A
 Frequencies --   3074.6545              3083.7507              3090.5739
 Red. masses --      1.0827                 1.0958                 1.1007
 Frc consts  --      6.0303                 6.1395                 6.1941
 IR Inten    --     27.1210                 6.9784                32.7833

                    103                    104                    105
                      A                      A                      A
 Frequencies --   3091.3881              3096.6414              3117.0910
 Red. masses --      1.1003                 1.0962                 1.1018
 Frc consts  --      6.1952                 6.1933                 6.3071
 IR Inten    --     20.8615                21.7622                33.3962

                    106                    107                    108
                      A                      A                      A
 Frequencies --   3123.8272              3124.5370              3125.4517
 Red. masses --      1.1024                 1.1004                 1.1013
 Frc consts  --      6.3383                 6.3297                 6.3387
 IR Inten    --     15.6585                 7.7834                66.9235

                    109                    110                    111
                      A                      A                      A
 Frequencies --   3150.1175              3151.4778              3159.1866
 Red. masses --      1.0642                 1.0590                 1.0850
 Frc consts  --      6.2220                 6.1971                 6.3802
 IR Inten    --     14.8409                23.7243                 8.2703

                    112                    113                    114
                      A                      A                      A
 Frequencies --   3163.9291              3170.8306              3175.5538
 Red. masses --      1.0899                 1.0866                 1.0886
 Frc consts  --      6.4284                 6.4366                 6.4680
 IR Inten    --      8.8718                14.3107                21.4112

                    115                    116                    117
                      A                      A                      A
 Frequencies --   3189.2676              3232.6067              3233.7035
 Red. masses --      1.0945                 1.1155                 1.1155
 Frc consts  --      6.5592                 6.8676                 6.8723
 IR Inten    --     31.4794                25.9955                19.4050

 - Thermochemistry -
 -------------------
 Temperature   298.150 Kelvin.  Pressure   1.00000 Atm.
 Atom     1 has atomic number  6 and mass  12.00000

 Molecular mass:   228.18780 amu.
 Principal axes and moments of inertia in atomic units:
                           1         2         3
     Eigenvalues --  2871.415326287.604037038.46995
           X            1.00000   0.00230   0.00187
           Y           -0.00236   0.99942   0.03409
           Z           -0.00179  -0.03410   0.99942
 This molecule is an asymmetric top.
 Rotational symmetry number  1.
 Warning -- assumption of classical behavior for rotation
           may cause significant error
 Rotational temperatures (Kelvin)      0.03016     0.01378     0.01231
 Rotational constants (GHZ):           0.62852     0.28703     0.25641
 Zero-point vibrational energy     960706.5 (Joules/Mol)
                                  229.61437 (Kcal/Mol)
 Warning -- explicit consideration of  29 degrees of freedom as
           vibrations may cause significant error
 Vibrational temperatures:     34.28    39.52    56.68    75.58    84.35
          (Kelvin)            105.56   143.63   146.85   197.96   231.27
                              257.64   270.43   320.62   372.05   381.51
                              414.26   430.27   471.32   478.98   527.73
                              580.59   620.79   652.64   680.89   688.17
                              725.25   747.48   857.38   889.93   950.05
                             1033.68  1057.50  1086.87  1123.76  1189.43
                             1221.19  1276.44  1291.90  1307.67  1340.81
                             1347.07  1347.49  1365.84  1370.92  1391.21
                             1451.77  1473.74  1486.16  1493.89  1501.51
                             1509.26  1537.27  1542.66  1549.96  1565.41
                             1604.20  1639.07  1672.03  1717.25  1729.24
                             1788.12  1804.40  1838.52  1839.73  1864.89
                             1897.59  1908.99  1917.14  1927.14  1935.82
                             1970.65  1985.00  2019.40  2033.41  2064.82
                             2075.22  2082.50  2101.50  2122.53  2126.16
                             2172.99  2182.98  2184.43  2188.04  2191.03
                             2199.04  2204.36  2207.26  2236.73  2348.89
                             2412.13  2491.32  2492.80  4356.30  4365.63
                             4374.62  4376.92  4386.97  4388.62  4423.74
                             4436.83  4446.65  4447.82  4455.38  4484.80
                             4494.49  4495.51  4496.83  4532.32  4534.27
                             4545.36  4552.19  4562.12  4568.91  4588.64
                             4651.00  4652.58

 Zero-point correction=                           0.365914 (Hartree/Particle)
 Thermal correction to Energy=                    0.384962
 Thermal correction to Enthalpy=                  0.385907
 Thermal correction to Gibbs Free Energy=         0.316811
 Sum of electronic and zero-point Energies=           -661.941547
 Sum of electronic and thermal Energies=              -661.922498
 Sum of electronic and thermal Enthalpies=            -661.921554
 Sum of electronic and thermal Free Energies=         -661.990650

                     E (Thermal)             CV                S
                      KCal/Mol        Cal/Mol-Kelvin    Cal/Mol-Kelvin
 Total                  241.568             70.838            145.424
 Electronic               0.000              0.000              0.000
 Translational            0.889              2.981             42.177
 Rotational               0.889              2.981             33.207
 Vibrational            239.790             64.877             70.040
 Vibration     1          0.593              1.985              6.287
 Vibration     2          0.593              1.984              6.005
 Vibration     3          0.594              1.981              5.289
 Vibration     4          0.596              1.977              4.720
 Vibration     5          0.596              1.974              4.503
 Vibration     6          0.599              1.967              4.061
 Vibration     7          0.604              1.949              3.458
 Vibration     8          0.604              1.948              3.415
 Vibration     9          0.614              1.916              2.837
 Vibration    10          0.622              1.890              2.541
 Vibration    11          0.629              1.868              2.338
 Vibration    12          0.633              1.856              2.248
 Vibration    13          0.649              1.806              1.936
 Vibration    14          0.667              1.748              1.671
 Vibration    15          0.671              1.737              1.628
 Vibration    16          0.685              1.696              1.486
 Vibration    17          0.692              1.675              1.422
 Vibration    18          0.711              1.620              1.272
 Vibration    19          0.715              1.610              1.246
 Vibration    20          0.740              1.541              1.093
 Vibration    21          0.769              1.462              0.950
 Vibration    22          0.793              1.402              0.854
 Vibration    23          0.812              1.353              0.785
 Vibration    24          0.830              1.309              0.729
 Vibration    25          0.835              1.298              0.715
 Vibration    26          0.859              1.241              0.648
 Vibration    27          0.875              1.207              0.611
 Vibration    28          0.954              1.040              0.457
 Vibration    29          0.978              0.993              0.419

 Optimization completed.
    -- Stationary point found.
 Normal termination of Gaussian 16 at Fri Dec 11 13:00:15 2020.

 ----------------------------------------------------------------------
 # B3LYP/6-311++G(d,p) empiricaldispersion=gd3bj scf=xqc pop=npa geom=c
 heck
 ----------------------------------------------------------------------

 ---------------------------------------
 CID_144252308_JID_7487_Energie_neutraal
 ---------------------------------------
 Structure from the checkpoint file:  "JID_7487.chk"
 Charge =  0 Multiplicity = 1

 SCF Done:  E(RB3LYP) =  -662.484480937     A.U. after   14 cycles
 Normal termination of Gaussian 16 at Fri Dec 11 13:09:26 2020.

 ----------------------------------------------------------------------
 # B3LYP/6-311++G(d,p) empiricaldispersion=gd3bj scf=xqc pop=npa geom=c
 heck
 ----------------------------------------------------------------------

 -------------------------------------
 CID_144252308_JID_7487_Energie_kation
 -------------------------------------
 Structure from the checkpoint file:  "JID_7487.chk"
 Charge =  1 Multiplicity = 2

 SCF Done:  E(UB3LYP) =  -662.189799965     A.U. after   26 cycles
 Normal termination of Gaussian 16 at Fri Dec 11 13:33:18 2020.
 Gaussian 16:  ES64L-G16RevA.03 25-Dec-2016

 ----------------------------------------------------------------------
 # B3LYP/6-311++G(d,p) empiricaldispersion=gd3bj scf=xqc pop=npa geom=c
 heck
 ----------------------------------------------------------------------

 ------------------------------------
 CID_144252308_JID_7487_Energie_anion
 ------------------------------------
 Structure from the checkpoint file:  "JID_7487.chk"
 Charge = -1 Multiplicity = 2

                         Standard orientation:
 ---------------------------------------------------------------------
 Center     Atomic      Atomic             Coordinates (Angstroms)
 Number     Number       Type             X           Y           Z
 ---------------------------------------------------------------------
      1          6           0       -3.320069   -2.399989   -1.479693
      2          6           0       -2.845941   -1.200976   -0.694939
      3          6           0       -1.518715   -1.095803   -0.272341
      4          6           0       -1.047600   -0.009338    0.474579
      5          6           0       -1.949821    1.010580    0.836132
      6          6           0       -3.279282    0.908964    0.408369
      7          6           0       -3.725058   -0.170502   -0.348139
      8          6           0       -1.531791    2.192683    1.681550
      9          6           0        0.405939    0.026911    0.924708
     10          6           0        0.583207   -0.903271    2.139895
     11          6           0        1.417140   -0.290245   -0.207007
     12          6           0        1.160691    0.545264   -1.487893
     13          6           0        1.199725    2.030915   -1.270376
     14          6           0        2.167725    2.843263   -1.696655
     15          6           0        2.888605   -0.112389    0.271851
     16          6           0        3.575519   -1.411562    0.587556
     17          6           0        4.658822   -1.868272   -0.041460
     18          1           0       -2.488072   -2.903311   -1.982765
     19          1           0       -3.802559   -3.138611   -0.825901
     20          1           0       -4.054170   -2.115021   -2.241320
     21          1           0       -0.825691   -1.889581   -0.541150
     22          1           0       -3.978654    1.697633    0.675926
     23          1           0       -4.763421   -0.214724   -0.668260
     24          1           0       -1.124504    1.878621    2.650220
     25          1           0       -0.760340    2.803193    1.196236
     26          1           0       -2.387941    2.844373    1.879651
     27          1           0        0.632999    1.043518    1.261787
     28          1           0        0.429034   -1.950017    1.853137
     29          1           0        1.580990   -0.811183    2.580588
     30          1           0       -0.150210   -0.662648    2.916854
     31          1           0        1.290207   -1.341641   -0.497013
     32          1           0        1.913377    0.262940   -2.234255
     33          1           0        0.181465    0.268617   -1.895756
     34          1           0        0.361299    2.454403   -0.718203
     35          1           0        2.147257    3.912828   -1.505145
     36          1           0        3.016615    2.467728   -2.264860
     37          1           0        3.464002    0.411210   -0.499367
     38          1           0        2.906660    0.545876    1.151865
     39          1           0        3.128330   -2.019434    1.374230
     40          1           0        5.112387   -2.822129    0.214143
     41          1           0        5.136355   -1.300046   -0.837460
 ---------------------------------------------------------------------

 SCF Done:  E(UB3LYP) =  -662.468466290     A.U. after   33 cycles
 SCF Done:  E(UB3LYP) =  -662.468466290     a.u. after    1 cycles

 The electronic state is 2-A.
 Alpha  occ. eigenvalues --  -10.09063 -10.08954 -10.08787 -10.08750 -10.08709
 Alpha  occ. eigenvalues --  -10.08612 -10.08402 -10.08186 -10.08036 -10.07737
 Alpha  occ. eigenvalues --  -10.07724 -10.07634 -10.07549 -10.07422 -10.07421
 Alpha  occ. eigenvalues --  -10.07395 -10.07004  -0.77428  -0.74361  -0.70213
 Alpha  occ. eigenvalues --   -0.69961  -0.68607  -0.64741  -0.62927  -0.62739
 Alpha  occ. eigenvalues --   -0.59209  -0.56504  -0.54759  -0.51970  -0.48865
 Alpha  occ. eigenvalues --   -0.47775  -0.47015  -0.44910  -0.40275  -0.38906
 Alpha  occ. eigenvalues --   -0.38702  -0.38386  -0.36369  -0.35738  -0.34485
 Alpha  occ. eigenvalues --   -0.33980  -0.33245  -0.32542  -0.32450  -0.31797
 Alpha  occ. eigenvalues --   -0.31085  -0.30606  -0.30497  -0.29254  -0.28297
 Alpha  occ. eigenvalues --   -0.27744  -0.27383  -0.26556  -0.25604  -0.25144
 Alpha  occ. eigenvalues --   -0.24789  -0.23722  -0.22744  -0.22126  -0.18251
 Alpha  occ. eigenvalues --   -0.16916  -0.15366  -0.14173   0.04234
 Alpha virt. eigenvalues --    0.05969   0.05997   0.06541   0.07277   0.07542
 Alpha virt. eigenvalues --    0.07695   0.07953   0.08192   0.08498   0.08526
 Alpha virt. eigenvalues --    0.09055   0.09574   0.10101   0.10198   0.10788

  Beta  occ. eigenvalues --  -10.09058 -10.08947 -10.08783 -10.08746 -10.08709
  Beta  occ. eigenvalues --  -10.08608 -10.08396 -10.08177 -10.08030 -10.07720
  Beta  occ. eigenvalues --  -10.07708 -10.07624 -10.07520 -10.07402 -10.07395
  Beta  occ. eigenvalues --  -10.07385 -10.06981  -0.77411  -0.74346  -0.70192
  Beta  occ. eigenvalues --   -0.69945  -0.68584  -0.64719  -0.62894  -0.62704
  Beta  occ. eigenvalues --   -0.59185  -0.56451  -0.54719  -0.51940  -0.48834
  Beta  occ. eigenvalues --   -0.47740  -0.46979  -0.44882  -0.40239  -0.38887
  Beta  occ. eigenvalues --   -0.38670  -0.38356  -0.36344  -0.35705  -0.34462
  Beta  occ. eigenvalues --   -0.33950  -0.33215  -0.32515  -0.32423  -0.31771
  Beta  occ. eigenvalues --   -0.31054  -0.30582  -0.30460  -0.29232  -0.28265
  Beta  occ. eigenvalues --   -0.27719  -0.27362  -0.26530  -0.25582  -0.25114
  Beta  occ. eigenvalues --   -0.24762  -0.23700  -0.22724  -0.22108  -0.18234
  Beta  occ. eigenvalues --   -0.16897  -0.15336  -0.14135
  Beta virt. eigenvalues --    0.06035   0.06576   0.06705   0.06941   0.07527
  Beta virt. eigenvalues --    0.07811   0.07816   0.08177   0.08290   0.08845
  Beta virt. eigenvalues --    0.08912   0.09329   0.09796   0.10346   0.10511

 Mulliken charges and spin densities:
               1          2
     1  C    1.535490  -2.146904
     2  C    0.515941  -0.118939
     3  C   -1.352223   0.710943
     4  C   -0.663602   1.064225
     5  C   -0.628332   0.951506
     6  C    0.350893  -0.710255
     7  C    0.052202  -0.447741
     8  C    1.070144  -1.656143
     9  C   -0.419558   0.410340
    10  C    0.172703  -1.011667
    11  C    0.622995  -0.010420
    12  C   -0.289897  -0.325290
    13  C   -0.872241   1.015133
    14  C    0.428491  -1.040252
    15  C    0.435033  -0.835352
    16  C   -0.692054   1.009383
    17  C    0.202759  -0.971539
    18  H   -0.241386   0.386725
    19  H   -0.088120   0.257571
    20  H   -0.081390   0.222736
    21  H    0.161976  -0.040304
    22  H   -0.270491   0.416994
    23  H   -0.429569   0.588368
    24  H   -0.041114   0.216832
    25  H   -0.180399   0.332666
    26  H   -0.452104   0.603104
    27  H    0.491214  -0.307912
    28  H   -0.070293   0.248415
    29  H   -0.097359   0.240753
    30  H   -0.066584   0.219427
    31  H    0.024193   0.182924
    32  H   -0.012476   0.220761
    33  H    0.152988  -0.034659
    34  H    0.185546  -0.068998
    35  H   -0.207354   0.332163
    36  H   -0.015046   0.123230
    37  H    0.300454  -0.120451
    38  H   -0.154802   0.313242
    39  H   -0.056902   0.228414
    40  H   -0.217660   0.347343
    41  H   -0.102066   0.203628
 Sum of Mulliken charges =  -1.00000   1.00000

 Dipole moment (field-independent basis, Debye):
    X=              1.7979    Y=              0.2259    Z=             -1.2011  Tot=              2.1739
 Quadrupole moment (field-independent basis, Debye-Ang):
   XX=           -192.2383   YY=           -166.1226   ZZ=           -151.4230
   XY=              4.2864   XZ=             -1.8580   YZ=             -3.5996

 Summary of Natural Population Analysis:

                                       Natural Population
                Natural  -----------------------------------------------
    Atom  No    Charge         Core      Valence    Rydberg      Total
 -----------------------------------------------------------------------
      C    1   -0.28996      0.99964     2.28536    0.00496     3.28996
      C    2   -0.01695      0.99951     2.00741    0.01002     3.01695
      C    3   -0.10255      0.99946     2.09383    0.00926     3.10255
      C    4   -0.00454      0.99946     1.99269    0.01239     3.00454
      C    5   -0.02110      0.99946     2.01140    0.01025     3.02110
      C    6   -0.09311      0.99951     2.08344    0.01016     3.09311
      C    7   -0.10038      0.99951     2.09122    0.00965     3.10038
      C    8   -0.29440      0.99963     2.28896    0.00581     3.29440
      C    9   -0.12132      0.99955     2.11017    0.01160     3.12132
      C   10   -0.28041      0.99964     2.27426    0.00651     3.28041
      C   11   -0.09638      0.99957     2.08627    0.01054     3.09638
      C   12   -0.20649      0.99959     2.19780    0.00910     3.20649
      C   13   -0.08265      0.99956     2.07217    0.01092     3.08265
      C   14   -0.19301      0.99956     2.18722    0.00624     3.19301
      C   15   -0.21015      0.99959     2.20046    0.01010     3.21015
      C   16   -0.07822      0.99956     2.06826    0.01040     3.07822
      C   17   -0.19437      0.99956     2.18850    0.00632     3.19437
      H   18    0.10219      0.00000     0.39670    0.00111     0.39781
      H   19    0.10479      0.00000     0.39389    0.00132     0.39521
      H   20    0.10226      0.00000     0.39660    0.00114     0.39774
      H   21    0.09830      0.00000     0.39989    0.00181     0.40170
      H   22    0.09904      0.00000     0.39992    0.00104     0.40096
      H   23    0.09907      0.00000     0.39989    0.00104     0.40093
      H   24    0.10507      0.00000     0.39381    0.00112     0.39493
      H   25    0.10174      0.00000     0.39676    0.00150     0.39826
      H   26    0.10416      0.00000     0.39473    0.00111     0.39584
      H   27    0.10285      0.00000     0.39438    0.00276     0.39715
      H   28    0.09854      0.00000     0.40026    0.00120     0.40146
      H   29    0.09835      0.00000     0.40055    0.00110     0.40165
      H   30    0.10320      0.00000     0.39593    0.00087     0.39680
      H   31    0.09856      0.00000     0.39944    0.00200     0.40144
      H   32    0.09826      0.00000     0.40037    0.00137     0.40174
      H   33    0.11148      0.00000     0.38711    0.00141     0.38852
      H   34    0.09415      0.00000     0.40396    0.00189     0.40585
      H   35    0.09401      0.00000     0.40500    0.00099     0.40599
      H   36    0.08849      0.00000     0.41033    0.00118     0.41151
      H   37    0.10067      0.00000     0.39717    0.00216     0.39933
      H   38    0.10443      0.00000     0.39418    0.00139     0.39557
      H   39    0.09374      0.00000     0.40495    0.00131     0.40626
      H   40    0.09380      0.00000     0.40509    0.00111     0.40620
      H   41    0.08887      0.00000     0.40991    0.00122     0.41113
 =======================================================================
   * Total *   -0.00000     16.99236    45.82024    0.18740    63.00000

 Normal termination of Gaussian 16 at Fri Dec 11 14:04:05 2020.
