 Gaussian 16, Revision A.03,

 -----------------------------------------------------------
 # opt freq B3LYP/6-31G(d) empiricaldispersion=gd3bj scf=xqc
 -----------------------------------------------------------

 -------------------------------
 CID_151361675_JID_7823_neutraal
 -------------------------------
 Symbolic Z-matrix:
 Charge =  0 Multiplicity = 1

 SCF Done:  E(RB3LYP) =  -766.434206821     A.U. after   15 cycles
 SCF Done:  E(RB3LYP) =  -766.440268313     A.U. after   12 cycles
 SCF Done:  E(RB3LYP) =  -766.440639242     A.U. after   11 cycles
 SCF Done:  E(RB3LYP) =  -766.440666062     A.U. after    9 cycles
 SCF Done:  E(RB3LYP) =  -766.440645852     A.U. after   10 cycles
 SCF Done:  E(RB3LYP) =  -766.440666987     A.U. after   10 cycles
 SCF Done:  E(RB3LYP) =  -766.440670974     A.U. after    8 cycles
 SCF Done:  E(RB3LYP) =  -766.440672368     A.U. after    9 cycles
 SCF Done:  E(RB3LYP) =  -766.440366112     A.U. after   15 cycles
 SCF Done:  E(RB3LYP) =  -766.440685295     A.U. after   12 cycles
 SCF Done:  E(RB3LYP) =  -766.440716560     A.U. after   12 cycles
 SCF Done:  E(RB3LYP) =  -766.440733970     A.U. after   12 cycles
 SCF Done:  E(RB3LYP) =  -766.440736081     A.U. after    9 cycles
 SCF Done:  E(RB3LYP) =  -766.440736304     A.U. after    8 cycles
 SCF Done:  E(RB3LYP) =  -766.440736316     A.U. after    7 cycles
 Optimization completed.
    -- Stationary point found.
 Normal termination of Gaussian 16 at Fri Dec 11 13:15:17 2020.

 --------------------------------------------------------------------
 #N Geom=AllCheck Guess=TCheck SCRF=Check GenChk RB3LYP/6-31G(d) Freq
 --------------------------------------------------------------------

 Structure from the checkpoint file:  "JID_7823.chk"
 -------------------------------
 CID_151361675_JID_7823_neutraal
 -------------------------------
 Charge =  0 Multiplicity = 1

 SCF Done:  E(RB3LYP) =  -766.440736316     A.U. after    1 cycles

  Exact polarizability: 236.943   1.618 154.763  12.664  -2.026  80.576
 Approx polarizability: 338.734   5.152 278.067  27.069  -7.509 139.813

                      1                      2                      3
                      A                      A                      A
 Frequencies --     22.2489                39.6827                61.0366
 Red. masses --      6.1292                 4.8961                 5.4352
 Frc consts  --      0.0018                 0.0045                 0.0119
 IR Inten    --      1.0937                 1.2655                 1.4579

                      4                      5                      6
                      A                      A                      A
 Frequencies --    103.6485               131.1046               151.4653
 Red. masses --      3.8934                 2.5842                 4.2861
 Frc consts  --      0.0246                 0.0262                 0.0579
 IR Inten    --      0.0035                 1.0114                 0.9351

                      7                      8                      9
                      A                      A                      A
 Frequencies --    168.1557               195.0887               201.4958
 Red. masses --      1.0946                 4.7125                 3.6461
 Frc consts  --      0.0182                 0.1057                 0.0872
 IR Inten    --      0.1419                 1.1885                 4.5690

                     10                     11                     12
                      A                      A                      A
 Frequencies --    260.6131               273.1041               325.3456
 Red. masses --      5.1655                 3.4683                 4.1981
 Frc consts  --      0.2067                 0.1524                 0.2618
 IR Inten    --      4.7674                10.7003                 2.6608

                     13                     14                     15
                      A                      A                      A
 Frequencies --    339.1729               369.8667               373.7073
 Red. masses --      3.9039                 1.6163                 2.2591
 Frc consts  --      0.2646                 0.1303                 0.1859
 IR Inten    --      0.3931                74.1660                39.2684

                     16                     17                     18
                      A                      A                      A
 Frequencies --    441.9717               482.0033               483.7899
 Red. masses --      4.6929                 4.1555                 3.8859
 Frc consts  --      0.5401                 0.5688                 0.5359
 IR Inten    --      6.5805                 0.4662                 0.0651

                     19                     20                     21
                      A                      A                      A
 Frequencies --    501.1208               527.3870               542.7631
 Red. masses --      1.9299                 4.3606                 4.1008
 Frc consts  --      0.2855                 0.7146                 0.7118
 IR Inten    --      1.1458                 5.0867                 0.7078

                     22                     23                     24
                      A                      A                      A
 Frequencies --    545.8173               574.2204               608.4001
 Red. masses --      6.1527                 4.1917                 4.7709
 Frc consts  --      1.0800                 0.8143                 1.0405
 IR Inten    --      1.6905                 0.0433                 7.4995

                     25                     26                     27
                      A                      A                      A
 Frequencies --    632.4869               663.2937               672.1087
 Red. masses --      4.8811                 3.9127                 4.0988
 Frc consts  --      1.1505                 1.0142                 1.0909
 IR Inten    --      1.5757                 0.9191                 2.9998

                     28                     29                     30
                      A                      A                      A
 Frequencies --    745.0000               775.2159               800.8419
 Red. masses --      1.7854                 3.0041                 2.4774
 Frc consts  --      0.5838                 1.0637                 0.9361
 IR Inten    --     14.3719                16.0481                34.1918

                     31                     32                     33
                      A                      A                      A
 Frequencies --    813.6255               826.0845               855.3960
 Red. masses --      3.9827                 2.2135                 1.4701
 Frc consts  --      1.5534                 0.8900                 0.6338
 IR Inten    --     20.3793                 5.1465                 0.5400

                     34                     35                     36
                      A                      A                      A
 Frequencies --    859.7292               881.8363               914.0308
 Red. masses --      4.7337                 3.5388                 5.3982
 Frc consts  --      2.0614                 1.6214                 2.6572
 IR Inten    --     23.4195                 6.7038                18.7222

                     37                     38                     39
                      A                      A                      A
 Frequencies --    956.8037               958.0017               986.1222
 Red. masses --      1.2535                 1.2894                 2.5795
 Frc consts  --      0.6761                 0.6972                 1.4779
 IR Inten    --      0.2633                 0.7603                28.5368

                     40                     41                     42
                      A                      A                      A
 Frequencies --    993.9521              1035.1899              1044.6156
 Red. masses --      1.3696                 1.0767                 1.5670
 Frc consts  --      0.7972                 0.6798                 1.0074
 IR Inten    --     23.0590                18.4000                73.7937

                     43                     44                     45
                      A                      A                      A
 Frequencies --   1075.1872              1089.8879              1118.5898
 Red. masses --      1.4957                 2.4887                 1.9058
 Frc consts  --      1.0187                 1.7417                 1.4050
 IR Inten    --      0.6814               161.6174                39.1446

                     46                     47                     48
                      A                      A                      A
 Frequencies --   1167.8594              1202.9865              1207.4727
 Red. masses --      1.7774                 1.2264                 1.6961
 Frc consts  --      1.4283                 1.0457                 1.4570
 IR Inten    --     78.7223                13.0506                72.6424

                     49                     50                     51
                      A                      A                      A
 Frequencies --   1247.2567              1255.3529              1275.3907
 Red. masses --      2.1978                 2.7256                 2.0840
 Frc consts  --      2.0144                 2.5307                 1.9972
 IR Inten    --     69.3133               220.9102               179.8357

                     52                     53                     54
                      A                      A                      A
 Frequencies --   1284.4093              1313.4770              1322.7146
 Red. masses --      3.5320                 2.2692                 1.3177
 Frc consts  --      3.4330                 2.3066                 1.3583
 IR Inten    --    278.1658               103.1025                 2.4258

                     55                     56                     57
                      A                      A                      A
 Frequencies --   1392.6526              1417.3896              1439.7208
 Red. masses --      3.6460                 6.0724                 1.2990
 Frc consts  --      4.1663                 7.1877                 1.5864
 IR Inten    --      8.8844                 4.6975                 4.1159

                     58                     59                     60
                      A                      A                      A
 Frequencies --   1450.4298              1458.4743              1489.8601
 Red. masses --      3.4604                 1.2590                 2.2227
 Frc consts  --      4.2891                 1.5779                 2.9068
 IR Inten    --    110.5895                28.9505                11.3098

                     61                     62                     63
                      A                      A                      A
 Frequencies --   1512.0897              1526.0445              1529.7047
 Red. masses --      1.9019                 1.0865                 1.2996
 Frc consts  --      2.5621                 1.4907                 1.7917
 IR Inten    --     11.9289                 6.5073                13.8763

                     64                     65                     66
                      A                      A                      A
 Frequencies --   1577.1209              1645.8631              1662.5474
 Red. masses --      4.0396                 7.5215                 5.8995
 Frc consts  --      5.9200                12.0045                 9.6076
 IR Inten    --     19.4185                61.0287                30.7530

                     67                     68                     69
                      A                      A                      A
 Frequencies --   1686.5559              1706.4893              1825.8352
 Red. masses --      6.5143                 4.5108                11.5869
 Frc consts  --     10.9175                 7.7395                22.7583
 IR Inten    --     34.6610                 9.2837               219.8317

                     70                     71                     72
                      A                      A                      A
 Frequencies --   3048.6139              3096.2446              3166.7028
 Red. masses --      1.0413                 1.1008                 1.0961
 Frc consts  --      5.7018                 6.2178                 6.4762
 IR Inten    --     23.4772                16.1963                11.3406

                     73                     74                     75
                      A                      A                      A
 Frequencies --   3170.8113              3180.3474              3197.7518
 Red. masses --      1.0887                 1.0590                 1.0906
 Frc consts  --      6.4492                 6.3110                 6.5709
 IR Inten    --     21.1666                 5.5090                17.8100

                     76                     77                     78
                      A                      A                      A
 Frequencies --   3215.7420              3223.2285              3228.1654
 Red. masses --      1.0942                 1.0882                 1.0926
 Frc consts  --      6.6665                 6.6610                 6.7087
 IR Inten    --      4.9920                 2.6623                13.5973

                     79                     80                     81
                      A                      A                      A
 Frequencies --   3240.3309              3269.9696              3755.6955
 Red. masses --      1.0952                 1.1161                 1.0659
 Frc consts  --      6.7752                 7.0315                 8.8584
 IR Inten    --      5.0203                 8.6927                52.5968

 - Thermochemistry -
 -------------------
 Temperature   298.150 Kelvin.  Pressure   1.00000 Atm.
 Atom     1 has atomic number  6 and mass  12.00000

 Molecular mass:   228.07864 amu.
 Principal axes and moments of inertia in atomic units:
                           1         2         3
     Eigenvalues --  1560.173786916.873288022.27873
           X            0.99998  -0.00308   0.00586
           Y            0.00304   0.99997   0.00703
           Z           -0.00588  -0.00701   0.99996
 This molecule is an asymmetric top.
 Rotational symmetry number  1.
 Warning -- assumption of classical behavior for rotation
           may cause significant error
 Rotational temperatures (Kelvin)      0.05552     0.01252     0.01080
 Rotational constants (GHZ):           1.15676     0.26092     0.22497
 Zero-point vibrational energy     597011.4 (Joules/Mol)
                                  142.68915 (Kcal/Mol)
 Warning -- explicit consideration of  24 degrees of freedom as
           vibrations may cause significant error
 Vibrational temperatures:     32.01    57.09    87.82   149.13   188.63
          (Kelvin)            217.92   241.94   280.69   289.91   374.96
                              392.94   468.10   487.99   532.16   537.68
                              635.90   693.50   696.07   721.00   758.79
                              780.92   785.31   826.18   875.35   910.01
                              954.33   967.01  1071.89  1115.36  1152.23
                             1170.63  1188.55  1230.72  1236.96  1268.77
                             1315.09  1376.63  1378.35  1418.81  1430.08
                             1489.41  1502.97  1546.95  1568.11  1609.40
                             1680.29  1730.83  1737.28  1794.52  1806.17
                             1835.00  1847.98  1889.80  1903.09  2003.72
                             2039.31  2071.44  2086.85  2098.42  2143.58
                             2175.56  2195.64  2200.90  2269.13  2368.03
                             2392.03  2426.58  2455.26  2626.97  4386.28
                             4454.81  4556.18  4562.09  4575.81  4600.85
                             4626.74  4637.51  4644.61  4662.11  4704.76
                             5403.61

 Zero-point correction=                           0.227390 (Hartree/Particle)
 Thermal correction to Energy=                    0.242354
 Thermal correction to Enthalpy=                  0.243298
 Thermal correction to Gibbs Free Energy=         0.184264
 Sum of electronic and zero-point Energies=           -766.213347
 Sum of electronic and thermal Energies=              -766.198382
 Sum of electronic and thermal Enthalpies=            -766.197438
 Sum of electronic and thermal Free Energies=         -766.256473

                     E (Thermal)             CV                S
                      KCal/Mol        Cal/Mol-Kelvin    Cal/Mol-Kelvin
 Total                  152.080             57.715            124.249
 Electronic               0.000              0.000              0.000
 Translational            0.889              2.981             42.176
 Rotational               0.889              2.981             32.826
 Vibrational            150.302             51.753             49.248
 Vibration     1          0.593              1.985              6.423
 Vibration     2          0.594              1.981              5.275
 Vibration     3          0.597              1.973              4.423
 Vibration     4          0.605              1.946              3.385
 Vibration     5          0.612              1.922              2.930
 Vibration     6          0.619              1.901              2.654
 Vibration     7          0.625              1.882              2.456
 Vibration     8          0.636              1.847              2.179
 Vibration     9          0.638              1.838              2.119
 Vibration    10          0.669              1.745              1.658
 Vibration    11          0.676              1.723              1.576
 Vibration    12          0.709              1.625              1.283
 Vibration    13          0.719              1.597              1.216
 Vibration    14          0.742              1.534              1.080
 Vibration    15          0.745              1.526              1.065
 Vibration    16          0.802              1.379              0.820
 Vibration    17          0.838              1.290              0.705
 Vibration    18          0.840              1.286              0.700
 Vibration    19          0.856              1.248              0.655
 Vibration    20          0.882              1.189              0.593
 Vibration    21          0.898              1.156              0.559
 Vibration    22          0.901              1.149              0.553
 Vibration    23          0.931              1.087              0.496
 Vibration    24          0.967              1.014              0.435

 Optimization completed.
    -- Stationary point found.
 Normal termination of Gaussian 16 at Fri Dec 11 13:24:46 2020.

 ----------------------------------------------------------------------
 # B3LYP/6-311++G(d,p) empiricaldispersion=gd3bj scf=xqc pop=npa geom=c
 heck
 ----------------------------------------------------------------------

 ---------------------------------------
 CID_151361675_JID_7823_Energie_neutraal
 ---------------------------------------
 Structure from the checkpoint file:  "JID_7823.chk"
 Charge =  0 Multiplicity = 1

 SCF Done:  E(RB3LYP) =  -766.654923515     A.U. after   16 cycles
 Normal termination of Gaussian 16 at Fri Dec 11 13:28:30 2020.

 ----------------------------------------------------------------------
 # B3LYP/6-311++G(d,p) empiricaldispersion=gd3bj scf=xqc pop=npa geom=c
 heck
 ----------------------------------------------------------------------

 -------------------------------------
 CID_151361675_JID_7823_Energie_kation
 -------------------------------------
 Structure from the checkpoint file:  "JID_7823.chk"
 Charge =  1 Multiplicity = 2

 SCF Done:  E(UB3LYP) =  -766.379687315     A.U. after   23 cycles
 Normal termination of Gaussian 16 at Fri Dec 11 13:35:39 2020.
 Gaussian 16:  ES64L-G16RevA.03 25-Dec-2016

 ----------------------------------------------------------------------
 # B3LYP/6-311++G(d,p) empiricaldispersion=gd3bj scf=xqc pop=npa geom=c
 heck
 ----------------------------------------------------------------------

 ------------------------------------
 CID_151361675_JID_7823_Energie_anion
 ------------------------------------
 Structure from the checkpoint file:  "JID_7823.chk"
 Charge = -1 Multiplicity = 2

                         Standard orientation:
 ---------------------------------------------------------------------
 Center     Atomic      Atomic             Coordinates (Angstroms)
 Number     Number       Type             X           Y           Z
 ---------------------------------------------------------------------
      1          6           0       -0.731810    2.325241    0.043196
      2          6           0       -0.131950    0.949253   -0.087146
      3          6           0       -0.924473   -0.162818   -0.276310
      4          6           0       -0.404004   -1.468769   -0.396082
      5          6           0        0.951484   -1.665344   -0.324411
      6          6           0        1.822158   -0.562909   -0.134593
      7          6           0        1.285948    0.758687   -0.015379
      8          6           0        2.177879    1.848656    0.175058
      9          6           0        3.535922    1.635972    0.243816
     10          6           0        4.075943    0.337823    0.126321
     11          6           0        3.234503   -0.739287   -0.059315
     12          8           0        3.691034   -2.022533   -0.181635
     13          8           0       -2.302873    0.022691   -0.432381
     14          6           0       -3.141920   -0.511897    0.508430
     15          8           0       -2.766337   -1.132818    1.476136
     16          6           0       -4.563371   -0.233075    0.202669
     17          6           0       -4.989573    0.432257   -0.873668
     18          1           0       -1.818015    2.288066   -0.044967
     19          1           0       -0.350847    3.000024   -0.732825
     20          1           0       -0.482975    2.773204    1.012708
     21          1           0       -1.087374   -2.297675   -0.539566
     22          1           0        1.371960   -2.659972   -0.411378
     23          1           0        1.785224    2.854133    0.268994
     24          1           0        4.209905    2.475045    0.390810
     25          1           0        5.151886    0.186015    0.182403
     26          1           0        4.657643   -2.015956   -0.107368
     27          1           0       -5.250250   -0.628185    0.944871
     28          1           0       -6.048113    0.604231   -1.045380
     29          1           0       -4.294053    0.819617   -1.610774
 ---------------------------------------------------------------------

 SCF Done:  E(UB3LYP) =  -766.663527957     A.U. after   33 cycles
 SCF Done:  E(UB3LYP) =  -766.663527957     a.u. after    1 cycles

 The electronic state is 2-A.
 Alpha  occ. eigenvalues --  -19.05320 -19.02316 -18.94515 -10.13341 -10.11580
 Alpha  occ. eigenvalues --  -10.09679 -10.06281 -10.06150 -10.05965 -10.05801
 Alpha  occ. eigenvalues --  -10.04801 -10.04695 -10.04565 -10.04563 -10.04250
 Alpha  occ. eigenvalues --  -10.02819 -10.02215  -0.96295  -0.95963  -0.87065
 Alpha  occ. eigenvalues --   -0.75240  -0.70298  -0.66481  -0.64508  -0.61906
 Alpha  occ. eigenvalues --   -0.61303  -0.56707  -0.53167  -0.50610  -0.49127
 Alpha  occ. eigenvalues --   -0.46557  -0.44536  -0.41768  -0.39650  -0.37131
 Alpha  occ. eigenvalues --   -0.36042  -0.35174  -0.33734  -0.32875  -0.31338
 Alpha  occ. eigenvalues --   -0.31049  -0.30236  -0.29754  -0.29642  -0.28790
 Alpha  occ. eigenvalues --   -0.28104  -0.26598  -0.26235  -0.25639  -0.23955
 Alpha  occ. eigenvalues --   -0.23541  -0.22177  -0.21845  -0.20158  -0.17386
 Alpha  occ. eigenvalues --   -0.14644  -0.14352  -0.12805  -0.12007  -0.09103
 Alpha  occ. eigenvalues --    0.04510
 Alpha virt. eigenvalues --    0.06496   0.07032   0.08187   0.09254   0.09799
 Alpha virt. eigenvalues --    0.10028   0.10684   0.11541   0.11787   0.12587
 Alpha virt. eigenvalues --    0.13494   0.13544   0.14304   0.14357   0.15569

  Beta  occ. eigenvalues --  -19.05298 -19.02328 -18.94171 -10.13129 -10.11412
  Beta  occ. eigenvalues --  -10.09608 -10.06309 -10.06125 -10.06002 -10.05795
  Beta  occ. eigenvalues --  -10.04711 -10.04637 -10.04558 -10.04457 -10.04116
  Beta  occ. eigenvalues --  -10.02744 -10.01859  -0.96213  -0.95773  -0.86577
  Beta  occ. eigenvalues --   -0.75104  -0.70107  -0.66263  -0.64044  -0.61702
  Beta  occ. eigenvalues --   -0.61114  -0.56558  -0.52902  -0.50450  -0.48733
  Beta  occ. eigenvalues --   -0.46198  -0.44249  -0.41628  -0.39564  -0.37031
  Beta  occ. eigenvalues --   -0.35902  -0.34977  -0.33611  -0.32485  -0.31024
  Beta  occ. eigenvalues --   -0.30803  -0.29941  -0.29628  -0.29451  -0.28676
  Beta  occ. eigenvalues --   -0.27510  -0.26533  -0.26113  -0.25288  -0.23746
  Beta  occ. eigenvalues --   -0.23329  -0.21980  -0.21687  -0.19739  -0.16650
  Beta  occ. eigenvalues --   -0.14020  -0.12588  -0.12463  -0.11685  -0.08304
  Beta virt. eigenvalues --    0.06462   0.08140   0.08303   0.09196   0.09727
  Beta virt. eigenvalues --    0.09890   0.10450   0.10786   0.11473   0.11753
  Beta virt. eigenvalues --    0.12599   0.13463   0.13541   0.14307   0.14991

 Mulliken charges and spin densities:
               1          2
     1  C   -0.632260  -0.042364
     2  C    0.895830   0.119827
     3  C   -0.905559  -0.042952
     4  C   -0.111155   0.047062
     5  C   -0.244568   0.128477
     6  C    0.586972  -0.034953
     7  C    0.814076  -0.026055
     8  C   -0.562876   0.101946
     9  C   -0.449741   0.024839
    10  C   -0.336064   0.030310
    11  C   -0.335667   0.082936
    12  O   -0.230826   0.008019
    13  O    0.011296  -0.014065
    14  C   -0.171299   0.156028
    15  O   -0.285450   0.107840
    16  C    0.012414  -0.011742
    17  C   -0.664517   0.388451
    18  H    0.155711   0.006636
    19  H    0.118697   0.005405
    20  H    0.110037   0.022759
    21  H    0.156976   0.002157
    22  H    0.151774  -0.008635
    23  H    0.099324  -0.006647
    24  H    0.132165  -0.002163
    25  H    0.068603  -0.000171
    26  H    0.245203   0.000181
    27  H    0.147411  -0.006740
    28  H    0.093846  -0.017070
    29  H    0.129648  -0.019315
 Sum of Mulliken charges =  -1.00000   1.00000

 Dipole moment (field-independent basis, Debye):
    X=              7.0190    Y=              1.1444    Z=             -1.2406  Tot=              7.2190
 Quadrupole moment (field-independent basis, Debye-Ang):
   XX=           -145.5557   YY=           -111.3591   ZZ=           -116.0224
   XY=             -5.4766   XZ=              2.6266   YZ=              3.3647

 Summary of Natural Population Analysis:

                                       Natural Population
                Natural  -----------------------------------------------
    Atom  No    Charge         Core      Valence    Rydberg      Total
 -----------------------------------------------------------------------
      C    1   -0.29434      0.99961     2.29015    0.00457     3.29434
      C    2   -0.00726      0.99945     1.99934    0.00848     3.00726
      C    3    0.17343      0.99929     1.81550    0.01177     2.82657
      C    4   -0.10908      0.99954     2.09998    0.00956     3.10908
      C    5   -0.06498      0.99944     2.05575    0.00979     3.06498
      C    6   -0.05580      0.99938     2.04766    0.00876     3.05580
      C    7   -0.01910      0.99941     2.01104    0.00865     3.01910
      C    8   -0.09163      0.99944     2.08272    0.00946     3.09163
      C    9   -0.09934      0.99961     2.08975    0.00998     3.09934
      C   10   -0.16205      0.99953     2.15290    0.00962     3.16205
      C   11    0.19387      0.99936     1.79429    0.01248     2.80613
      O   12   -0.34191      0.99988     3.33587    0.00616     4.34191
      O   13   -0.29356      0.99984     3.28257    0.01114     4.29356
      C   14    0.40647      0.99964     1.57011    0.02377     2.59353
      O   15   -0.27721      0.99987     3.27166    0.00568     4.27721
      C   16   -0.14591      0.99953     2.13622    0.01016     3.14591
      C   17   -0.09797      0.99960     2.09041    0.00795     3.09797
      H   18    0.11300      0.00000     0.38602    0.00098     0.38700
      H   19    0.09753      0.00000     0.40115    0.00133     0.40247
      H   20    0.10008      0.00000     0.39862    0.00130     0.39992
      H   21    0.10368      0.00000     0.39487    0.00144     0.39632
      H   22    0.10318      0.00000     0.39603    0.00079     0.39682
      H   23    0.09844      0.00000     0.40079    0.00077     0.40156
      H   24    0.09122      0.00000     0.40704    0.00173     0.40878
      H   25    0.08961      0.00000     0.40914    0.00125     0.41039
      H   26    0.22799      0.00000     0.26960    0.00241     0.27201
      H   27    0.09222      0.00000     0.40670    0.00108     0.40778
      H   28    0.07878      0.00000     0.42006    0.00116     0.42122
      H   29    0.09066      0.00000     0.40831    0.00103     0.40934
 =======================================================================
   * Total *    0.00004     16.99241    42.82426    0.18328    59.99996

 Normal termination of Gaussian 16 at Fri Dec 11 13:45:45 2020.
