 Gaussian 16, Revision A.03,

 -----------------------------------------------------------
 # opt freq B3LYP/6-31G(d) empiricaldispersion=gd3bj scf=xqc
 -----------------------------------------------------------

 -------------------------------
 CID_113671772_JID_8437_neutraal
 -------------------------------
 Symbolic Z-matrix:
 Charge =  0 Multiplicity = 1

 SCF Done:  E(RB3LYP) =  -731.328098247     A.U. after   14 cycles
 SCF Done:  E(RB3LYP) =  -731.335705822     A.U. after   12 cycles
 SCF Done:  E(RB3LYP) =  -731.336153556     A.U. after   12 cycles
 SCF Done:  E(RB3LYP) =  -731.336588474     A.U. after   12 cycles
 SCF Done:  E(RB3LYP) =  -731.336624924     A.U. after   11 cycles
 SCF Done:  E(RB3LYP) =  -731.336630875     A.U. after   10 cycles
 SCF Done:  E(RB3LYP) =  -731.336634357     A.U. after    8 cycles
 SCF Done:  E(RB3LYP) =  -731.336636377     A.U. after    8 cycles
 SCF Done:  E(RB3LYP) =  -731.336637503     A.U. after    8 cycles
 SCF Done:  E(RB3LYP) =  -731.336638521     A.U. after    7 cycles
 SCF Done:  E(RB3LYP) =  -731.336639435     A.U. after    8 cycles
 SCF Done:  E(RB3LYP) =  -731.336639585     A.U. after    7 cycles
 SCF Done:  E(RB3LYP) =  -731.336639607     A.U. after    6 cycles
 Optimization completed.
    -- Stationary point found.
 Normal termination of Gaussian 16 at Mon Dec 14 13:20:45 2020.

 --------------------------------------------------------------------
 #N Geom=AllCheck Guess=TCheck SCRF=Check GenChk RB3LYP/6-31G(d) Freq
 --------------------------------------------------------------------

 Structure from the checkpoint file:  "JID_8437.chk"
 -------------------------------
 CID_113671772_JID_8437_neutraal
 -------------------------------
 Charge =  0 Multiplicity = 1

 SCF Done:  E(RB3LYP) =  -731.336639607     A.U. after    1 cycles

  Exact polarizability: 247.357  29.551 138.731  -5.876  21.624 150.066
 Approx polarizability: 356.531  62.119 218.871 -15.916  54.605 261.231

                      1                      2                      3
                      A                      A                      A
 Frequencies --     33.3342                47.5003                62.3715
 Red. masses --      3.6695                 3.7925                 3.9504
 Frc consts  --      0.0024                 0.0050                 0.0091
 IR Inten    --      0.3453                 0.1326                 0.7450

                      4                      5                      6
                      A                      A                      A
 Frequencies --     96.5691               139.8803               170.8651
 Red. masses --      1.5859                 4.0856                 3.3595
 Frc consts  --      0.0087                 0.0471                 0.0578
 IR Inten    --      0.0791                 0.0814                 0.5567

                      7                      8                      9
                      A                      A                      A
 Frequencies --    185.9490               191.2563               213.0498
 Red. masses --      3.8558                 2.8359                 2.5983
 Frc consts  --      0.0786                 0.0611                 0.0695
 IR Inten    --      2.0747                 0.0469                 0.3319

                     10                     11                     12
                      A                      A                      A
 Frequencies --    226.6135               268.1966               289.4231
 Red. masses --      1.2180                 3.7458                 1.1252
 Frc consts  --      0.0369                 0.1587                 0.0555
 IR Inten    --      0.3162                 5.7773                46.9166

                     13                     14                     15
                      A                      A                      A
 Frequencies --    307.6958               345.3539               363.3850
 Red. masses --      3.2394                 3.2828                 2.5764
 Frc consts  --      0.1807                 0.2307                 0.2004
 IR Inten    --      0.5243                 4.9708                 2.0203

                     16                     17                     18
                      A                      A                      A
 Frequencies --    399.1937               410.3049               422.6222
 Red. masses --      2.6915                 3.7296                 3.0442
 Frc consts  --      0.2527                 0.3699                 0.3204
 IR Inten    --      1.6904                 3.7723                 2.9189

                     19                     20                     21
                      A                      A                      A
 Frequencies --    457.3976               495.0115               543.9310
 Red. masses --      3.8581                 3.0007                 6.7727
 Frc consts  --      0.4756                 0.4332                 1.1806
 IR Inten    --      1.8850                 2.1821                 0.1801

                     22                     23                     24
                      A                      A                      A
 Frequencies --    550.0062               586.3119               634.0798
 Red. masses --      4.1864                 4.1676                 6.7371
 Frc consts  --      0.7461                 0.8441                 1.5959
 IR Inten    --      1.7862                 8.1722                 9.2791

                     25                     26                     27
                      A                      A                      A
 Frequencies --    645.3213               646.8875               689.0515
 Red. masses --      3.5074                 2.7986                 2.4530
 Frc consts  --      0.8606                 0.6900                 0.6862
 IR Inten    --      2.2427                 0.2457                 3.3339

                     28                     29                     30
                      A                      A                      A
 Frequencies --    726.1288               767.2520               789.3401
 Red. masses --      1.9491                 2.7477                 3.2445
 Frc consts  --      0.6055                 0.9530                 1.1910
 IR Inten    --      2.1548                34.5259                 3.3197

                     31                     32                     33
                      A                      A                      A
 Frequencies --    793.1069               814.4376               821.0740
 Red. masses --      2.6725                 1.7918                 1.7248
 Frc consts  --      0.9905                 0.7002                 0.6851
 IR Inten    --      6.7879                 8.9201                 1.3041

                     34                     35                     36
                      A                      A                      A
 Frequencies --    831.0082               861.1483               892.0255
 Red. masses --      1.5664                 1.7858                 4.1740
 Frc consts  --      0.6373                 0.7803                 1.9569
 IR Inten    --      0.4603                37.8074                66.0991

                     37                     38                     39
                      A                      A                      A
 Frequencies --    899.9526               909.1444               918.6278
 Red. masses --      2.7116                 1.5035                 1.6743
 Frc consts  --      1.2939                 0.7322                 0.8325
 IR Inten    --      3.3994                24.5480               136.6043

                     40                     41                     42
                      A                      A                      A
 Frequencies --    940.9512               946.4186               960.8804
 Red. masses --      1.9152                 2.6354                 2.4395
 Frc consts  --      0.9991                 1.3908                 1.3271
 IR Inten    --      0.4214                13.1326                 2.9001

                     43                     44                     45
                      A                      A                      A
 Frequencies --    966.0294               983.9379               985.9333
 Red. masses --      1.4099                 1.3904                 2.2207
 Frc consts  --      0.7752                 0.7931                 1.2718
 IR Inten    --      0.2703                 1.0860                23.7469

                     46                     47                     48
                      A                      A                      A
 Frequencies --    992.7705               994.7066              1050.3538
 Red. masses --      1.3362                 1.5807                 2.0786
 Frc consts  --      0.7759                 0.9215                 1.3511
 IR Inten    --      2.2193                 0.8598                 5.4029

                     49                     50                     51
                      A                      A                      A
 Frequencies --   1060.2915              1062.5680              1066.3311
 Red. masses --      1.8423                 2.4777                 1.5709
 Frc consts  --      1.2203                 1.6482                 1.0524
 IR Inten    --      0.9602                 1.3361                 0.4270

                     52                     53                     54
                      A                      A                      A
 Frequencies --   1099.0239              1149.4568              1164.1842
 Red. masses --      1.9683                 1.6838                 1.6297
 Frc consts  --      1.4007                 1.3107                 1.3014
 IR Inten    --     12.2418                10.5382                 0.8015

                     55                     56                     57
                      A                      A                      A
 Frequencies --   1178.7324              1183.0084              1194.5929
 Red. masses --      1.5010                 1.4029                 1.5834
 Frc consts  --      1.2287                 1.1568                 1.3314
 IR Inten    --      5.7686                 1.7190                 9.3173

                     58                     59                     60
                      A                      A                      A
 Frequencies --   1223.2073              1252.0401              1259.6921
 Red. masses --      1.4746                 1.8225                 3.0491
 Frc consts  --      1.3000                 1.6833                 2.8507
 IR Inten    --      1.9100                11.1628                 0.6128

                     61                     62                     63
                      A                      A                      A
 Frequencies --   1268.7886              1276.4357              1280.1224
 Red. masses --      1.2800                 1.8271                 1.7760
 Frc consts  --      1.2141                 1.7539                 1.7147
 IR Inten    --      0.5005                 1.9945                 1.3828

                     64                     65                     66
                      A                      A                      A
 Frequencies --   1287.6505              1299.5245              1336.7506
 Red. masses --      1.6758                 1.5689                 1.3660
 Frc consts  --      1.6370                 1.5611                 1.4381
 IR Inten    --      2.6768                 0.2541                 9.3735

                     67                     68                     69
                      A                      A                      A
 Frequencies --   1340.8517              1355.2507              1364.9627
 Red. masses --      1.3634                 1.3773                 1.6995
 Frc consts  --      1.4442                 1.4905                 1.8655
 IR Inten    --      6.3420                 0.4882                 1.2405

                     70                     71                     72
                      A                      A                      A
 Frequencies --   1382.9825              1384.7979              1403.4625
 Red. masses --      1.5484                 2.6068                 1.7484
 Frc consts  --      1.7449                 2.9453                 2.0291
 IR Inten    --      8.0170                 6.8769                 4.3599

                     73                     74                     75
                      A                      A                      A
 Frequencies --   1409.2856              1436.2133              1439.5710
 Red. masses --      2.3951                 1.6929                 1.2809
 Frc consts  --      2.8026                 2.0574                 1.5640
 IR Inten    --     11.0719                 3.2156                 9.2605

                     76                     77                     78
                      A                      A                      A
 Frequencies --   1477.7624              1513.2462              1515.3039
 Red. masses --      2.2097                 2.5810                 1.0864
 Frc consts  --      2.8431                 3.4823                 1.4697
 IR Inten    --      1.7931                 4.5775                 1.2724

                     79                     80                     81
                      A                      A                      A
 Frequencies --   1520.5663              1521.0283              1533.7619
 Red. masses --      1.0703                 1.0863                 1.0771
 Frc consts  --      1.4581                 1.4808                 1.4929
 IR Inten    --      1.5019                 2.2916                 0.6270

                     82                     83                     84
                      A                      A                      A
 Frequencies --   1541.4547              1553.6720              1556.9482
 Red. masses --      1.0673                 1.1825                 2.7603
 Frc consts  --      1.4942                 1.6817                 3.9423
 IR Inten    --      3.6563                 4.0411                25.4554

                     85                     86                     87
                      A                      A                      A
 Frequencies --   1618.9585              1655.6418              1681.2596
 Red. masses --      6.6746                 5.5227                 6.3036
 Frc consts  --     10.3073                 8.9194                10.4980
 IR Inten    --     10.1517                16.3772                 1.2968

                     88                     89                     90
                      A                      A                      A
 Frequencies --   1694.7494              3030.1842              3052.8490
 Red. masses --      1.0898                 1.0839                 1.0432
 Frc consts  --      1.8441                 5.8638                 5.7284
 IR Inten    --     28.6086                18.1207                32.0736

                     91                     92                     93
                      A                      A                      A
 Frequencies --   3055.1049              3060.0350              3064.5291
 Red. masses --      1.0588                 1.0589                 1.0618
 Frc consts  --      5.8225                 5.8419                 5.8751
 IR Inten    --     20.8540                24.4486                48.9742

                     94                     95                     96
                      A                      A                      A
 Frequencies --   3076.8041              3087.3192              3097.8033
 Red. masses --      1.0634                 1.1040                 1.1035
 Frc consts  --      5.9310                 6.1997                 6.2392
 IR Inten    --     34.3575                15.8295                17.0439

                     97                     98                     99
                      A                      A                      A
 Frequencies --   3107.8145              3114.8381              3122.4187
 Red. masses --      1.1046                 1.0991                 1.1039
 Frc consts  --      6.2860                 6.2827                 6.3412
 IR Inten    --      4.7209                43.3857                90.5150

                    100                    101                    102
                      A                      A                      A
 Frequencies --   3153.3719              3162.5090              3167.2164
 Red. masses --      1.0998                 1.0892                 1.0896
 Frc consts  --      6.4436                 6.4181                 6.4398
 IR Inten    --     14.2612                36.0659                 9.7225

                    103                    104                    105
                      A                      A                      A
 Frequencies --   3185.0001              3194.2533              3212.8961
 Red. masses --      1.0890                 1.0868                 1.0960
 Frc consts  --      6.5087                 6.5335                 6.6658
 IR Inten    --     11.6389                10.1323                26.5828

                    106                    107                    108
                      A                      A                      A
 Frequencies --   3218.4283              3473.8346              3560.4348
 Red. masses --      1.0942                 1.0491                 1.0925
 Frc consts  --      6.6779                 7.4593                 8.1597
 IR Inten    --      9.6882                 1.7620                 0.1148

 - Thermochemistry -
 -------------------
 Temperature   298.150 Kelvin.  Pressure   1.00000 Atm.
 Atom     1 has atomic number  6 and mass  12.00000

 Molecular mass:   240.16265 amu.
 Principal axes and moments of inertia in atomic units:
                           1         2         3
     Eigenvalues --  2047.679707734.777288074.36379
           X            0.99999  -0.00128   0.00425
           Y            0.00114   0.99949   0.03192
           Z           -0.00429  -0.03191   0.99948
 This molecule is an asymmetric top.
 Rotational symmetry number  1.
 Warning -- assumption of classical behavior for rotation
           may cause significant error
 Rotational temperatures (Kelvin)      0.04230     0.01120     0.01073
 Rotational constants (GHZ):           0.88136     0.23333     0.22351
 Zero-point vibrational energy     873325.2 (Joules/Mol)
                                  208.72973 (Kcal/Mol)
 Warning -- explicit consideration of  23 degrees of freedom as
           vibrations may cause significant error
 Vibrational temperatures:     47.96    68.34    89.74   138.94   201.26
          (Kelvin)            245.84   267.54   275.18   306.53   326.05
                              385.88   416.42   442.71   496.89   522.83
                              574.35   590.34   608.06   658.09   712.21
                              782.60   791.34   843.57   912.30   928.47
                              930.73   991.39  1044.74  1103.90  1135.68
                             1141.10  1171.79  1181.34  1195.64  1239.00
                             1283.43  1294.83  1308.06  1321.70  1353.82
                             1361.69  1382.49  1389.90  1415.67  1418.54
                             1428.38  1431.16  1511.22  1525.52  1528.80
                             1534.21  1581.25  1653.81  1675.00  1695.93
                             1702.09  1718.75  1759.92  1801.41  1812.42
                             1825.50  1836.51  1841.81  1852.64  1869.73
                             1923.29  1929.19  1949.90  1963.88  1989.80
                             1992.42  2019.27  2027.65  2066.39  2071.22
                             2126.17  2177.22  2180.18  2187.76  2188.42
                             2206.74  2217.81  2235.39  2240.10  2329.32
                             2382.10  2418.96  2438.37  4359.76  4392.37
                             4395.61  4402.71  4409.17  4426.83  4441.96
                             4457.05  4471.45  4481.56  4492.46  4537.00
                             4550.15  4556.92  4582.50  4595.82  4622.64
                             4630.60  4998.07  5122.67

 Zero-point correction=                           0.332632 (Hartree/Particle)
 Thermal correction to Energy=                    0.348338
 Thermal correction to Enthalpy=                  0.349282
 Thermal correction to Gibbs Free Energy=         0.289486
 Sum of electronic and zero-point Energies=           -731.004008
 Sum of electronic and thermal Energies=              -730.988301
 Sum of electronic and thermal Enthalpies=            -730.987357
 Sum of electronic and thermal Free Energies=         -731.047154

                     E (Thermal)             CV                S
                      KCal/Mol        Cal/Mol-Kelvin    Cal/Mol-Kelvin
 Total                  218.586             63.525            125.853
 Electronic               0.000              0.000              0.000
 Translational            0.889              2.981             42.330
 Rotational               0.889              2.981             33.214
 Vibrational            216.808             57.563             50.310
 Vibration     1          0.594              1.983              5.620
 Vibration     2          0.595              1.979              4.919
 Vibration     3          0.597              1.972              4.381
 Vibration     4          0.603              1.952              3.522
 Vibration     5          0.615              1.913              2.806
 Vibration     6          0.626              1.878              2.426
 Vibration     7          0.632              1.859              2.268
 Vibration     8          0.634              1.852              2.216
 Vibration     9          0.644              1.821              2.017
 Vibration    10          0.650              1.800              1.906
 Vibration    11          0.673              1.732              1.608
 Vibration    12          0.686              1.693              1.477
 Vibration    13          0.698              1.659              1.375
 Vibration    14          0.724              1.585              1.187
 Vibration    15          0.737              1.548              1.108
 Vibration    16          0.765              1.472              0.966
 Vibration    17          0.774              1.448              0.926
 Vibration    18          0.785              1.421              0.883
 Vibration    19          0.816              1.345              0.774
 Vibration    20          0.851              1.261              0.671
 Vibration    21          0.899              1.153              0.557
 Vibration    22          0.905              1.140              0.544
 Vibration    23          0.943              1.061              0.474

 Optimization completed.
    -- Stationary point found.
 Normal termination of Gaussian 16 at Mon Dec 14 13:39:45 2020.

 ----------------------------------------------------------------------
 # B3LYP/6-311++G(d,p) empiricaldispersion=gd3bj scf=xqc pop=npa geom=c
 heck
 ----------------------------------------------------------------------

 ---------------------------------------
 CID_113671772_JID_8437_Energie_neutraal
 ---------------------------------------
 Structure from the checkpoint file:  "JID_8437.chk"
 Charge =  0 Multiplicity = 1

 SCF Done:  E(RB3LYP) =  -731.529432415     A.U. after   15 cycles
 Normal termination of Gaussian 16 at Mon Dec 14 13:48:36 2020.

 ----------------------------------------------------------------------
 # B3LYP/6-311++G(d,p) empiricaldispersion=gd3bj scf=xqc pop=npa geom=c
 heck
 ----------------------------------------------------------------------

 -------------------------------------
 CID_113671772_JID_8437_Energie_kation
 -------------------------------------
 Structure from the checkpoint file:  "JID_8437.chk"
 Charge =  1 Multiplicity = 2

 SCF Done:  E(UB3LYP) =  -731.233391212     A.U. after   24 cycles
 Normal termination of Gaussian 16 at Mon Dec 14 14:08:10 2020.
 Gaussian 16:  ES64L-G16RevA.03 25-Dec-2016

 ----------------------------------------------------------------------
 # B3LYP/6-311++G(d,p) empiricaldispersion=gd3bj scf=xqc pop=npa geom=c
 heck
 ----------------------------------------------------------------------

 ------------------------------------
 CID_113671772_JID_8437_Energie_anion
 ------------------------------------
 Structure from the checkpoint file:  "JID_8437.chk"
 Charge = -1 Multiplicity = 2

                         Standard orientation:
 ---------------------------------------------------------------------
 Center     Atomic      Atomic             Coordinates (Angstroms)
 Number     Number       Type             X           Y           Z
 ---------------------------------------------------------------------
      1          6           0        3.783732    0.211539   -1.126817
      2          6           0        2.469349    0.007325   -0.350497
      3          6           0        2.719570    0.137961    1.171003
      4          6           0        3.384686   -1.194704    1.587567
      5          6           0        2.948153   -2.236598    0.517029
      6          6           0        2.024309   -1.469107   -0.453243
      7          6           0        1.411122    1.005841   -0.910737
      8          6           0       -0.000254    0.800260   -0.368508
      9          6           0       -0.911540    0.038371   -1.071969
     10          6           0       -2.227503   -0.180177   -0.594655
     11          6           0       -2.628210    0.409157    0.645361
     12          6           0       -1.689021    1.204378    1.350011
     13          6           0       -0.421112    1.395308    0.853209
     14          7           0       -3.876778    0.244885    1.171740
     15          6           0       -4.732637   -0.492395    0.493117
     16          6           0       -4.440072   -1.120331   -0.744182
     17          6           0       -3.187407   -0.961081   -1.286097
     18          7           0        1.911620    2.381469   -0.769524
     19          1           0        4.139664    1.238762   -1.024546
     20          1           0        4.565793   -0.467965   -0.773179
     21          1           0        3.631726    0.015535   -2.195182
     22          1           0        3.334872    1.007815    1.427960
     23          1           0        1.761480    0.243233    1.691885
     24          1           0        3.082200   -1.489416    2.597228
     25          1           0        4.474725   -1.094338    1.604751
     26          1           0        2.434419   -3.094685    0.961514
     27          1           0        3.821927   -2.633643   -0.009871
     28          1           0        0.985557   -1.563997   -0.122045
     29          1           0        2.074317   -1.848393   -1.480841
     30          1           0        1.358538    0.811300   -1.990445
     31          1           0       -0.618647   -0.415338   -2.017001
     32          1           0       -2.010252    1.655631    2.283259
     33          1           0        0.272371    2.027634    1.399153
     34          1           0       -5.722120   -0.611037    0.933349
     35          1           0       -5.201209   -1.712670   -1.242521
     36          1           0       -2.918243   -1.423932   -2.232522
     37          1           0        1.206862    3.036645   -1.103331
     38          1           0        2.063133    2.599899    0.213328
 ---------------------------------------------------------------------

 SCF Done:  E(UB3LYP) =  -731.536951102     A.U. after   30 cycles

 The electronic state is 2-A.
 Alpha  occ. eigenvalues --  -14.18403 -14.13099 -10.08582 -10.07541 -10.07159
 Alpha  occ. eigenvalues --  -10.06980 -10.06082 -10.05643 -10.05478 -10.05048
 Alpha  occ. eigenvalues --  -10.04051 -10.03205 -10.02965 -10.02422 -10.01878
 Alpha  occ. eigenvalues --  -10.01564 -10.01307 -10.01037  -0.78610  -0.78008
 Alpha  occ. eigenvalues --   -0.73758  -0.69628  -0.64781  -0.64615  -0.61179
 Alpha  occ. eigenvalues --   -0.60712  -0.58956  -0.56504  -0.53339  -0.48947
 Alpha  occ. eigenvalues --   -0.47114  -0.46648  -0.44996  -0.42709  -0.39678
 Alpha  occ. eigenvalues --   -0.37953  -0.37494  -0.36636  -0.35801  -0.34901
 Alpha  occ. eigenvalues --   -0.33233  -0.31836  -0.30841  -0.30169  -0.28974
 Alpha  occ. eigenvalues --   -0.28546  -0.27808  -0.26921  -0.26041  -0.25811
 Alpha  occ. eigenvalues --   -0.24605  -0.24376  -0.24130  -0.22502  -0.22371
 Alpha  occ. eigenvalues --   -0.22177  -0.21068  -0.20626  -0.19570  -0.18872
 Alpha  occ. eigenvalues --   -0.15724  -0.13780  -0.10113  -0.09882  -0.08840
 Alpha  occ. eigenvalues --    0.04855
 Alpha virt. eigenvalues --    0.06523   0.08280   0.08535   0.08892   0.09581
 Alpha virt. eigenvalues --    0.10147   0.10658   0.10739   0.11064   0.11796
 Alpha virt. eigenvalues --    0.12239   0.12431   0.13098   0.13422   0.13522

  Beta  occ. eigenvalues --  -14.18388 -14.12667 -10.08588 -10.07536 -10.07158
  Beta  occ. eigenvalues --  -10.06978 -10.06076 -10.05643 -10.05474 -10.05116
  Beta  occ. eigenvalues --  -10.03927 -10.03297 -10.02908 -10.02345 -10.01838
  Beta  occ. eigenvalues --  -10.01294 -10.00895 -10.00787  -0.78543  -0.77464
  Beta  occ. eigenvalues --   -0.73746  -0.69245  -0.64624  -0.64152  -0.61128
  Beta  occ. eigenvalues --   -0.60537  -0.58547  -0.56436  -0.53198  -0.48316
  Beta  occ. eigenvalues --   -0.47037  -0.46554  -0.44618  -0.42676  -0.39628
  Beta  occ. eigenvalues --   -0.37928  -0.37179  -0.36492  -0.35676  -0.34827
  Beta  occ. eigenvalues --   -0.33199  -0.31731  -0.30769  -0.30113  -0.28829
  Beta  occ. eigenvalues --   -0.28515  -0.27669  -0.26825  -0.25927  -0.24897
  Beta  occ. eigenvalues --   -0.24384  -0.24350  -0.24107  -0.22390  -0.22335
  Beta  occ. eigenvalues --   -0.21988  -0.21034  -0.20541  -0.19331  -0.17833
  Beta  occ. eigenvalues --   -0.14039  -0.13631  -0.09429  -0.09338  -0.06969
  Beta virt. eigenvalues --    0.06471   0.08204   0.08431   0.08842   0.09531
  Beta virt. eigenvalues --    0.09997   0.10530   0.10680   0.10723   0.11023
  Beta virt. eigenvalues --    0.11738   0.12174   0.12555   0.13205   0.13389

 Mulliken charges and spin densities:
               1          2
     1  C   -0.359281  -0.133088
     2  C    0.604797   0.105547
     3  C   -0.405172  -0.036294
     4  C   -0.510019  -0.046289
     5  C   -0.421700  -0.055897
     6  C   -0.595863   0.029051
     7  C   -0.186754  -0.046782
     8  C    0.856225   0.032591
     9  C   -0.143939   0.228539
    10  C    1.515169  -0.074959
    11  C   -1.740733  -0.062955
    12  C   -0.867129   0.260213
    13  C   -0.436489   0.012791
    14  N   -0.047448   0.185107
    15  C   -0.012516   0.111815
    16  C   -0.347827   0.089462
    17  C   -0.271746   0.251041
    18  N   -0.316418   0.018434
    19  H    0.138023   0.024968
    20  H    0.083774   0.039751
    21  H    0.115454   0.007451
    22  H    0.117177   0.025739
    23  H    0.174350  -0.008933
    24  H    0.132769   0.006470
    25  H    0.103109   0.033787
    26  H    0.145315  -0.001428
    27  H    0.106346   0.024576
    28  H    0.166505   0.000486
    29  H    0.146849   0.002292
    30  H    0.240061  -0.005177
    31  H    0.079606  -0.016272
    32  H    0.130143  -0.011387
    33  H    0.064858  -0.002768
    34  H    0.128876  -0.011085
    35  H    0.108844  -0.002296
    36  H    0.088231  -0.026394
    37  H    0.205488   0.033344
    38  H    0.211067   0.018549
 Sum of Mulliken charges =  -1.00000   1.00000

 Dipole moment (field-independent basis, Debye):
    X=              8.0997    Y=             -1.1047    Z=             -0.9725  Tot=              8.2323
 Quadrupole moment (field-independent basis, Debye-Ang):
   XX=           -178.2274   YY=           -125.0458   ZZ=           -124.1661
   XY=             -1.3634   XZ=              9.2514   YZ=              2.1574

 Summary of Natural Population Analysis:

                                       Natural Population
                Natural  -----------------------------------------------
    Atom  No    Charge         Core      Valence    Rydberg      Total
 -----------------------------------------------------------------------
      C    1   -0.28809      0.99963     2.28189    0.00657     3.28809
      C    2   -0.03366      0.99956     2.02167    0.01243     3.03366
      C    3   -0.19862      0.99959     2.19063    0.00840     3.19862
      C    4   -0.19326      0.99965     2.18598    0.00763     3.19326
      C    5   -0.19349      0.99965     2.18641    0.00743     3.19349
      C    6   -0.19359      0.99960     2.18624    0.00775     3.19359
      C    7   -0.01252      0.99951     1.99731    0.01571     3.01252
      C    8   -0.03663      0.99950     2.02299    0.01414     3.03663
      C    9   -0.03150      0.99948     2.02731    0.00471     3.03150
      C   10   -0.06561      0.99950     2.05535    0.01075     3.06561
      C   11    0.06983      0.99947     1.91627    0.01442     2.93017
      C   12   -0.05272      0.99953     2.04359    0.00960     3.05272
      C   13   -0.10225      0.99952     2.09459    0.00814     3.10225
      N   14   -0.19038      0.99968     2.67667    0.01403     3.69038
      C   15    0.04680      0.99962     1.93886    0.01472     2.95320
      C   16   -0.12974      0.99956     2.12114    0.00903     3.12974
      C   17   -0.00878      0.99953     1.99997    0.00927     3.00878
      N   18   -0.42349      0.99978     2.91453    0.00918     3.92349
      H   19    0.10827      0.00000     0.39053    0.00120     0.39173
      H   20    0.09292      0.00000     0.40608    0.00100     0.40708
      H   21    0.09595      0.00000     0.40313    0.00092     0.40405
      H   22    0.09550      0.00000     0.40355    0.00095     0.40450
      H   23    0.11034      0.00000     0.38826    0.00140     0.38966
      H   24    0.09655      0.00000     0.40227    0.00118     0.40345
      H   25    0.09201      0.00000     0.40652    0.00147     0.40799
      H   26    0.09707      0.00000     0.40196    0.00098     0.40293
      H   27    0.09134      0.00000     0.40725    0.00141     0.40866
      H   28    0.11409      0.00000     0.38493    0.00098     0.38591
      H   29    0.09680      0.00000     0.40230    0.00090     0.40320
      H   30    0.09062      0.00000     0.40775    0.00163     0.40938
      H   31    0.08377      0.00000     0.41487    0.00136     0.41623
      H   32    0.09319      0.00000     0.40518    0.00163     0.40681
      H   33    0.08560      0.00000     0.41229    0.00211     0.41440
      H   34    0.07433      0.00000     0.42421    0.00145     0.42567
      H   35    0.08928      0.00000     0.40949    0.00123     0.41072
      H   36    0.08270      0.00000     0.41531    0.00199     0.41730
      H   37    0.17705      0.00000     0.32132    0.00163     0.32295
      H   38    0.17037      0.00000     0.32791    0.00171     0.32963
 =======================================================================
   * Total *    0.00003     17.99238    46.79654    0.21105    64.99997

 Normal termination of Gaussian 16 at Mon Dec 14 14:31:24 2020.
