 Gaussian 16, Revision A.03,

 -----------------------------------------------------------
 # opt freq B3LYP/6-31G(d) empiricaldispersion=gd3bj scf=xqc
 -----------------------------------------------------------

 -------------------------------
 CID_153837026_JID_2324_neutraal
 -------------------------------
 Symbolic Z-matrix:
 Charge =  0 Multiplicity = 1

 SCF Done:  E(RB3LYP) =  -614.167803448     A.U. after   15 cycles
 SCF Done:  E(RB3LYP) =  -614.169199840     A.U. after   13 cycles
 SCF Done:  E(RB3LYP) =  -614.162791380     A.U. after   13 cycles
 SCF Done:  E(RB3LYP) =  -614.169445261     A.U. after   13 cycles
 SCF Done:  E(RB3LYP) =  -614.171205154     A.U. after   14 cycles
 SCF Done:  E(RB3LYP) =  -614.172170699     A.U. after   12 cycles
 SCF Done:  E(RB3LYP) =  -614.172118967     A.U. after   13 cycles
 SCF Done:  E(RB3LYP) =  -614.172822836     A.U. after   12 cycles
 SCF Done:  E(RB3LYP) =  -614.172964683     A.U. after   12 cycles
 SCF Done:  E(RB3LYP) =  -614.172983597     A.U. after   12 cycles
 SCF Done:  E(RB3LYP) =  -614.173038649     A.U. after    8 cycles
 SCF Done:  E(RB3LYP) =  -614.173039001     A.U. after    8 cycles
 SCF Done:  E(RB3LYP) =  -614.173039190     A.U. after    8 cycles
 SCF Done:  E(RB3LYP) =  -614.173039260     A.U. after    8 cycles
 SCF Done:  E(RB3LYP) =  -614.173039279     A.U. after    7 cycles
 Optimization completed.
    -- Stationary point found.

 1\1\GINC-NODE359\FOpt\RB3LYP\6-31G(d)\C8H14O4\VSC10255\09-Dec-2020\0\\
 # opt freq B3LYP/6-31G(d) empiricaldispersion=gd3bj scf=xqc\\CID_15383
 7026_JID_2324_neutraal\\0,1\C,0.8840726625,0.2278241611,-0.0322831307\
 C,0.875543466,-0.5403473403,1.2962937275\C,1.8942445588,0.0440091248,2
 .2789014023\O,1.6607167291,0.5665411249,3.3446567524\O,3.1567280296,-0
 .1122765252,1.8047556596\O,-0.3763344121,-0.7132264141,1.9200829804\C,
 -1.4354255236,0.2265735488,1.7405170218\C,-1.4327460849,1.426918745,2.
 6953905595\C,-0.5561254634,2.602175283,2.290913786\O,-0.9304545692,3.0

 Normal termination of Gaussian 16 at Wed Dec  9 17:06:14 2020.

 --------------------------------------------------------------------
 #N Geom=AllCheck Guess=TCheck SCRF=Check GenChk RB3LYP/6-31G(d) Freq
 --------------------------------------------------------------------

 Structure from the checkpoint file:  "JID_2324.chk"
 -------------------------------
 CID_153837026_JID_2324_neutraal
 -------------------------------
 Charge =  0 Multiplicity = 1

 SCF Done:  E(RB3LYP) =  -614.173039279     A.U. after    1 cycles

  Exact polarizability:  95.769   6.039  97.931  -4.494  -6.220  92.988
 Approx polarizability: 121.591   8.176 137.246  -7.865 -15.283 138.639

                      1                      2                      3
                      A                      A                      A
 Frequencies --     29.7744                43.6595                54.0156
 Red. masses --      4.4090                 7.1186                 2.2338
 Frc consts  --      0.0023                 0.0080                 0.0038
 IR Inten    --      0.5147                 1.6646                 2.0287

                      4                      5                      6
                      A                      A                      A
 Frequencies --     61.5026               104.3036               119.6688
 Red. masses --      2.7425                 4.5996                 7.1776
 Frc consts  --      0.0061                 0.0295                 0.0606
 IR Inten    --      1.2133                 5.8071                 3.1326

                      7                      8                      9
                      A                      A                      A
 Frequencies --    140.7111               214.5060               243.6694
 Red. masses --      3.0862                 2.9931                 3.2307
 Frc consts  --      0.0360                 0.0811                 0.1130
 IR Inten    --      1.2746                 1.7600                 0.8104

                     10                     11                     12
                      A                      A                      A
 Frequencies --    250.9656               276.9226               303.7161
 Red. masses --      3.2709                 1.4105                 2.1703
 Frc consts  --      0.1214                 0.0637                 0.1180
 IR Inten    --      0.4931                 1.9661                 0.8647

                     13                     14                     15
                      A                      A                      A
 Frequencies --    337.3949               396.9021               427.9247
 Red. masses --      2.1635                 5.2149                 2.2620
 Frc consts  --      0.1451                 0.4840                 0.2440
 IR Inten    --      2.0577                 9.4030                 4.0852

                     16                     17                     18
                      A                      A                      A
 Frequencies --    489.4419               527.9083               544.6881
 Red. masses --      2.6912                 2.4614                 2.9502
 Frc consts  --      0.3798                 0.4042                 0.5157
 IR Inten    --      2.5778                 4.6078                 9.8584

                     19                     20                     21
                      A                      A                      A
 Frequencies --    591.8053               650.1009               714.5066
 Red. masses --      1.7397                 2.3870                 1.4939
 Frc consts  --      0.3590                 0.5944                 0.4493
 IR Inten    --     54.1131                59.1879                 2.6465

                     22                     23                     24
                      A                      A                      A
 Frequencies --    738.4765               768.6994               802.3495
 Red. masses --      3.3535                 2.1542                 2.2462
 Frc consts  --      1.0775                 0.7500                 0.8520
 IR Inten    --     43.3212                 8.7609                10.7013

                     25                     26                     27
                      A                      A                      A
 Frequencies --    837.9779               857.6496               905.5500
 Red. masses --      1.4242                 2.3465                 2.2770
 Frc consts  --      0.5892                 1.0169                 1.1001
 IR Inten    --     49.3409                 7.5287                 4.9997

                     28                     29                     30
                      A                      A                      A
 Frequencies --    919.4948               986.1329               997.0085
 Red. masses --      1.9941                 1.1147                 1.9486
 Frc consts  --      0.9933                 0.6387                 1.1412
 IR Inten    --      5.9332                19.9481                14.8297

                     31                     32                     33
                      A                      A                      A
 Frequencies --   1036.6180              1078.1891              1109.4284
 Red. masses --      1.8497                 1.8301                 2.3095
 Frc consts  --      1.1711                 1.2535                 1.6748
 IR Inten    --      6.7817                26.3591                44.5801

                     34                     35                     36
                      A                      A                      A
 Frequencies --   1116.1810              1123.2331              1145.4050
 Red. masses --      2.5268                 2.7504                 3.0080
 Frc consts  --      1.8548                 2.0445                 2.3251
 IR Inten    --     10.8622                48.8860               212.2347

                     37                     38                     39
                      A                      A                      A
 Frequencies --   1160.3598              1227.4139              1237.2301
 Red. masses --      2.7893                 3.3747                 2.9104
 Frc consts  --      2.2127                 2.9955                 2.6249
 IR Inten    --    271.5865               229.8291                50.7517

                     40                     41                     42
                      A                      A                      A
 Frequencies --   1258.3584              1292.8238              1321.9869
 Red. masses --      1.1369                 1.2892                 1.4120
 Frc consts  --      1.0607                 1.2695                 1.4539
 IR Inten    --      5.6069                21.1734                 3.9112

                     43                     44                     45
                      A                      A                      A
 Frequencies --   1356.9010              1365.2324              1371.2356
 Red. masses --      1.1736                 1.1226                 1.5031
 Frc consts  --      1.2732                 1.2328                 1.6652
 IR Inten    --      4.1355                12.7058                 6.4697

                     46                     47                     48
                      A                      A                      A
 Frequencies --   1408.0473              1417.9704              1424.8620
 Red. masses --      1.2726                 1.3939                 1.4853
 Frc consts  --      1.4866                 1.6512                 1.7766
 IR Inten    --     41.4734                 5.8703                 8.0340

                     49                     50                     51
                      A                      A                      A
 Frequencies --   1437.6171              1446.2417              1462.8757
 Red. masses --      1.2972                 1.2453                 1.2377
 Frc consts  --      1.5796                 1.5346                 1.5605
 IR Inten    --      8.0220                20.7104                 3.0339

                     52                     53                     54
                      A                      A                      A
 Frequencies --   1487.6700              1522.2645              1529.6866
 Red. masses --      1.1036                 1.0697                 1.0487
 Frc consts  --      1.4391                 1.4604                 1.4458
 IR Inten    --     10.9779                 6.1917                 5.9089

                     55                     56                     57
                      A                      A                      A
 Frequencies --   1546.9791              1559.4336              1737.2036
 Red. masses --      1.0734                 1.0843                 4.4446
 Frc consts  --      1.5134                 1.5536                 7.9028
 IR Inten    --      3.7887                14.4235               140.0730

                     58                     59                     60
                      A                      A                      A
 Frequencies --   1849.1265              3025.5387              3042.7691
 Red. masses --      9.9677                 1.0708                 1.0837
 Frc consts  --     20.0808                 5.7754                 5.9113
 IR Inten    --    260.0723                44.6214                29.2275

                     61                     62                     63
                      A                      A                      A
 Frequencies --   3050.0758              3073.6313              3078.3082
 Red. masses --      1.0669                 1.0464                 1.0489
 Frc consts  --      5.8477                 5.8245                 5.8563
 IR Inten    --     23.0803                15.5902                34.6405

                     64                     65                     66
                      A                      A                      A
 Frequencies --   3112.5816              3122.2800              3129.8580
 Red. masses --      1.1021                 1.0986                 1.0948
 Frc consts  --      6.2910                 6.3103                 6.3188
 IR Inten    --     12.5286                25.1503                36.4072

                     67                     68                     69
                      A                      A                      A
 Frequencies --   3144.0927              3147.7054              3165.3961
 Red. masses --      1.0879                 1.1012                 1.1029
 Frc consts  --      6.3363                 6.4286                 6.5112
 IR Inten    --     20.9342                15.6153                 4.7218

                     70                     71                     72
                      A                      A                      A
 Frequencies --   3189.9661              3277.3950              3684.3394
 Red. masses --      1.0639                 1.1175                 1.0642
 Frc consts  --      6.3788                 7.0723                 8.5111
 IR Inten    --      0.1214                 9.5893                48.3198

 - Thermochemistry -
 -------------------
 Temperature   298.150 Kelvin.  Pressure   1.00000 Atm.
 Atom     1 has atomic number  6 and mass  12.00000

 Molecular mass:   174.08921 amu.
 Principal axes and moments of inertia in atomic units:
                           1         2         3
     Eigenvalues --  1520.382853054.302653456.44638
           X            0.99990   0.01108   0.00890
           Y           -0.01073   0.99918  -0.03905
           Z           -0.00932   0.03895   0.99920
 This molecule is an asymmetric top.
 Rotational symmetry number  1.
 Warning -- assumption of classical behavior for rotation
           may cause significant error
 Rotational temperatures (Kelvin)      0.05697     0.02836     0.02506
 Rotational constants (GHZ):           1.18703     0.59088     0.52214
 Zero-point vibrational energy     577867.7 (Joules/Mol)
                                  138.11370 (Kcal/Mol)
 Warning -- explicit consideration of  19 degrees of freedom as
           vibrations may cause significant error
 Vibrational temperatures:     42.84    62.82    77.72    88.49   150.07
          (Kelvin)            172.18   202.45   308.63   350.59   361.08
                              398.43   436.98   485.44   571.05   615.69
                              704.20   759.54   783.68   851.48   935.35
                             1028.02  1062.50  1105.99  1154.40  1205.66
                             1233.97  1302.88  1322.95  1418.83  1434.47
                             1491.46  1551.27  1596.22  1605.94  1616.08
                             1647.98  1669.50  1765.97  1780.10  1810.50
                             1860.09  1902.04  1952.28  1964.26  1972.90
                             2025.87  2040.14  2050.06  2068.41  2080.82
                             2104.75  2140.43  2190.20  2200.88  2225.76
                             2243.68  2499.45  2660.48  4353.08  4377.87
                             4388.38  4422.27  4429.00  4478.31  4492.26
                             4503.17  4523.65  4528.85  4554.30  4589.65
                             4715.44  5300.94

 Zero-point correction=                           0.220098 (Hartree/Particle)
 Thermal correction to Energy=                    0.233667
 Thermal correction to Enthalpy=                  0.234611
 Thermal correction to Gibbs Free Energy=         0.178272
 Sum of electronic and zero-point Energies=           -613.952941
 Sum of electronic and thermal Energies=              -613.939372
 Sum of electronic and thermal Enthalpies=            -613.938428
 Sum of electronic and thermal Free Energies=         -613.994768

                     E (Thermal)             CV                S
                      KCal/Mol        Cal/Mol-Kelvin    Cal/Mol-Kelvin
 Total                  146.628             48.340            118.576
 Electronic               0.000              0.000              0.000
 Translational            0.889              2.981             41.371
 Rotational               0.889              2.981             31.152
 Vibrational            144.851             42.378             46.054
 Vibration     1          0.594              1.984              5.844
 Vibration     2          0.595              1.980              5.086
 Vibration     3          0.596              1.976              4.665
 Vibration     4          0.597              1.973              4.408
 Vibration     5          0.605              1.946              3.372
 Vibration     6          0.609              1.933              3.106
 Vibration     7          0.615              1.913              2.794
 Vibration     8          0.644              1.819              2.005
 Vibration     9          0.659              1.773              1.776
 Vibration    10          0.663              1.761              1.724
 Vibration    11          0.678              1.716              1.553
 Vibration    12          0.695              1.667              1.396
 Vibration    13          0.718              1.601              1.224
 Vibration    14          0.763              1.477              0.974
 Vibration    15          0.789              1.409              0.865
 Vibration    16          0.845              1.273              0.685
 Vibration    17          0.883              1.188              0.592
 Vibration    18          0.900              1.151              0.555
 Vibration    19          0.949              1.049              0.464

                           ! Non-Optimized Parameters !

 1\1\GINC-NODE359\Freq\RB3LYP\6-31G(d)\C8H14O4\VSC10255\09-Dec-2020\0\\
 #N Geom=AllCheck Guess=TCheck SCRF=Check GenChk RB3LYP/6-31G(d) Freq\\
 CID_153837026_JID_2324_neutraal\\0,1\C,0.8840726625,0.2278241611,-0.03
 22831307\C,0.875543466,-0.5403473403,1.2962937275\C,1.8942445588,0.044
 0091248,2.2789014023\O,1.6607167291,0.5665411249,3.3446567524\O,3.1567
 280296,-0.1122765252,1.8047556596\O,-0.3763344121,-0.7132264141,1.9200
 829804\C,-1.4354255236,0.2265735488,1.7405170218\C,-1.4327460849,1.426
 918745,2.6953905595\C,-0.5561254634,2.602175283,2.290913786\O,-0.93045

 Normal termination of Gaussian 16 at Wed Dec  9 17:12:04 2020.

 ----------------------------------------------------------------------
 # B3LYP/6-311++G(d,p) empiricaldispersion=gd3bj scf=xqc pop=npa geom=c
 heck
 ----------------------------------------------------------------------

 ---------------------------------------
 CID_153837026_JID_2324_Energie_neutraal
 ---------------------------------------
 Structure from the checkpoint file:  "JID_2324.chk"
 Charge =  0 Multiplicity = 1

 SCF Done:  E(RB3LYP) =  -614.367011268     A.U. after   14 cycles
 Normal termination of Gaussian 16 at Wed Dec  9 17:14:19 2020.

 ----------------------------------------------------------------------
 # B3LYP/6-311++G(d,p) empiricaldispersion=gd3bj scf=xqc pop=npa geom=c
 heck
 ----------------------------------------------------------------------

 -------------------------------------
 CID_153837026_JID_2324_Energie_kation
 -------------------------------------
 Structure from the checkpoint file:  "JID_2324.chk"
 Charge =  1 Multiplicity = 2

 SCF Done:  E(UB3LYP) =  -614.052738666     A.U. after   23 cycles
 Normal termination of Gaussian 16 at Wed Dec  9 17:18:38 2020.
 Gaussian 16:  ES64L-G16RevA.03 25-Dec-2016

 ------------------------------------
 CID_153837026_JID_2324_Energie_anion
 ------------------------------------
 Structure from the checkpoint file:  "JID_2324.chk"
 Charge = -1 Multiplicity = 2

                         Standard orientation:
 ---------------------------------------------------------------------
 Center     Atomic      Atomic             Coordinates (Angstroms)
 Number     Number       Type             X           Y           Z
 ---------------------------------------------------------------------
      1          6           0        0.644955   -0.937994    1.573024
      2          6           0        1.711922   -0.088895    0.868830
      3          6           0        2.021441   -0.636944   -0.527086
      4          8           0        1.833799   -0.081554   -1.585265
      5          8           0        2.574564   -1.873773   -0.440994
      6          8           0        1.484449    1.301078    0.819538
      7          6           0        0.163352    1.841303    0.820388
      8          6           0       -0.511352    1.959035   -0.552030
      9          6           0       -1.211042    0.709170   -1.063466
     10          8           0       -2.153757    0.282522   -0.069672
     11          6           0       -2.937586   -0.773216   -0.424865
     12          6           0       -3.592612   -1.512317    0.469689
     13          1           0       -0.315572   -0.923262    1.052561
     14          1           0        0.490931   -0.565661    2.590408
     15          1           0        0.993567   -1.971995    1.632548
     16          1           0        2.647647   -0.203791    1.432069
     17          1           0        2.750199   -2.156234   -1.358224
     18          1           0       -0.488362    1.303042    1.515626
     19          1           0        0.303456    2.850848    1.218824
     20          1           0       -1.260898    2.757789   -0.476857
     21          1           0        0.235649    2.268312   -1.289792
     22          1           0       -1.743010    0.932829   -1.999502
     23          1           0       -0.497930   -0.092976   -1.268767
     24          1           0       -3.010526   -0.954381   -1.498375
     25          1           0       -4.244289   -2.312436    0.139675
     26          1           0       -3.507777   -1.319123    1.534058
 ---------------------------------------------------------------------

 SCF Done:  E(UB3LYP) =  -614.352081616     A.U. after   33 cycles
 SCF Done:  E(UB3LYP) =  -614.352081616     a.u. after    1 cycles

 The electronic state is 2-A.
 Alpha  occ. eigenvalues --  -19.06042 -19.05500 -19.02470 -19.00972 -10.19539
 Alpha  occ. eigenvalues --  -10.13595 -10.13352 -10.12331 -10.11744 -10.07241
 Alpha  occ. eigenvalues --  -10.06553 -10.06305  -1.00323  -0.97008  -0.93775
 Alpha  occ. eigenvalues --   -0.91292  -0.70493  -0.67960  -0.64877  -0.59359
 Alpha  occ. eigenvalues --   -0.56171  -0.51444  -0.49229  -0.46303  -0.42409
 Alpha  occ. eigenvalues --   -0.41276  -0.40366  -0.38723  -0.37209  -0.36668
 Alpha  occ. eigenvalues --   -0.36137  -0.34487  -0.31743  -0.31393  -0.31162
 Alpha  occ. eigenvalues --   -0.30240  -0.28791  -0.27820  -0.27084  -0.26270
 Alpha  occ. eigenvalues --   -0.24359  -0.23723  -0.21877  -0.20772  -0.18480
 Alpha  occ. eigenvalues --   -0.15906  -0.14056   0.04721
 Alpha virt. eigenvalues --    0.06850   0.07112   0.07591   0.08677   0.09425
 Alpha virt. eigenvalues --    0.09788   0.10046   0.10417   0.11226   0.11415
 Alpha virt. eigenvalues --    0.12335   0.13017   0.14041   0.14303   0.14883

  Beta  occ. eigenvalues --  -19.05975 -19.05492 -19.02471 -19.00928 -10.19502
  Beta  occ. eigenvalues --  -10.13577 -10.13337 -10.12315 -10.11734 -10.07231
  Beta  occ. eigenvalues --  -10.06516 -10.06292  -1.00217  -0.96997  -0.93757
  Beta  occ. eigenvalues --   -0.91198  -0.70462  -0.67906  -0.64845  -0.59312
  Beta  occ. eigenvalues --   -0.56059  -0.51376  -0.49177  -0.46230  -0.42355
  Beta  occ. eigenvalues --   -0.41214  -0.40325  -0.38662  -0.37168  -0.36620
  Beta  occ. eigenvalues --   -0.36077  -0.34388  -0.31693  -0.31362  -0.31116
  Beta  occ. eigenvalues --   -0.30209  -0.28745  -0.27780  -0.27055  -0.26222
  Beta  occ. eigenvalues --   -0.24317  -0.23684  -0.21731  -0.20748  -0.18423
  Beta  occ. eigenvalues --   -0.15869  -0.14041
  Beta virt. eigenvalues --    0.06945   0.07775   0.07873   0.08394   0.09203
  Beta virt. eigenvalues --    0.09807   0.09992   0.10442   0.10864   0.11341
  Beta virt. eigenvalues --    0.11706   0.12744   0.13342   0.14198   0.14524

 Mulliken charges and spin densities:
               1          2
     1  C    0.512012  -1.029405
     2  C    0.466885  -0.470806
     3  C    0.206220  -0.388107
     4  O   -0.276399   0.022417
     5  O   -0.217465   0.092783
     6  O   -0.102106   0.019314
     7  C   -0.385493   0.017564
     8  C    0.032568  -0.463459
     9  C    0.000443  -0.224514
    10  O   -0.025009   0.010047
    11  C    0.187255  -0.042946
    12  C    0.097977  -0.581485
    13  H    0.246599   0.000604
    14  H   -0.435201   0.589437
    15  H   -0.061541   0.226266
    16  H   -0.293986   0.548494
    17  H   -0.621596   0.925405
    18  H    0.338492  -0.167455
    19  H   -0.172936   0.346870
    20  H   -0.044945   0.188499
    21  H    0.247392  -0.035809
    22  H   -0.333773   0.498307
    23  H   -0.097752   0.307292
    24  H   -0.205665   0.333950
    25  H   -0.147064   0.267828
    26  H    0.085087   0.008910
 Sum of Mulliken charges =  -1.00000   1.00000

 Dipole moment (field-independent basis, Debye):
    X=             -3.2407    Y=              3.6286    Z=              1.4056  Tot=              5.0641
 Quadrupole moment (field-independent basis, Debye-Ang):
   XX=           -131.6760   YY=           -114.8034   ZZ=           -110.4964
   XY=              7.6439   XZ=             -1.2282   YZ=             -4.6265

 Summary of Natural Population Analysis:

                                       Natural Population
                Natural  -----------------------------------------------
    Atom  No    Charge         Core      Valence    Rydberg      Total
 -----------------------------------------------------------------------
      C    1   -0.30363      0.99964     2.29819    0.00581     3.30363
      C    2    0.02489      0.99951     1.95959    0.01602     2.97511
      C    3    0.40181      0.99970     1.57258    0.02590     2.59819
      O    4   -0.30610      0.99987     3.29937    0.00686     4.30610
      O    5   -0.34728      0.99988     3.33995    0.00745     4.34728
      O    6   -0.30011      0.99987     3.28999    0.01025     4.30011
      C    7   -0.01041      0.99955     1.99807    0.01279     3.01041
      C    8   -0.21338      0.99961     2.20576    0.00801     3.21338
      C    9   -0.01233      0.99956     2.00105    0.01172     3.01233
      O   10   -0.28946      0.99986     3.27860    0.01100     4.28946
      C   11    0.08505      0.99948     1.90077    0.01470     2.91495
      C   12   -0.24222      0.99959     2.23539    0.00724     3.24222
      H   13    0.10644      0.00000     0.39136    0.00220     0.39356
      H   14    0.10276      0.00000     0.39576    0.00148     0.39724
      H   15    0.11403      0.00000     0.38463    0.00135     0.38597
      H   16    0.10369      0.00000     0.39381    0.00250     0.39631
      H   17    0.24574      0.00000     0.22885    0.02541     0.25426
      H   18    0.08804      0.00000     0.40983    0.00213     0.41196
      H   19    0.08906      0.00000     0.40968    0.00126     0.41094
      H   20    0.09771      0.00000     0.40091    0.00138     0.40229
      H   21    0.11243      0.00000     0.38657    0.00100     0.38757
      H   22    0.08463      0.00000     0.41385    0.00153     0.41537
      H   23    0.09270      0.00000     0.40492    0.00238     0.40730
      H   24    0.08094      0.00000     0.41723    0.00183     0.41906
      H   25    0.09834      0.00000     0.40073    0.00093     0.40166
      H   26    0.09665      0.00000     0.40210    0.00124     0.40335
 =======================================================================
   * Total *   -0.00000     11.99612    34.81954    0.18435    47.00000

 Normal termination of Gaussian 16 at Wed Dec  9 17:25:42 2020.
