 Gaussian 16, Revision A.03,

 -----------------------------------------------------------
 # opt freq B3LYP/6-31G(d) empiricaldispersion=gd3bj scf=xqc
 -----------------------------------------------------------

 -------------------------------
 CID_151058408_JID_9490_neutraal
 -------------------------------
 Symbolic Z-matrix:
 Charge =  0 Multiplicity = 1

 SCF Done:  E(RB3LYP) =  -837.324279986     A.U. after   16 cycles
 SCF Done:  E(RB3LYP) =  -837.333280955     A.U. after   14 cycles
 SCF Done:  E(RB3LYP) =  -837.333605362     A.U. after   13 cycles
 SCF Done:  E(RB3LYP) =  -837.334274913     A.U. after   13 cycles
 SCF Done:  E(RB3LYP) =  -837.334350150     A.U. after   12 cycles
 SCF Done:  E(RB3LYP) =  -837.334381234     A.U. after   11 cycles
 SCF Done:  E(RB3LYP) =  -837.334387631     A.U. after   10 cycles
 SCF Done:  E(RB3LYP) =  -837.334390340     A.U. after   10 cycles
 SCF Done:  E(RB3LYP) =  -837.334392318     A.U. after    9 cycles
 SCF Done:  E(RB3LYP) =  -837.334400612     A.U. after   12 cycles
 SCF Done:  E(RB3LYP) =  -837.343336304     A.U. after   11 cycles
 SCF Done:  E(RB3LYP) =  -837.343355165     A.U. after   11 cycles
 SCF Done:  E(RB3LYP) =  -837.343359113     A.U. after   10 cycles
 SCF Done:  E(RB3LYP) =  -837.343359487     A.U. after    8 cycles
 SCF Done:  E(RB3LYP) =  -837.343359514     A.U. after    7 cycles
 Optimization completed.
    -- Stationary point found.
 Normal termination of Gaussian 16 at Sat Dec 12 09:56:45 2020.

 --------------------------------------------------------------------
 #N Geom=AllCheck Guess=TCheck SCRF=Check GenChk RB3LYP/6-31G(d) Freq
 --------------------------------------------------------------------

 Structure from the checkpoint file:  "JID_9490.chk"
 -------------------------------
 CID_151058408_JID_9490_neutraal
 -------------------------------
 Charge =  0 Multiplicity = 1

 SCF Done:  E(RB3LYP) =  -837.343359514     A.U. after    1 cycles

  Exact polarizability: 352.409 -20.965 162.185  -9.766  -5.646  96.833
 Approx polarizability: 526.099 -62.463 288.774 -18.177 -20.046 152.681

                      1                      2                      3
                      A                      A                      A
 Frequencies --     29.5307                45.8364                56.8573
 Red. masses --      6.6776                 3.8269                 6.8300
 Frc consts  --      0.0034                 0.0047                 0.0130
 IR Inten    --      0.1650                 0.6946                 0.4295

                      4                      5                      6
                      A                      A                      A
 Frequencies --     95.1000                96.6515               137.2205
 Red. masses --      6.7593                 6.1711                 3.1207
 Frc consts  --      0.0360                 0.0340                 0.0346
 IR Inten    --      0.2815                 1.6472                 0.7074

                      7                      8                      9
                      A                      A                      A
 Frequencies --    158.1140               195.0479               226.4813
 Red. masses --      3.8540                 5.4972                 2.9140
 Frc consts  --      0.0568                 0.1232                 0.0881
 IR Inten    --      2.1923                 0.4800                 1.5792

                     10                     11                     12
                      A                      A                      A
 Frequencies --    242.2196               256.3751               319.0176
 Red. masses --      2.5074                 5.7270                 3.0776
 Frc consts  --      0.0867                 0.2218                 0.1845
 IR Inten    --      2.6227                 1.0634                 9.5145

                     13                     14                     15
                      A                      A                      A
 Frequencies --    356.4952               388.7983               402.3823
 Red. masses --      3.8081                 4.2712                 2.8738
 Frc consts  --      0.2851                 0.3804                 0.2741
 IR Inten    --      2.4412                 2.3398                 4.7847

                     16                     17                     18
                      A                      A                      A
 Frequencies --    425.4053               443.1064               454.5808
 Red. masses --      3.0493                 4.1787                 2.9837
 Frc consts  --      0.3251                 0.4834                 0.3633
 IR Inten    --     11.4259                 5.3713                 2.7687

                     19                     20                     21
                      A                      A                      A
 Frequencies --    461.6410               480.3174               507.2330
 Red. masses --      3.2531                 2.5187                 7.5608
 Frc consts  --      0.4085                 0.3424                 1.1461
 IR Inten    --      0.4490                11.8662                 3.0093

                     22                     23                     24
                      A                      A                      A
 Frequencies --    521.4047               528.4790               551.0781
 Red. masses --      4.7559                 4.3011                 3.8353
 Frc consts  --      0.7618                 0.7078                 0.6862
 IR Inten    --      3.3537                 3.8247                18.8985

                     25                     26                     27
                      A                      A                      A
 Frequencies --    582.9930               616.1557               633.1240
 Red. masses --      2.8847                 1.8933                 3.9008
 Frc consts  --      0.5777                 0.4235                 0.9213
 IR Inten    --      9.3964                11.7162                 2.7370

                     28                     29                     30
                      A                      A                      A
 Frequencies --    705.2344               720.3773               749.0339
 Red. masses --      6.3530                 3.8126                 4.3019
 Frc consts  --      1.8616                 1.1657                 1.4220
 IR Inten    --     16.1227                 5.4231                 2.6529

                     31                     32                     33
                      A                      A                      A
 Frequencies --    790.8683               814.3242               819.2835
 Red. masses --      2.7651                 3.3519                 1.4965
 Frc consts  --      1.0190                 1.3096                 0.5918
 IR Inten    --      1.4011                 2.2746                16.4393

                     34                     35                     36
                      A                      A                      A
 Frequencies --    856.6878               863.1293               877.4308
 Red. masses --      3.0926                 1.6804                 1.6545
 Frc consts  --      1.3373                 0.7376                 0.7505
 IR Inten    --      8.7002                 0.5416                 7.0623

                     37                     38                     39
                      A                      A                      A
 Frequencies --    892.8949               900.7583               910.2345
 Red. masses --      2.3077                 1.7381                 2.3944
 Frc consts  --      1.0840                 0.8309                 1.1688
 IR Inten    --     20.5302                 5.6458                 9.2222

                     40                     41                     42
                      A                      A                      A
 Frequencies --    941.1544               951.8538               973.2694
 Red. masses --      1.3520                 2.7066                 2.8523
 Frc consts  --      0.7056                 1.4448                 1.5919
 IR Inten    --      5.4672                24.3241                39.0621

                     43                     44                     45
                      A                      A                      A
 Frequencies --   1019.5948              1028.8931              1057.1614
 Red. masses --      2.4087                 2.2625                 2.2193
 Frc consts  --      1.4753                 1.4112                 1.4613
 IR Inten    --      5.7239                10.8227                10.1098

                     46                     47                     48
                      A                      A                      A
 Frequencies --   1062.7021              1101.0512              1109.0334
 Red. masses --      2.2633                 1.8085                 2.9857
 Frc consts  --      1.5059                 1.2918                 2.1636
 IR Inten    --     54.9895                12.2944                24.8125

                     49                     50                     51
                      A                      A                      A
 Frequencies --   1145.3318              1152.9979              1170.1591
 Red. masses --      5.9760                 2.1068                 2.1804
 Frc consts  --      4.6187                 1.6502                 1.7591
 IR Inten    --     86.6787                 3.0308                21.1512

                     52                     53                     54
                      A                      A                      A
 Frequencies --   1194.0172              1205.3249              1216.1808
 Red. masses --      3.3963                 1.2884                 1.3185
 Frc consts  --      2.8529                 1.1028                 1.1490
 IR Inten    --     16.3766                 9.5018                 8.2450

                     55                     56                     57
                      A                      A                      A
 Frequencies --   1250.0724              1254.2958              1267.3364
 Red. masses --      1.3810                 1.1488                 1.7594
 Frc consts  --      1.2715                 1.0649                 1.6649
 IR Inten    --      3.2041                 0.4377                15.6511

                     58                     59                     60
                      A                      A                      A
 Frequencies --   1272.5454              1295.7350              1320.4638
 Red. masses --      2.0390                 1.3547                 1.5274
 Frc consts  --      1.9454                 1.3401                 1.5691
 IR Inten    --    153.2730                35.4137                 0.5906

                     61                     62                     63
                      A                      A                      A
 Frequencies --   1336.5658              1344.9011              1362.9628
 Red. masses --      1.2301                 2.6169                 2.6196
 Frc consts  --      1.2947                 2.7888                 2.8672
 IR Inten    --     31.1841                 0.5352                38.4736

                     64                     65                     66
                      A                      A                      A
 Frequencies --   1373.7759              1380.1776              1387.3094
 Red. masses --      1.3018                 1.4876                 3.3774
 Frc consts  --      1.4475                 1.6695                 3.8298
 IR Inten    --     12.9762                 0.2663               100.7097

                     67                     68                     69
                      A                      A                      A
 Frequencies --   1404.1001              1413.0486              1417.9666
 Red. masses --      1.2573                 1.2996                 1.9645
 Frc consts  --      1.4605                 1.5289                 2.3272
 IR Inten    --     15.6171                11.6718                38.5416

                     70                     71                     72
                      A                      A                      A
 Frequencies --   1428.5242              1439.5417              1490.3497
 Red. masses --      2.2409                 1.3363                 2.8309
 Frc consts  --      2.6943                 1.6315                 3.7047
 IR Inten    --     83.5113                39.1976                46.6953

                     73                     74                     75
                      A                      A                      A
 Frequencies --   1500.3638              1508.0263              1510.8338
 Red. masses --      1.1042                 1.1763                 1.1081
 Frc consts  --      1.4645                 1.5761                 1.4902
 IR Inten    --      2.3719                 5.4399                 2.5563

                     76                     77                     78
                      A                      A                      A
 Frequencies --   1514.2616              1522.4129              1527.5683
 Red. masses --      1.1056                 1.1105                 1.1079
 Frc consts  --      1.4936                 1.5165                 1.5232
 IR Inten    --      0.6649                11.9379                 1.1850

                     79                     80                     81
                      A                      A                      A
 Frequencies --   1553.0688              1606.4597              1672.4957
 Red. masses --      3.0540                 5.7999                 6.2341
 Frc consts  --      4.3401                 8.8188                10.2743
 IR Inten    --    110.0183                41.0717               194.0080

                     82                     83                     84
                      A                      A                      A
 Frequencies --   1695.9766              2251.1672              2993.7364
 Red. masses --      7.1729                13.9782                 1.0698
 Frc consts  --     12.1559                41.7367                 5.6490
 IR Inten    --     73.6109              1325.1811                30.4804

                     85                     86                     87
                      A                      A                      A
 Frequencies --   3006.4853              3011.2078              3021.2635
 Red. masses --      1.0692                 1.0721                 1.0662
 Frc consts  --      5.6944                 5.7275                 5.7341
 IR Inten    --     38.4217                14.6168                37.5352

                     88                     89                     90
                      A                      A                      A
 Frequencies --   3050.4917              3058.8972              3083.8125
 Red. masses --      1.0690                 1.0700                 1.0926
 Frc consts  --      5.8607                 5.8987                 6.1216
 IR Inten    --     32.2351                79.2464                22.3548

                     91                     92                     93
                      A                      A                      A
 Frequencies --   3091.4394              3107.9737              3110.0667
 Red. masses --      1.0938                 1.0948                 1.0969
 Frc consts  --      6.1592                 6.2305                 6.2512
 IR Inten    --     22.9714                50.9237                78.6264

                     94                     95                     96
                      A                      A                      A
 Frequencies --   3131.8861              3153.7589              3180.5806
 Red. masses --      1.0958                 1.0947                 1.0892
 Frc consts  --      6.3326                 6.4149                 6.4920
 IR Inten    --     16.9152                15.7202                15.8929

                     97                     98                     99
                      A                      A                      A
 Frequencies --   3194.9820              3198.3892              3229.0749
 Red. masses --      1.0886                 1.0906                 1.0904
 Frc consts  --      6.5474                 6.5733                 6.6988
 IR Inten    --     20.3285                14.8909                25.0970

 - Thermochemistry -
 -------------------
 Temperature   298.150 Kelvin.  Pressure   1.00000 Atm.
 Atom     1 has atomic number  6 and mass  12.00000

 Molecular mass:   256.13241 amu.
 Principal axes and moments of inertia in atomic units:
                           1         2         3
     Eigenvalues --  1275.04699********************
           X            1.00000  -0.00300   0.00056
           Y            0.00300   0.99999   0.00182
           Z           -0.00057  -0.00182   1.00000
 This molecule is an asymmetric top.
 Rotational symmetry number  1.
 Warning -- assumption of classical behavior for rotation
           may cause significant error
 Rotational temperatures (Kelvin)      0.06793     0.00696     0.00658
 Rotational constants (GHZ):           1.41543     0.14503     0.13720
 Zero-point vibrational energy     761823.7 (Joules/Mol)
                                  182.08024 (Kcal/Mol)
 Warning -- explicit consideration of  26 degrees of freedom as
           vibrations may cause significant error
 Vibrational temperatures:     42.49    65.95    81.80   136.83   139.06
          (Kelvin)            197.43   227.49   280.63   325.86   348.50
                              368.87   459.00   512.92   559.39   578.94
                              612.06   637.53   654.04   664.20   691.07
                              729.80   750.19   760.36   792.88   838.80
                              886.51   910.92  1014.68  1036.46  1077.69
                             1137.88  1171.63  1178.77  1232.58  1241.85
                             1262.43  1284.68  1295.99  1309.62  1354.11
                             1369.51  1400.32  1466.97  1480.35  1521.02
                             1528.99  1584.17  1595.65  1647.88  1658.91
                             1683.60  1717.92  1734.19  1749.81  1798.58
                             1804.65  1823.41  1830.91  1864.27  1899.85
                             1923.02  1935.01  1961.00  1976.56  1985.77
                             1996.03  2020.19  2033.06  2040.14  2055.33
                             2071.18  2144.28  2158.69  2169.71  2173.75
                             2178.68  2190.41  2197.83  2234.52  2311.34
                             2406.35  2440.13  3238.93  4307.32  4325.66
                             4332.46  4346.92  4388.98  4401.07  4436.92
                             4447.89  4471.68  4474.69  4506.09  4537.56
                             4576.15  4596.87  4601.77  4645.92

 Zero-point correction=                           0.290163 (Hartree/Particle)
 Thermal correction to Energy=                    0.305857
 Thermal correction to Enthalpy=                  0.306801
 Thermal correction to Gibbs Free Energy=         0.246178
 Sum of electronic and zero-point Energies=           -837.053196
 Sum of electronic and thermal Energies=              -837.037502
 Sum of electronic and thermal Enthalpies=            -837.036558
 Sum of electronic and thermal Free Energies=         -837.097181

                     E (Thermal)             CV                S
                      KCal/Mol        Cal/Mol-Kelvin    Cal/Mol-Kelvin
 Total                  191.928             62.269            127.592
 Electronic               0.000              0.000              0.000
 Translational            0.889              2.981             42.522
 Rotational               0.889              2.981             33.700
 Vibrational            190.151             56.308             51.370
 Vibration     1          0.593              1.984              5.861
 Vibration     2          0.595              1.979              4.989
 Vibration     3          0.596              1.975              4.563
 Vibration     4          0.603              1.953              3.552
 Vibration     5          0.603              1.952              3.521
 Vibration     6          0.614              1.916              2.842
 Vibration     7          0.621              1.894              2.572
 Vibration     8          0.636              1.847              2.179
 Vibration     9          0.650              1.801              1.907
 Vibration    10          0.658              1.776              1.787
 Vibration    11          0.666              1.752              1.686
 Vibration    12          0.705              1.637              1.315
 Vibration    13          0.732              1.562              1.137
 Vibration    14          0.757              1.494              1.005
 Vibration    15          0.768              1.465              0.954
 Vibration    16          0.787              1.415              0.874
 Vibration    17          0.803              1.376              0.817
 Vibration    18          0.813              1.351              0.782
 Vibration    19          0.819              1.335              0.761
 Vibration    20          0.837              1.294              0.709
 Vibration    21          0.862              1.234              0.640
 Vibration    22          0.876              1.203              0.607
 Vibration    23          0.883              1.187              0.591
 Vibration    24          0.906              1.137              0.542
 Vibration    25          0.940              1.068              0.480
 Vibration    26          0.976              0.998              0.423

 Optimization completed.
    -- Stationary point found.
 Normal termination of Gaussian 16 at Sat Dec 12 10:14:22 2020.

 ----------------------------------------------------------------------
 # B3LYP/6-311++G(d,p) empiricaldispersion=gd3bj scf=xqc pop=npa geom=c
 heck
 ----------------------------------------------------------------------

 ---------------------------------------
 CID_151058408_JID_9490_Energie_neutraal
 ---------------------------------------
 Structure from the checkpoint file:  "JID_9490.chk"
 Charge =  0 Multiplicity = 1

 SCF Done:  E(RB3LYP) =  -837.561024195     A.U. after   18 cycles
 Normal termination of Gaussian 16 at Sat Dec 12 10:23:15 2020.

 ----------------------------------------------------------------------
 # B3LYP/6-311++G(d,p) empiricaldispersion=gd3bj scf=xqc pop=npa geom=c
 heck
 ----------------------------------------------------------------------

 -------------------------------------
 CID_151058408_JID_9490_Energie_kation
 -------------------------------------
 Structure from the checkpoint file:  "JID_9490.chk"
 Charge =  1 Multiplicity = 2

 SCF Done:  E(UB3LYP) =  -837.319047610     A.U. after   23 cycles
 Normal termination of Gaussian 16 at Sat Dec 12 10:39:28 2020.
 Gaussian 16:  ES64L-G16RevA.03 25-Dec-2016

 ----------------------------------------------------------------------
 # B3LYP/6-311++G(d,p) empiricaldispersion=gd3bj scf=xqc pop=npa geom=c
 heck
 ----------------------------------------------------------------------

 ------------------------------------
 CID_151058408_JID_9490_Energie_anion
 ------------------------------------
 Structure from the checkpoint file:  "JID_9490.chk"
 Charge = -1 Multiplicity = 2

                         Standard orientation:
 ---------------------------------------------------------------------
 Center     Atomic      Atomic             Coordinates (Angstroms)
 Number     Number       Type             X           Y           Z
 ---------------------------------------------------------------------
      1          6           0        3.233564   -1.037340    0.398025
      2          6           0        1.859733   -1.542577   -0.063950
      3          6           0        0.772711   -0.505112    0.106088
      4          6           0        1.114322    0.850208   -0.107110
      5          6           0        0.092375    1.802347   -0.035951
      6          6           0       -1.223471    1.443075    0.240672
      7          6           0       -1.570038    0.098674    0.472563
      8          6           0       -0.534372   -0.860109    0.397130
      9          7           0       -2.868563   -0.304241    0.825121
     10          6           0       -3.440904   -1.501062    0.197147
     11          6           0       -4.166869   -1.129836   -1.098986
     12          8           0       -5.175907   -0.156002   -0.861489
     13          6           0       -4.631536    1.027804   -0.287535
     14          6           0       -3.913642    0.698405    1.023727
     15          6           0        2.497860    1.212487   -0.371953
     16          6           0        3.506636    0.344103   -0.151363
     17          7           0        4.828907    0.789329   -0.368298
     18          7           0        5.766236    0.011009   -0.156121
     19          7           0        6.726197   -0.592265   -0.002568
     20          1           0        4.008512   -1.745321    0.082867
     21          1           0        3.274901   -0.997675    1.497443
     22          1           0        1.601351   -2.467097    0.463226
     23          1           0        1.929762   -1.796622   -1.132649
     24          1           0        0.330032    2.849927   -0.204879
     25          1           0       -1.977829    2.219775    0.259501
     26          1           0       -0.754296   -1.904043    0.598299
     27          1           0       -4.156210   -1.948544    0.898454
     28          1           0       -2.662440   -2.237459   -0.004577
     29          1           0       -3.434455   -0.748658   -1.830209
     30          1           0       -4.673622   -1.999095   -1.529542
     31          1           0       -5.475189    1.704033   -0.118761
     32          1           0       -3.933805    1.502930   -0.995551
     33          1           0       -4.647366    0.272200    1.719900
     34          1           0       -3.493799    1.589197    1.495923
     35          1           0        2.724054    2.221239   -0.705511
 ---------------------------------------------------------------------

 SCF Done:  E(UB3LYP) =  -837.558706304     A.U. after   33 cycles
 SCF Done:  E(UB3LYP) =  -837.558706305     a.u. after    2 cycles

 The electronic state is 2-A.
 Alpha  occ. eigenvalues --  -19.03597 -14.34852 -14.25417 -14.24861 -14.22072
 Alpha  occ. eigenvalues --  -10.12501 -10.12433 -10.10676 -10.10554 -10.08803
 Alpha  occ. eigenvalues --  -10.08249 -10.07172 -10.06909 -10.05807 -10.05195
 Alpha  occ. eigenvalues --  -10.05168 -10.04993 -10.04753 -10.03349  -1.01857
 Alpha  occ. eigenvalues --   -0.95179  -0.86470  -0.84121  -0.74854  -0.70255
 Alpha  occ. eigenvalues --   -0.68469  -0.65719  -0.64108  -0.61474  -0.58727
 Alpha  occ. eigenvalues --   -0.56737  -0.53108  -0.52630  -0.49045  -0.48254
 Alpha  occ. eigenvalues --   -0.44689  -0.42250  -0.40227  -0.39788  -0.39336
 Alpha  occ. eigenvalues --   -0.38855  -0.38434  -0.37320  -0.36713  -0.35226
 Alpha  occ. eigenvalues --   -0.34609  -0.33220  -0.32940  -0.32510  -0.31025
 Alpha  occ. eigenvalues --   -0.30466  -0.29486  -0.28481  -0.27760  -0.27024
 Alpha  occ. eigenvalues --   -0.26965  -0.26349  -0.25012  -0.23604  -0.23144
 Alpha  occ. eigenvalues --   -0.21653  -0.20904  -0.19155  -0.18464  -0.16957
 Alpha  occ. eigenvalues --   -0.13504  -0.11819  -0.06849   0.04293
 Alpha virt. eigenvalues --    0.06133   0.06751   0.07740   0.07932   0.08096
 Alpha virt. eigenvalues --    0.09128   0.09215   0.09657   0.10243   0.10612
 Alpha virt. eigenvalues --    0.11070   0.11295   0.11853   0.12090   0.12776

  Beta  occ. eigenvalues --  -19.03595 -14.34562 -14.25124 -14.25007 -14.22058
  Beta  occ. eigenvalues --  -10.12490 -10.12415 -10.10665 -10.10546 -10.08587
  Beta  occ. eigenvalues --  -10.07990 -10.07185 -10.06907 -10.05703 -10.05246
  Beta  occ. eigenvalues --  -10.05208 -10.04903 -10.04702 -10.03239  -1.01401
  Beta  occ. eigenvalues --   -0.95172  -0.86317  -0.84012  -0.74663  -0.70038
  Beta  occ. eigenvalues --   -0.68438  -0.65501  -0.63837  -0.61366  -0.58607
  Beta  occ. eigenvalues --   -0.56700  -0.52866  -0.52569  -0.48945  -0.48160
  Beta  occ. eigenvalues --   -0.44560  -0.42165  -0.40065  -0.39408  -0.38834
  Beta  occ. eigenvalues --   -0.38461  -0.38299  -0.37254  -0.36610  -0.34975
  Beta  occ. eigenvalues --   -0.34424  -0.32876  -0.32755  -0.32327  -0.30975
  Beta  occ. eigenvalues --   -0.30387  -0.29435  -0.28283  -0.27699  -0.26982
  Beta  occ. eigenvalues --   -0.26750  -0.26165  -0.24726  -0.23473  -0.23008
  Beta  occ. eigenvalues --   -0.21472  -0.20376  -0.18930  -0.18472  -0.16486
  Beta  occ. eigenvalues --   -0.13170  -0.11310  -0.05976
  Beta virt. eigenvalues --    0.06403   0.07223   0.07911   0.08095   0.08146
  Beta virt. eigenvalues --    0.08826   0.09168   0.09370   0.09747   0.10352
  Beta virt. eigenvalues --    0.10665   0.11101   0.11398   0.11865   0.12401

 Mulliken charges and spin densities:
               1          2
     1  C   -0.315690   0.030603
     2  C   -0.406843  -0.080961
     3  C   -0.122224   0.234678
     4  C    0.819282  -0.080836
     5  C   -0.248687   0.037918
     6  C   -0.048079   0.021803
     7  C    0.042511  -0.180423
     8  C   -0.400921  -0.187186
     9  N    0.179350   0.006381
    10  C   -0.100341   0.060997
    11  C   -0.021664  -0.486123
    12  O   -0.167774   0.034909
    13  C    0.182477  -0.550158
    14  C   -0.090973   0.002710
    15  C   -0.194339   0.142027
    16  C   -0.654701   0.137823
    17  N   -0.039951  -0.070120
    18  N    0.308026   0.086155
    19  N   -0.292744   0.165929
    20  H    0.124833   0.005120
    21  H    0.132141   0.015691
    22  H    0.059757   0.058896
    23  H    0.152569   0.003589
    24  H    0.073311   0.036571
    25  H    0.008005   0.096149
    26  H    0.034284   0.094486
    27  H    0.042689   0.121957
    28  H   -0.014897   0.109824
    29  H    0.145918  -0.013111
    30  H   -0.156724   0.331557
    31  H   -0.256192   0.430581
    32  H    0.078113   0.070059
    33  H   -0.055559   0.226989
    34  H    0.063631   0.086473
    35  H    0.141405  -0.000960
 Sum of Mulliken charges =  -1.00000   1.00000

 Dipole moment (field-independent basis, Debye):
    X=             -2.1164    Y=             -0.9453    Z=              0.4360  Tot=              2.3586
 Quadrupole moment (field-independent basis, Debye-Ang):
   XX=           -243.3795   YY=           -130.6818   ZZ=           -129.5095
   XY=              0.4627   XZ=             -1.5534   YZ=             -0.5045

 Summary of Natural Population Analysis:

                                       Natural Population
                Natural  -----------------------------------------------
    Atom  No    Charge         Core      Valence    Rydberg      Total
 -----------------------------------------------------------------------
      C    1   -0.20784      0.99960     2.20088    0.00736     3.20784
      C    2   -0.18942      0.99961     2.18134    0.00847     3.18942
      C    3    0.01806      0.99949     1.97330    0.00915     2.98194
      C    4   -0.03995      0.99947     2.03229    0.00818     3.03995
      C    5   -0.06703      0.99954     2.05941    0.00808     3.06703
      C    6   -0.14744      0.99954     2.13898    0.00892     3.14744
      C    7    0.12156      0.99948     1.86823    0.01073     2.87844
      C    8   -0.13515      0.99949     2.12646    0.00920     3.13515
      N    9   -0.25801      0.99968     2.74682    0.01151     3.75801
      C   10   -0.09465      0.99961     2.08418    0.01087     3.09465
      C   11   -0.01966      0.99958     2.00800    0.01208     3.01966
      O   12   -0.30184      0.99989     3.29201    0.00994     4.30184
      C   13   -0.02069      0.99958     2.00865    0.01246     3.02069
      C   14   -0.10026      0.99962     2.08901    0.01164     3.10026
      C   15   -0.10099      0.99947     2.09296    0.00856     3.10099
      C   16    0.11216      0.99942     1.87689    0.01152     2.88784
      N   17   -0.19657      0.99964     2.68314    0.01379     3.69657
      N   18    0.13969      0.99971     2.34429    0.01632     3.36031
      N   19   -0.02875      0.99982     2.51550    0.01344     3.52875
      H   20    0.10062      0.00000     0.39820    0.00118     0.39938
      H   21    0.10137      0.00000     0.39732    0.00131     0.39863
      H   22    0.09763      0.00000     0.40079    0.00159     0.40237
      H   23    0.10017      0.00000     0.39827    0.00157     0.39983
      H   24    0.09182      0.00000     0.40666    0.00152     0.40818
      H   25    0.09501      0.00000     0.40346    0.00153     0.40499
      H   26    0.09381      0.00000     0.40438    0.00181     0.40619
      H   27    0.09249      0.00000     0.40626    0.00125     0.40751
      H   28    0.10339      0.00000     0.39551    0.00110     0.39661
      H   29    0.08142      0.00000     0.41740    0.00119     0.41858
      H   30    0.09049      0.00000     0.40796    0.00155     0.40951
      H   31    0.09075      0.00000     0.40751    0.00175     0.40925
      H   32    0.08169      0.00000     0.41692    0.00139     0.41831
      H   33    0.09554      0.00000     0.40316    0.00130     0.40446
      H   34    0.10376      0.00000     0.39511    0.00113     0.39624
      H   35    0.09682      0.00000     0.40161    0.00157     0.40318
 =======================================================================
   * Total *   -0.00000     18.99224    48.78281    0.22494    68.00000

 Normal termination of Gaussian 16 at Sat Dec 12 11:24:57 2020.
