 Gaussian 16, Revision A.03,

 -----------------------------------------------------------
 # opt freq B3LYP/6-31G(d) empiricaldispersion=gd3bj scf=xqc
 -----------------------------------------------------------

 -------------------------------
 CID_61313281_JID_10142_neutraal
 -------------------------------
 Symbolic Z-matrix:
 Charge =  0 Multiplicity = 1

 SCF Done:  E(RB3LYP) =  -860.737156855     A.U. after   15 cycles
 SCF Done:  E(RB3LYP) =  -860.743516968     A.U. after   12 cycles
 SCF Done:  E(RB3LYP) =  -860.744246960     A.U. after   12 cycles
 SCF Done:  E(RB3LYP) =  -860.744700564     A.U. after   12 cycles
 SCF Done:  E(RB3LYP) =  -860.745024090     A.U. after   11 cycles
 SCF Done:  E(RB3LYP) =  -860.745149438     A.U. after   11 cycles
 SCF Done:  E(RB3LYP) =  -860.745207194     A.U. after   11 cycles
 SCF Done:  E(RB3LYP) =  -860.745221354     A.U. after   10 cycles
 SCF Done:  E(RB3LYP) =  -860.745226387     A.U. after    9 cycles
 SCF Done:  E(RB3LYP) =  -860.745227470     A.U. after    8 cycles
 SCF Done:  E(RB3LYP) =  -860.745227909     A.U. after    8 cycles
 SCF Done:  E(RB3LYP) =  -860.745227981     A.U. after    7 cycles
 SCF Done:  E(RB3LYP) =  -860.745228006     A.U. after    7 cycles
 Optimization completed.
    -- Stationary point found.
 Normal termination of Gaussian 16 at Mon Dec 14 13:30:15 2020.

 --------------------------------------------------------------------
 #N Geom=AllCheck Guess=TCheck SCRF=Check GenChk RB3LYP/6-31G(d) Freq
 --------------------------------------------------------------------

 Structure from the checkpoint file:  "JID_10142.chk"
 -------------------------------
 CID_61313281_JID_10142_neutraal
 -------------------------------
 Charge =  0 Multiplicity = 1

 SCF Done:  E(RB3LYP) =  -860.745228006     A.U. after    1 cycles

  Exact polarizability: 286.957  10.384 182.592   8.396   0.109 131.345
 Approx polarizability: 389.876  24.492 310.533  13.922   6.486 208.598

                      1                      2                      3
                      A                      A                      A
 Frequencies --     26.5162                28.3201                39.8676
 Red. masses --      2.8950                 1.1646                 4.2836
 Frc consts  --      0.0012                 0.0006                 0.0040
 IR Inten    --      0.1725                 0.3812                 2.0796

                      4                      5                      6
                      A                      A                      A
 Frequencies --     45.9911                68.2400                96.5838
 Red. masses --      4.1413                 4.9548                 4.7146
 Frc consts  --      0.0052                 0.0136                 0.0259
 IR Inten    --      0.9263                 6.5409                 1.3580

                      7                      8                      9
                      A                      A                      A
 Frequencies --    120.3911               153.8073               172.1501
 Red. masses --      3.7393                 1.2150                 1.2634
 Frc consts  --      0.0319                 0.0169                 0.0221
 IR Inten    --      0.2267                 1.4987                 2.0540

                     10                     11                     12
                      A                      A                      A
 Frequencies --    178.7740               190.3757               210.4833
 Red. masses --      3.0086                 2.4633                 3.9714
 Frc consts  --      0.0567                 0.0526                 0.1037
 IR Inten    --      7.2233                 0.8657                 1.2716

                     13                     14                     15
                      A                      A                      A
 Frequencies --    215.6352               238.5246               274.7349
 Red. masses --      4.1343                 2.7016                 2.1774
 Frc consts  --      0.1133                 0.0906                 0.0968
 IR Inten    --      2.4925                 0.3203                 2.6669

                     16                     17                     18
                      A                      A                      A
 Frequencies --    280.9968               301.6603               313.3455
 Red. masses --      2.2214                 2.0745                 3.2192
 Frc consts  --      0.1033                 0.1112                 0.1862
 IR Inten    --      7.5003                 2.8523                 1.4843

                     19                     20                     21
                      A                      A                      A
 Frequencies --    324.7770               374.1723               389.2100
 Red. masses --      2.7931                 3.9840                 3.8472
 Frc consts  --      0.1736                 0.3286                 0.3434
 IR Inten    --      2.7819                 0.7063                 1.4336

                     22                     23                     24
                      A                      A                      A
 Frequencies --    427.5759               443.0318               460.4186
 Red. masses --      1.8722                 2.1905                 3.0947
 Frc consts  --      0.2017                 0.2533                 0.3865
 IR Inten    --     98.7339                72.1038                16.3249

                     25                     26                     27
                      A                      A                      A
 Frequencies --    490.2229               510.7558               522.8248
 Red. masses --      3.7234                 3.1523                 2.4580
 Frc consts  --      0.5272                 0.4845                 0.3959
 IR Inten    --     10.6466                 9.0633                30.8321

                     28                     29                     30
                      A                      A                      A
 Frequencies --    523.2533               548.4932               567.7407
 Red. masses --      2.4685                 3.3118                 3.6296
 Frc consts  --      0.3982                 0.5870                 0.6893
 IR Inten    --     40.2326                 3.4532                 5.3056

                     31                     32                     33
                      A                      A                      A
 Frequencies --    578.7749               581.1439               593.9625
 Red. masses --      3.6661                 3.7063                 3.4037
 Frc consts  --      0.7236                 0.7375                 0.7075
 IR Inten    --      5.9199                 4.2525                19.6997

                     34                     35                     36
                      A                      A                      A
 Frequencies --    602.7659               625.8265               664.8809
 Red. masses --      2.3269                 3.0922                 2.0547
 Frc consts  --      0.4981                 0.7135                 0.5352
 IR Inten    --     11.0931                74.7375                53.9290

                     37                     38                     39
                      A                      A                      A
 Frequencies --    716.7170               727.8202               739.1745
 Red. masses --      3.8100                 3.4124                 4.2931
 Frc consts  --      1.1531                 1.0650                 1.3820
 IR Inten    --     41.7863                31.7586                11.0153

                     40                     41                     42
                      A                      A                      A
 Frequencies --    771.2531               807.3600               833.4456
 Red. masses --      3.8638                 1.7533                 1.6941
 Frc consts  --      1.3541                 0.6733                 0.6933
 IR Inten    --     51.9104               209.6201                11.8639

                     43                     44                     45
                      A                      A                      A
 Frequencies --    854.5214               865.0716               880.6984
 Red. masses --      3.4046                 1.8940                 1.5255
 Frc consts  --      1.4648                 0.8351                 0.6971
 IR Inten    --     23.3545                54.4879                 1.5174

                     46                     47                     48
                      A                      A                      A
 Frequencies --    898.2196               913.2252               937.7788
 Red. masses --      1.2994                 1.4583                 1.2725
 Frc consts  --      0.6177                 0.7166                 0.6594
 IR Inten    --      0.4076                21.9323                 0.4338

                     49                     50                     51
                      A                      A                      A
 Frequencies --    960.6760               964.5895               985.1281
 Red. masses --      3.8865                 2.3772                 3.8581
 Frc consts  --      2.1133                 1.3032                 2.2060
 IR Inten    --      4.8968                 3.2086                 0.5389

                     52                     53                     54
                      A                      A                      A
 Frequencies --   1043.2945              1047.3525              1065.8626
 Red. masses --      1.6376                 1.5430                 1.6986
 Frc consts  --      1.0502                 0.9973                 1.1370
 IR Inten    --     14.0228                 2.3908                 0.1528

                     55                     56                     57
                      A                      A                      A
 Frequencies --   1073.7609              1074.8875              1082.3128
 Red. masses --      1.5453                 1.5019                 1.5095
 Frc consts  --      1.0497                 1.0224                 1.0418
 IR Inten    --      9.2622                 8.8850                 3.4376

                     58                     59                     60
                      A                      A                      A
 Frequencies --   1099.9236              1122.4637              1147.9744
 Red. masses --      2.0522                 1.7469                 1.5688
 Frc consts  --      1.4628                 1.2968                 1.2181
 IR Inten    --      8.3759                13.0773                13.3744

                     61                     62                     63
                      A                      A                      A
 Frequencies --   1185.2222              1191.3706              1249.1741
 Red. masses --      1.5488                 1.5832                 2.3433
 Frc consts  --      1.2818                 1.3240                 2.1544
 IR Inten    --      7.0464                24.3804                 4.3550

                     64                     65                     66
                      A                      A                      A
 Frequencies --   1268.2269              1293.4979              1312.2399
 Red. masses --      2.0842                 1.6109                 2.0139
 Frc consts  --      1.9750                 1.5880                 2.0432
 IR Inten    --     46.7038                35.1384                 4.8353

                     67                     68                     69
                      A                      A                      A
 Frequencies --   1332.3016              1341.1034              1353.3060
 Red. masses --      3.3267                 2.4906                 6.1576
 Frc consts  --      3.4791                 2.6393                 6.6444
 IR Inten    --     42.9581                21.5848                58.1693

                     70                     71                     72
                      A                      A                      A
 Frequencies --   1375.4173              1399.4819              1442.0609
 Red. masses --      4.0654                 5.2588                 1.2447
 Frc consts  --      4.5313                 6.0683                 1.5250
 IR Inten    --    416.8863                27.2830                 2.7430

                     73                     74                     75
                      A                      A                      A
 Frequencies --   1443.1166              1446.9694              1462.5140
 Red. masses --      1.2368                 1.3043                 2.4520
 Frc consts  --      1.5175                 1.6090                 3.0901
 IR Inten    --      1.4315                 1.2185                 4.3622

                     76                     77                     78
                      A                      A                      A
 Frequencies --   1483.9520              1491.8893              1506.8240
 Red. masses --      2.4339                 2.0697                 1.1285
 Frc consts  --      3.1578                 2.7142                 1.5097
 IR Inten    --     34.8046                22.0117                33.7178

                     79                     80                     81
                      A                      A                      A
 Frequencies --   1510.3618              1518.2395              1520.0806
 Red. masses --      1.4506                 1.0500                 1.1251
 Frc consts  --      1.9496                 1.4261                 1.5317
 IR Inten    --     53.2729                 5.0139                24.3976

                     82                     83                     84
                      A                      A                      A
 Frequencies --   1525.2207              1537.6393              1546.0998
 Red. masses --      1.0663                 1.3055                 1.5513
 Frc consts  --      1.4615                 1.8186                 2.1848
 IR Inten    --      1.0818                19.4899                98.3221

                     85                     86                     87
                      A                      A                      A
 Frequencies --   1565.3924              1637.2172              1646.3747
 Red. masses --      2.9517                 6.0652                 1.2812
 Frc consts  --      4.2616                 9.5788                 2.0461
 IR Inten    --    152.0196                 9.3390               151.9108

                     88                     89                     90
                      A                      A                      A
 Frequencies --   1647.0186              1658.2252              1670.2651
 Red. masses --      3.8288                 2.8796                 4.5787
 Frc consts  --      6.1194                 4.6652                 7.5259
 IR Inten    --     25.9623                96.1593                 1.4401

                     91                     92                     93
                      A                      A                      A
 Frequencies --   1691.1179              1779.7755              3031.3594
 Red. masses --      1.6514                 8.0125                 1.0456
 Frc consts  --      2.7826                14.9536                 5.6608
 IR Inten    --    155.2306               267.0071                28.5769

                     94                     95                     96
                      A                      A                      A
 Frequencies --   3040.3189              3048.9358              3088.5701
 Red. masses --      1.0407                 1.0378                 1.0923
 Frc consts  --      5.6676                 5.6838                 6.1394
 IR Inten    --     45.2647                23.4060                14.7412

                     97                     98                     99
                      A                      A                      A
 Frequencies --   3097.0871              3103.5018              3124.3587
 Red. masses --      1.0955                 1.0976                 1.1026
 Frc consts  --      6.1910                 6.2287                 6.3416
 IR Inten    --     21.2388                15.8572                15.9476

                    100                    101                    102
                      A                      A                      A
 Frequencies --   3132.5551              3132.8712              3171.1332
 Red. masses --      1.1008                 1.1023                 1.0898
 Frc consts  --      6.3645                 6.3744                 6.4567
 IR Inten    --     15.5153                21.2986                29.8707

                    103                    104                    105
                      A                      A                      A
 Frequencies --   3173.1673              3196.9335              3206.3944
 Red. masses --      1.0901                 1.0874                 1.0900
 Frc consts  --      6.4669                 6.5479                 6.6028
 IR Inten    --     19.4395                11.8893                 5.5357

                    106                    107                    108
                      A                      A                      A
 Frequencies --   3216.6397              3491.3343              3531.5227
 Red. masses --      1.0931                 1.0514                 1.0742
 Frc consts  --      6.6636                 7.5511                 7.8933
 IR Inten    --      6.0604                 3.6113                23.4990

                    109                    110                    111
                      A                      A                      A
 Frequencies --   3578.1991              3604.5608              3696.3297
 Red. masses --      1.0460                 1.0929                 1.1018
 Frc consts  --      7.8908                 8.3661                 8.8696
 IR Inten    --     33.2558                10.6299                22.2110

 - Thermochemistry -
 -------------------
 Temperature   298.150 Kelvin.  Pressure   1.00000 Atm.
 Atom     1 has atomic number  6 and mass  12.00000

 Molecular mass:   269.15281 amu.
 Principal axes and moments of inertia in atomic units:
                           1         2         3
     Eigenvalues --  2530.45201********************
           X            0.99998   0.00334   0.00577
           Y           -0.00318   0.99964  -0.02679
           Z           -0.00585   0.02678   0.99962
 This molecule is an asymmetric top.
 Rotational symmetry number  1.
 Warning -- assumption of classical behavior for rotation
           may cause significant error
 Rotational temperatures (Kelvin)      0.03423     0.00782     0.00727
 Rotational constants (GHZ):           0.71321     0.16303     0.15145
 Zero-point vibrational energy     858303.9 (Joules/Mol)
                                  205.13956 (Kcal/Mol)
 Warning -- explicit consideration of  34 degrees of freedom as
           vibrations may cause significant error
 Vibrational temperatures:     38.15    40.75    57.36    66.17    98.18
          (Kelvin)            138.96   173.22   221.29   247.69   257.22
                              273.91   302.84   310.25   343.18   395.28
                              404.29   434.02   450.83   467.28   538.35
                              559.99   615.19   637.42   662.44   705.32
                              734.86   752.23   752.84   789.16   816.85
                              832.73   836.14   854.58   867.25   900.42
                              956.62  1031.20  1047.17  1063.51  1109.66
                             1161.61  1199.14  1229.47  1244.65  1267.13
                             1292.34  1313.93  1349.25  1382.20  1387.83
                             1417.38  1501.07  1506.91  1533.54  1544.90
                             1546.52  1557.21  1582.54  1614.97  1651.68
                             1705.27  1714.12  1797.28  1824.70  1861.06
                             1888.02  1916.88  1929.55  1947.11  1978.92
                             2013.54  2074.80  2076.32  2081.87  2104.23
                             2135.08  2146.50  2167.98  2173.07  2184.41
                             2187.06  2194.45  2212.32  2224.49  2252.25
                             2355.59  2368.77  2369.69  2385.82  2403.14
                             2433.14  2560.70  4361.45  4374.34  4386.74
                             4443.76  4456.02  4465.25  4495.26  4507.05
                             4507.50  4562.55  4565.48  4599.67  4613.29
                             4628.03  5023.25  5081.07  5148.23  5186.16
                             5318.19

 Zero-point correction=                           0.326911 (Hartree/Particle)
 Thermal correction to Energy=                    0.346638
 Thermal correction to Enthalpy=                  0.347582
 Thermal correction to Gibbs Free Energy=         0.277747
 Sum of electronic and zero-point Energies=           -860.418317
 Sum of electronic and thermal Energies=              -860.398590
 Sum of electronic and thermal Enthalpies=            -860.397646
 Sum of electronic and thermal Free Energies=         -860.467481

                     E (Thermal)             CV                S
                      KCal/Mol        Cal/Mol-Kelvin    Cal/Mol-Kelvin
 Total                  217.518             75.654            146.980
 Electronic               0.000              0.000              0.000
 Translational            0.889              2.981             42.669
 Rotational               0.889              2.981             34.167
 Vibrational            215.741             69.692             70.144
 Vibration     1          0.593              1.984              6.074
 Vibration     2          0.593              1.984              5.944
 Vibration     3          0.594              1.981              5.266
 Vibration     4          0.595              1.979              4.983
 Vibration     5          0.598              1.969              4.203
 Vibration     6          0.603              1.952              3.522
 Vibration     7          0.609              1.932              3.094
 Vibration     8          0.619              1.898              2.625
 Vibration     9          0.626              1.877              2.412
 Vibration    10          0.629              1.868              2.341
 Vibration    11          0.634              1.853              2.224
 Vibration    12          0.643              1.825              2.039
 Vibration    13          0.645              1.817              1.995
 Vibration    14          0.656              1.782              1.814
 Vibration    15          0.677              1.720              1.566
 Vibration    16          0.681              1.709              1.528
 Vibration    17          0.694              1.671              1.408
 Vibration    18          0.701              1.648              1.345
 Vibration    19          0.709              1.626              1.286
 Vibration    20          0.745              1.525              1.063
 Vibration    21          0.757              1.493              1.003
 Vibration    22          0.789              1.410              0.867
 Vibration    23          0.803              1.376              0.817
 Vibration    24          0.818              1.338              0.765
 Vibration    25          0.846              1.272              0.683
 Vibration    26          0.866              1.226              0.632
 Vibration    27          0.878              1.199              0.603
 Vibration    28          0.878              1.199              0.602
 Vibration    29          0.904              1.143              0.547
 Vibration    30          0.924              1.101              0.509
 Vibration    31          0.935              1.077              0.488
 Vibration    32          0.938              1.072              0.483
 Vibration    33          0.952              1.045              0.460
 Vibration    34          0.961              1.026              0.445

                           ! Non-Optimized Parameters !
 Normal termination of Gaussian 16 at Mon Dec 14 13:50:16 2020.

 ----------------------------------------------------------------------
 # B3LYP/6-311++G(d,p) empiricaldispersion=gd3bj scf=xqc pop=npa geom=c
 heck
 ----------------------------------------------------------------------

 ---------------------------------------
 CID_61313281_JID_10142_Energie_neutraal
 ---------------------------------------
 Structure from the checkpoint file:  "JID_10142.chk"
 Charge =  0 Multiplicity = 1

 SCF Done:  E(RB3LYP) =  -860.989459720     A.U. after   16 cycles
 Normal termination of Gaussian 16 at Mon Dec 14 13:58:29 2020.

 ----------------------------------------------------------------------
 # B3LYP/6-311++G(d,p) empiricaldispersion=gd3bj scf=xqc pop=npa geom=c
 heck
 ----------------------------------------------------------------------

 -------------------------------------
 CID_61313281_JID_10142_Energie_kation
 -------------------------------------
 Structure from the checkpoint file:  "JID_10142.chk"
 Charge =  1 Multiplicity = 2

 SCF Done:  E(UB3LYP) =  -860.729809910     A.U. after   23 cycles
 Normal termination of Gaussian 16 at Mon Dec 14 14:14:27 2020.
 Gaussian 16:  ES64L-G16RevA.03 25-Dec-2016

 ----------------------------------------------------------------------
 # B3LYP/6-311++G(d,p) empiricaldispersion=gd3bj scf=xqc pop=npa geom=c
 heck
 ----------------------------------------------------------------------

 ------------------------------------
 CID_61313281_JID_10142_Energie_anion
 ------------------------------------
 Structure from the checkpoint file:  "JID_10142.chk"
 Charge = -1 Multiplicity = 2

                         Standard orientation:
 ---------------------------------------------------------------------
 Center     Atomic      Atomic             Coordinates (Angstroms)
 Number     Number       Type             X           Y           Z
 ---------------------------------------------------------------------
      1          6           0       -5.578958   -1.522273   -0.504149
      2          6           0       -4.261675   -0.827570   -0.258337
      3          6           0       -3.851121    0.237835   -1.064636
      4          6           0       -2.645734    0.906066   -0.844057
      5          6           0       -1.834319    0.502031    0.232310
      6          6           0       -2.226782   -0.557619    1.070568
      7          6           0       -3.431464   -1.210990    0.797536
      8          6           0       -1.377036   -0.970060    2.243877
      9          7           0       -0.619610    1.188003    0.499891
     10          6           0        0.634357    0.615079    0.241318
     11          6           0        1.771339    1.403144    0.548026
     12          6           0        3.039388    0.898613    0.293005
     13          6           0        3.215872   -0.385841   -0.240596
     14          6           0        2.089107   -1.163112   -0.529203
     15          6           0        0.809446   -0.662794   -0.296251
     16          6           0        4.618882   -0.843866   -0.463222
     17          8           0        5.570630   -0.070130   -0.470404
     18          7           0        4.791915   -2.194317   -0.690295
     19          7           0        1.545800    2.702025    1.048355
     20          6           0       -2.210493    2.032579   -1.749063
     21          1           0       -6.402941   -1.007654    0.007875
     22          1           0       -5.825605   -1.545929   -1.571063
     23          1           0       -5.561720   -2.553725   -0.137298
     24          1           0       -4.477724    0.547692   -1.898404
     25          1           0       -3.735818   -2.033173    1.441802
     26          1           0       -0.485142   -1.524257    1.926581
     27          1           0       -1.018950   -0.090872    2.790171
     28          1           0       -1.943877   -1.605493    2.930533
     29          1           0       -0.630112    2.175727    0.263937
     30          1           0        3.924744    1.488280    0.511438
     31          1           0        2.193655   -2.140326   -0.990324
     32          1           0       -0.065496   -1.247161   -0.560252
     33          1           0        4.120274   -2.848740   -0.315723
     34          1           0        5.756328   -2.499287   -0.685502
     35          1           0        2.403284    3.165644    1.329336
     36          1           0        0.882205    2.704095    1.820096
     37          1           0       -2.877202    2.117370   -2.611692
     38          1           0       -2.221607    3.004489   -1.235882
     39          1           0       -1.190918    1.877045   -2.120823
 ---------------------------------------------------------------------

 SCF Done:  E(UB3LYP) =  -860.982739013     A.U. after   33 cycles
 SCF Done:  E(UB3LYP) =  -860.982739013     a.u. after    1 cycles

 The electronic state is 2-A.
 Alpha  occ. eigenvalues --  -18.97224 -14.23369 -14.22356 -14.22216 -10.15483
 Alpha  occ. eigenvalues --  -10.11196 -10.10582 -10.10531 -10.09094 -10.08925
 Alpha  occ. eigenvalues --  -10.08831 -10.08279 -10.08147 -10.07684 -10.07537
 Alpha  occ. eigenvalues --  -10.06973 -10.06712 -10.06616 -10.06274 -10.06066
 Alpha  occ. eigenvalues --   -0.92317  -0.85942  -0.81429  -0.79493  -0.76409
 Alpha  occ. eigenvalues --   -0.73432  -0.69491  -0.68761  -0.64217  -0.62848
 Alpha  occ. eigenvalues --   -0.61419  -0.59175  -0.58653  -0.53149  -0.51513
 Alpha  occ. eigenvalues --   -0.49146  -0.48310  -0.46688  -0.44418  -0.43360
 Alpha  occ. eigenvalues --   -0.42215  -0.41059  -0.39652  -0.38226  -0.35894
 Alpha  occ. eigenvalues --   -0.34995  -0.34154  -0.33435  -0.33253  -0.32945
 Alpha  occ. eigenvalues --   -0.32627  -0.31784  -0.31616  -0.31435  -0.30960
 Alpha  occ. eigenvalues --   -0.30885  -0.30559  -0.29218  -0.28042  -0.27129
 Alpha  occ. eigenvalues --   -0.25842  -0.25337  -0.24734  -0.24449  -0.21717
 Alpha  occ. eigenvalues --   -0.20766  -0.17364  -0.15256  -0.15107  -0.14560
 Alpha  occ. eigenvalues --   -0.13085  -0.09917   0.03925
 Alpha virt. eigenvalues --    0.05446   0.05937   0.06555   0.06795   0.07583
 Alpha virt. eigenvalues --    0.07693   0.07891   0.08728   0.09065   0.09364
 Alpha virt. eigenvalues --    0.09883   0.10027   0.10554   0.10903   0.10939

  Beta  occ. eigenvalues --  -18.97110 -14.23369 -14.22336 -14.22182 -10.15371
  Beta  occ. eigenvalues --  -10.11188 -10.10595 -10.10417 -10.09074 -10.08926
  Beta  occ. eigenvalues --  -10.08814 -10.08267 -10.08126 -10.07681 -10.07523
  Beta  occ. eigenvalues --  -10.06959 -10.06683 -10.06627 -10.06192 -10.05998
  Beta  occ. eigenvalues --   -0.92099  -0.85876  -0.81393  -0.79387  -0.76369
  Beta  occ. eigenvalues --   -0.73321  -0.69458  -0.68710  -0.64058  -0.62732
  Beta  occ. eigenvalues --   -0.61389  -0.59138  -0.58587  -0.52931  -0.51435
  Beta  occ. eigenvalues --   -0.49104  -0.48230  -0.46581  -0.44351  -0.43313
  Beta  occ. eigenvalues --   -0.42158  -0.41017  -0.39591  -0.38163  -0.35835
  Beta  occ. eigenvalues --   -0.34918  -0.34105  -0.33373  -0.33190  -0.32905
  Beta  occ. eigenvalues --   -0.32554  -0.31759  -0.31565  -0.31396  -0.30831
  Beta  occ. eigenvalues --   -0.30811  -0.30172  -0.28979  -0.28015  -0.26985
  Beta  occ. eigenvalues --   -0.25806  -0.25285  -0.24679  -0.24394  -0.21619
  Beta  occ. eigenvalues --   -0.20531  -0.16966  -0.15168  -0.14928  -0.14388
  Beta  occ. eigenvalues --   -0.12829  -0.09637
  Beta virt. eigenvalues --    0.05705   0.06380   0.06618   0.07080   0.07164
  Beta virt. eigenvalues --    0.07668   0.07887   0.08212   0.08985   0.09261
  Beta virt. eigenvalues --    0.09519   0.09905   0.10156   0.10602   0.11050

 Mulliken charges and spin densities:
               1          2
     1  C    1.160048  -1.773291
     2  C    0.122137   0.346195
     3  C   -0.640807  -0.081286
     4  C    0.163379   0.415009
     5  C   -0.363676   0.195861
     6  C   -0.154595   0.527333
     7  C   -0.375328  -0.083949
     8  C    0.335741  -0.857878
     9  N    0.057247  -0.027290
    10  C   -0.770833   0.572976
    11  C   -0.257030   0.270507
    12  C   -0.744792   0.306184
    13  C    1.145053  -0.178327
    14  C    0.199665  -0.557666
    15  C   -0.231926  -0.364678
    16  C    0.131101  -0.267439
    17  O   -0.384505   0.041473
    18  N   -0.315867  -0.034827
    19  N   -0.465003   0.054564
    20  C   -0.030297  -0.541513
    21  H    0.064196   0.094985
    22  H   -0.134206   0.276724
    23  H   -0.133952   0.278210
    24  H   -0.132367   0.273517
    25  H   -0.127523   0.278379
    26  H   -0.000623   0.179561
    27  H   -0.086322   0.259071
    28  H    0.048501   0.080070
    29  H    0.292117  -0.032946
    30  H    0.127256   0.038597
    31  H    0.039414   0.094132
    32  H    0.099036   0.065251
    33  H    0.000733   0.224275
    34  H    0.217691   0.073358
    35  H    0.076743   0.189057
    36  H    0.044792   0.203024
    37  H   -0.072735   0.212248
    38  H   -0.059285   0.227679
    39  H    0.156819   0.022850
 Sum of Mulliken charges =  -1.00000   1.00000

 Dipole moment (field-independent basis, Debye):
    X=             -2.7252    Y=              0.3832    Z=              0.5129  Tot=              2.7994
 Quadrupole moment (field-independent basis, Debye-Ang):
   XX=           -228.2008   YY=           -152.0536   ZZ=           -147.1461
   XY=             -7.6121   XZ=             -0.1462   YZ=              0.9322

 Summary of Natural Population Analysis:

                                       Natural Population
                Natural  -----------------------------------------------
    Atom  No    Charge         Core      Valence    Rydberg      Total
 -----------------------------------------------------------------------
      C    1   -0.29039      0.99964     2.28572    0.00503     3.29039
      C    2   -0.01471      0.99952     2.00668    0.00851     3.01471
      C    3   -0.10252      0.99947     2.09476    0.00829     3.10252
      C    4   -0.01703      0.99947     2.00758    0.00997     3.01703
      C    5    0.07482      0.99938     1.91418    0.01162     2.92518
      C    6   -0.01131      0.99948     2.00330    0.00853     3.01131
      C    7   -0.10025      0.99947     2.09261    0.00817     3.10025
      C    8   -0.29597      0.99963     2.29151    0.00483     3.29597
      N    9   -0.32022      0.99966     2.80860    0.01196     3.82022
      C   10    0.09763      0.99944     1.89183    0.01110     2.90237
      C   11    0.06046      0.99945     1.92949    0.01059     2.93954
      C   12   -0.08601      0.99949     2.07765    0.00886     3.08601
      C   13   -0.06785      0.99947     2.05841    0.00997     3.06785
      C   14   -0.08986      0.99954     2.08084    0.00948     3.08986
      C   15   -0.13261      0.99953     2.12410    0.00898     3.13261
      C   16    0.34451      0.99965     1.63225    0.02359     2.65549
      O   17   -0.31802      0.99988     3.31271    0.00543     4.31802
      N   18   -0.40976      0.99971     2.90223    0.00782     3.90976
      N   19   -0.41048      0.99973     2.90066    0.01010     3.91048
      C   20   -0.29614      0.99964     2.29157    0.00493     3.29614
      H   21    0.10143      0.00000     0.39724    0.00133     0.39857
      H   22    0.10201      0.00000     0.39667    0.00132     0.39799
      H   23    0.10201      0.00000     0.39674    0.00124     0.39799
      H   24    0.09649      0.00000     0.40252    0.00099     0.40351
      H   25    0.09622      0.00000     0.40250    0.00127     0.40378
      H   26    0.11151      0.00000     0.38707    0.00142     0.38849
      H   27    0.10878      0.00000     0.38987    0.00135     0.39122
      H   28    0.09898      0.00000     0.40014    0.00088     0.40102
      H   29    0.19403      0.00000     0.30282    0.00315     0.30597
      H   30    0.10861      0.00000     0.39031    0.00108     0.39139
      H   31    0.09817      0.00000     0.40078    0.00105     0.40183
      H   32    0.10607      0.00000     0.39243    0.00149     0.39393
      H   33    0.19054      0.00000     0.30703    0.00243     0.30946
      H   34    0.18884      0.00000     0.30923    0.00193     0.31116
      H   35    0.18374      0.00000     0.31496    0.00130     0.31626
      H   36    0.18446      0.00000     0.31358    0.00196     0.31554
      H   37    0.10296      0.00000     0.39623    0.00081     0.39704
      H   38    0.10234      0.00000     0.39623    0.00143     0.39766
      H   39    0.10851      0.00000     0.39048    0.00101     0.39149
 =======================================================================
   * Total *    0.00000     19.99125    51.79354    0.21521    72.00000

 Normal termination of Gaussian 16 at Mon Dec 14 14:37:29 2020.
