 Gaussian 16, Revision A.03,

 -----------------------------------------------------------
 # opt freq B3LYP/6-31G(d) empiricaldispersion=gd3bj scf=xqc
 -----------------------------------------------------------

 ------------------------------
 CID_87434350_JID_7215_neutraal
 ------------------------------
 Symbolic Z-matrix:
 Charge =  0 Multiplicity = 1

 SCF Done:  E(RB3LYP) =  -774.886703532     A.U. after   14 cycles
 SCF Done:  E(RB3LYP) =  -774.889521732     A.U. after   12 cycles
 SCF Done:  E(RB3LYP) =  -774.889482819     A.U. after   13 cycles
 SCF Done:  E(RB3LYP) =  -774.890894631     A.U. after   12 cycles
 SCF Done:  E(RB3LYP) =  -774.890599404     A.U. after   12 cycles
 SCF Done:  E(RB3LYP) =  -774.891125700     A.U. after   12 cycles
 SCF Done:  E(RB3LYP) =  -774.891178652     A.U. after   11 cycles
 SCF Done:  E(RB3LYP) =  -774.891193672     A.U. after   10 cycles
 SCF Done:  E(RB3LYP) =  -774.891195039     A.U. after    8 cycles
 SCF Done:  E(RB3LYP) =  -774.891195560     A.U. after    7 cycles
 SCF Done:  E(RB3LYP) =  -774.891195510     A.U. after    7 cycles
 SCF Done:  E(RB3LYP) =  -774.891195586     A.U. after    6 cycles
 Optimization completed.
    -- Stationary point found.
 Normal termination of Gaussian 16 at Fri Dec 11 11:56:58 2020.

 --------------------------------------------------------------------
 #N Geom=AllCheck Guess=TCheck SCRF=Check GenChk RB3LYP/6-31G(d) Freq
 --------------------------------------------------------------------

 Structure from the checkpoint file:  "JID_7215.chk"
 ------------------------------
 CID_87434350_JID_7215_neutraal
 ------------------------------
 Charge =  0 Multiplicity = 1

 SCF Done:  E(RB3LYP) =  -774.891195586     A.U. after    1 cycles

  Exact polarizability: 180.673   1.203 150.756  17.112   3.854 135.316
 Approx polarizability: 217.036   7.632 222.623  32.110  20.620 211.190

                      1                      2                      3
                      A                      A                      A
 Frequencies --     21.0282                31.2888                34.0387
 Red. masses --      4.0916                 3.1080                 3.3959
 Frc consts  --      0.0011                 0.0018                 0.0023
 IR Inten    --      0.8432                 0.3100                 0.0466

                      4                      5                      6
                      A                      A                      A
 Frequencies --     45.3310                53.6926                65.8472
 Red. masses --      3.6844                 3.8806                 3.5415
 Frc consts  --      0.0045                 0.0066                 0.0090
 IR Inten    --      0.2900                 0.1644                 0.4995

                      7                      8                      9
                      A                      A                      A
 Frequencies --     74.6999                86.0363               104.2490
 Red. masses --      3.9672                 4.9234                 4.6795
 Frc consts  --      0.0130                 0.0215                 0.0300
 IR Inten    --      0.5520                 2.5493                 0.7106

                     10                     11                     12
                      A                      A                      A
 Frequencies --    146.2659               170.2853               205.1731
 Red. masses --      3.0968                 1.0431                 2.8700
 Frc consts  --      0.0390                 0.0178                 0.0712
 IR Inten    --      0.1832                 0.2863                 2.7135

                     13                     14                     15
                      A                      A                      A
 Frequencies --    224.4901               228.1553               244.6126
 Red. masses --      2.0572                 1.4579                 1.7288
 Frc consts  --      0.0611                 0.0447                 0.0609
 IR Inten    --      1.2274                 0.5983                 1.9961

                     16                     17                     18
                      A                      A                      A
 Frequencies --    261.0511               298.0145               312.9529
 Red. masses --      1.6265                 2.4260                 2.2503
 Frc consts  --      0.0653                 0.1269                 0.1299
 IR Inten    --      1.9616                 2.2844                 1.4947

                     19                     20                     21
                      A                      A                      A
 Frequencies --    338.7420               346.7519               364.2220
 Red. masses --      2.1023                 2.4205                 2.8356
 Frc consts  --      0.1421                 0.1715                 0.2216
 IR Inten    --     22.5720                 2.8087                10.6468

                     22                     23                     24
                      A                      A                      A
 Frequencies --    380.1358               384.8623               391.5353
 Red. masses --      2.0280                 2.5146                 1.6760
 Frc consts  --      0.1727                 0.2194                 0.1514
 IR Inten    --      4.2471                13.0998                56.7281

                     25                     26                     27
                      A                      A                      A
 Frequencies --    418.0059               432.2064               434.6294
 Red. masses --      1.9047                 2.2352                 2.1714
 Frc consts  --      0.1961                 0.2460                 0.2417
 IR Inten    --      4.9189                24.2221                 5.3997

                     28                     29                     30
                      A                      A                      A
 Frequencies --    490.9816               501.8959               567.6341
 Red. masses --      3.3391                 2.3551                 2.7593
 Frc consts  --      0.4743                 0.3495                 0.5238
 IR Inten    --      9.1916                 1.0277                 0.4658

                     31                     32                     33
                      A                      A                      A
 Frequencies --    606.4398               644.7414               664.3286
 Red. masses --      4.1012                 1.5863                 2.2319
 Frc consts  --      0.8887                 0.3885                 0.5803
 IR Inten    --      3.0968                 5.7205                 8.1590

                     34                     35                     36
                      A                      A                      A
 Frequencies --    716.7539               771.8377               804.2517
 Red. masses --      1.4334                 1.9216                 2.7803
 Frc consts  --      0.4339                 0.6745                 1.0596
 IR Inten    --     23.8467                 4.0440                 0.5114

                     37                     38                     39
                      A                      A                      A
 Frequencies --    825.9209               832.2676               836.6524
 Red. masses --      2.4823                 2.4847                 3.3364
 Frc consts  --      0.9977                 1.0140                 1.3760
 IR Inten    --     11.7406                11.4066                 0.2331

                     40                     41                     42
                      A                      A                      A
 Frequencies --    883.1207               905.3025               937.0950
 Red. masses --      1.9143                 2.0738                 2.2526
 Frc consts  --      0.8796                 1.0014                 1.1655
 IR Inten    --      3.7027                 9.9824                 5.3433

                     43                     44                     45
                      A                      A                      A
 Frequencies --    941.0277               958.2328               961.9935
 Red. masses --      1.1959                 1.8813                 1.9893
 Frc consts  --      0.6239                 1.0178                 1.0847
 IR Inten    --      0.8430                 1.0643                 5.8300

                     46                     47                     48
                      A                      A                      A
 Frequencies --    972.0169               978.4080               988.8567
 Red. masses --      1.3385                 1.4896                 1.8143
 Frc consts  --      0.7451                 0.8401                 1.0453
 IR Inten    --     32.3500                 1.5336                 3.9895

                     49                     50                     51
                      A                      A                      A
 Frequencies --   1005.1806              1018.1947              1038.2740
 Red. masses --      1.9575                 1.9234                 1.4875
 Frc consts  --      1.1653                 1.1749                 0.9447
 IR Inten    --      7.5207                26.2329                 5.3822

                     52                     53                     54
                      A                      A                      A
 Frequencies --   1052.4464              1072.3464              1087.2245
 Red. masses --      1.7954                 1.8918                 1.4636
 Frc consts  --      1.1717                 1.2818                 1.0193
 IR Inten    --     27.9242                12.4628                 0.5836

                     55                     56                     57
                      A                      A                      A
 Frequencies --   1093.1022              1117.8787              1119.4496
 Red. masses --      2.0488                 1.5372                 2.4906
 Frc consts  --      1.4423                 1.1318                 1.8389
 IR Inten    --     41.3459                20.6077                 1.2371

                     58                     59                     60
                      A                      A                      A
 Frequencies --   1160.5663              1166.2981              1192.5171
 Red. masses --      1.7276                 2.3047                 2.8366
 Frc consts  --      1.3710                 1.8470                 2.3767
 IR Inten    --      8.7362                33.1102               277.9401

                     61                     62                     63
                      A                      A                      A
 Frequencies --   1204.3026              1213.8900              1223.2841
 Red. masses --      1.6834                 1.6009                 1.4454
 Frc consts  --      1.4385                 1.3899                 1.2743
 IR Inten    --     21.8409                29.3751                33.5089

                     64                     65                     66
                      A                      A                      A
 Frequencies --   1259.0759              1282.4757              1310.7431
 Red. masses --      1.3155                 1.4330                 1.2110
 Frc consts  --      1.2287                 1.3886                 1.2258
 IR Inten    --     10.6309                13.8287                12.5848

                     67                     68                     69
                      A                      A                      A
 Frequencies --   1317.6525              1340.9509              1353.0400
 Red. masses --      1.2953                 1.2186                 2.8745
 Frc consts  --      1.3251                 1.2910                 3.1006
 IR Inten    --      2.5853                 1.6128               122.9713

                     70                     71                     72
                      A                      A                      A
 Frequencies --   1356.1975              1372.0446              1384.3206
 Red. masses --      1.2385                 1.3207                 1.4024
 Frc consts  --      1.3421                 1.4648                 1.5834
 IR Inten    --      5.7137                 4.3387                 1.0165

                     73                     74                     75
                      A                      A                      A
 Frequencies --   1393.0144              1404.6670              1411.9686
 Red. masses --      1.5038                 1.3479                 1.5061
 Frc consts  --      1.7193                 1.5669                 1.7691
 IR Inten    --      0.8407                 2.0826                 5.2112

                     76                     77                     78
                      A                      A                      A
 Frequencies --   1420.4673              1426.2557              1430.1761
 Red. masses --      1.4014                 1.3972                 1.3838
 Frc consts  --      1.6660                 1.6746                 1.6677
 IR Inten    --      9.4654                 0.9938                 6.5498

                     79                     80                     81
                      A                      A                      A
 Frequencies --   1430.4076              1442.0951              1448.0597
 Red. masses --      1.3299                 1.2848                 1.2614
 Frc consts  --      1.6032                 1.5743                 1.5584
 IR Inten    --      1.6451                 9.6124                46.2942

                     82                     83                     84
                      A                      A                      A
 Frequencies --   1449.8299              1463.0762              1502.9551
 Red. masses --      1.2425                 1.2455                 1.0442
 Frc consts  --      1.5388                 1.5708                 1.3897
 IR Inten    --      6.6892                12.5589                 6.8952

                     85                     86                     87
                      A                      A                      A
 Frequencies --   1508.1153              1512.9382              1515.9790
 Red. masses --      1.0863                 1.0888                 1.0608
 Frc consts  --      1.4557                 1.4684                 1.4364
 IR Inten    --      2.3069                 8.4418                 0.8177

                     88                     89                     90
                      A                      A                      A
 Frequencies --   1519.1524              1523.1661              1526.1607
 Red. masses --      1.0565                 1.0653                 1.0718
 Frc consts  --      1.4365                 1.4561                 1.4709
 IR Inten    --     19.8126                 5.3075                 2.5498

                     91                     92                     93
                      A                      A                      A
 Frequencies --   1529.9315              1533.2641              1536.4982
 Red. masses --      1.0786                 1.0616                 1.0631
 Frc consts  --      1.4875                 1.4705                 1.4787
 IR Inten    --      7.3936                15.8019                 3.3352

                     94                     95                     96
                      A                      A                      A
 Frequencies --   1545.1388              1546.7304              1720.1211
 Red. masses --      1.0607                 1.0864                 5.1447
 Frc consts  --      1.4920                 1.5313                 8.9688
 IR Inten    --      0.6952                 3.4883                17.2391

                     97                     98                     99
                      A                      A                      A
 Frequencies --   1793.8949              3017.2883              3025.2902
 Red. masses --     11.1490                 1.0724                 1.0699
 Frc consts  --     21.1389                 5.7521                 5.7696
 IR Inten    --    190.7126                 7.5475                20.8934

                    100                    101                    102
                      A                      A                      A
 Frequencies --   3030.7501              3035.4265              3035.6708
 Red. masses --      1.0667                 1.0515                 1.0497
 Frc consts  --      5.7729                 5.7082                 5.6992
 IR Inten    --     26.2164                11.1313                34.4055

                    103                    104                    105
                      A                      A                      A
 Frequencies --   3040.6240              3043.5806              3052.5962
 Red. masses --      1.0489                 1.0545                 1.0690
 Frc consts  --      5.7136                 5.7554                 5.8689
 IR Inten    --     50.1357                16.3289                11.5254

                    106                    107                    108
                      A                      A                      A
 Frequencies --   3054.6485              3060.0834              3070.2233
 Red. masses --      1.1016                 1.0357                 1.0916
 Frc consts  --      6.0559                 5.7143                 6.0625
 IR Inten    --     20.2592                13.5056                44.4660

                    109                    110                    111
                      A                      A                      A
 Frequencies --   3077.7137              3078.1944              3089.1596
 Red. masses --      1.0888                 1.0956                 1.0937
 Frc consts  --      6.0764                 6.1164                 6.1496
 IR Inten    --     67.0975                72.5381                15.7933

                    112                    113                    114
                      A                      A                      A
 Frequencies --   3098.6253              3104.7519              3105.0110
 Red. masses --      1.1011                 1.0993                 1.0784
 Frc consts  --      6.2291                 6.2434                 6.1258
 IR Inten    --      9.8125                94.4441                 9.9927

                    115                    116                    117
                      A                      A                      A
 Frequencies --   3105.7643              3109.0171              3116.6906
 Red. masses --      1.0819                 1.1019                 1.1003
 Frc consts  --      6.1484                 6.2754                 6.2970
 IR Inten    --     41.7769                55.7758                11.6341

                    118                    119                    120
                      A                      A                      A
 Frequencies --   3117.2152              3144.0916              3168.8813
 Red. masses --      1.1009                 1.1038                 1.1072
 Frc consts  --      6.3028                 6.4291                 6.5507
 IR Inten    --     42.0521                16.1910                 9.1481

                    121                    122                    123
                      A                      A                      A
 Frequencies --   3179.5660              3270.5589              3725.0363
 Red. masses --      1.0617                 1.1147                 1.0654
 Frc consts  --      6.3242                 7.0251                 8.7099
 IR Inten    --      8.3673                 6.2062                14.2929

 - Thermochemistry -
 -------------------
 Temperature   298.150 Kelvin.  Pressure   1.00000 Atm.
 Atom     1 has atomic number  6 and mass  12.00000

 Molecular mass:   242.18819 amu.
 Principal axes and moments of inertia in atomic units:
                           1         2         3
     Eigenvalues --  2309.60742********************
           X            0.99999   0.00056   0.00340
           Y           -0.00045   0.99949  -0.03196
           Z           -0.00342   0.03196   0.99948
 This molecule is an asymmetric top.
 Rotational symmetry number  1.
 Warning -- assumption of classical behavior for rotation
           may cause significant error
 Rotational temperatures (Kelvin)      0.03750     0.00848     0.00771
 Rotational constants (GHZ):           0.78141     0.17660     0.16071
 Zero-point vibrational energy    1017543.8 (Joules/Mol)
                                  243.19881 (Kcal/Mol)
 Warning -- explicit consideration of  31 degrees of freedom as
           vibrations may cause significant error
 Vibrational temperatures:     30.25    45.02    48.97    65.22    77.25
          (Kelvin)             94.74   107.48   123.79   149.99   210.44
                              245.00   295.20   322.99   328.26   351.94
                              375.59   428.78   450.27   487.37   498.90
                              524.03   546.93   553.73   563.33   601.42
                              621.85   625.33   706.41   722.12   816.70
                              872.53   927.64   955.82  1031.25  1110.50
                             1157.14  1188.32  1197.45  1203.76  1270.61
                             1302.53  1348.27  1353.93  1378.68  1384.09
                             1398.52  1407.71  1422.74  1446.23  1464.96
                             1493.84  1514.24  1542.87  1564.27  1572.73
                             1608.38  1610.64  1669.80  1678.04  1715.77
                             1732.72  1746.52  1760.03  1811.53  1845.20
                             1885.87  1895.81  1929.33  1946.72  1951.27
                             1974.07  1991.73  2004.24  2021.00  2031.51
                             2043.74  2052.06  2057.70  2058.04  2074.85
                             2083.43  2085.98  2105.04  2162.42  2169.84
                             2176.78  2181.16  2185.72  2191.50  2195.80
                             2201.23  2206.03  2210.68  2223.11  2225.40
                             2474.87  2581.01  4341.20  4352.72  4360.57
                             4367.30  4367.65  4374.78  4379.03  4392.01
                             4394.96  4402.78  4417.37  4428.14  4428.84
                             4444.61  4458.23  4467.05  4467.42  4468.50
                             4473.18  4484.22  4484.98  4523.65  4559.31
                             4574.69  4705.60  5359.50

 Zero-point correction=                           0.387562 (Hartree/Particle)
 Thermal correction to Energy=                    0.407854
 Thermal correction to Enthalpy=                  0.408798
 Thermal correction to Gibbs Free Energy=         0.336373
 Sum of electronic and zero-point Energies=           -774.503634
 Sum of electronic and thermal Energies=              -774.483342
 Sum of electronic and thermal Enthalpies=            -774.482397
 Sum of electronic and thermal Free Energies=         -774.554823

                     E (Thermal)             CV                S
                      KCal/Mol        Cal/Mol-Kelvin    Cal/Mol-Kelvin
 Total                  255.932             74.814            152.432
 Electronic               0.000              0.000              0.000
 Translational            0.889              2.981             42.355
 Rotational               0.889              2.981             33.938
 Vibrational            254.155             68.853             76.139
 Vibration     1          0.593              1.985              6.535
 Vibration     2          0.594              1.983              5.746
 Vibration     3          0.594              1.983              5.579
 Vibration     4          0.595              1.979              5.011
 Vibration     5          0.596              1.976              4.677
 Vibration     6          0.597              1.971              4.274
 Vibration     7          0.599              1.966              4.026
 Vibration     8          0.601              1.959              3.748
 Vibration     9          0.605              1.946              3.373
 Vibration    10          0.617              1.907              2.720
 Vibration    11          0.625              1.879              2.432
 Vibration    12          0.640              1.833              2.086
 Vibration    13          0.649              1.804              1.923
 Vibration    14          0.651              1.798              1.893
 Vibration    15          0.660              1.772              1.769
 Vibration    16          0.669              1.744              1.655
 Vibration    17          0.691              1.677              1.428
 Vibration    18          0.701              1.649              1.347
 Vibration    19          0.719              1.598              1.218
 Vibration    20          0.725              1.582              1.181
 Vibration    21          0.738              1.546              1.104
 Vibration    22          0.750              1.513              1.039
 Vibration    23          0.754              1.502              1.020
 Vibration    24          0.759              1.488              0.994
 Vibration    25          0.781              1.431              0.899
 Vibration    26          0.793              1.400              0.851
 Vibration    27          0.795              1.395              0.844
 Vibration    28          0.847              1.270              0.681
 Vibration    29          0.857              1.246              0.653
 Vibration    30          0.924              1.101              0.509
 Vibration    31          0.965              1.018              0.439

                           ! Non-Optimized Parameters !
 Normal termination of Gaussian 16 at Fri Dec 11 12:15:05 2020.

 ----------------------------------------------------------------------
 # B3LYP/6-311++G(d,p) empiricaldispersion=gd3bj scf=xqc pop=npa geom=c
 heck
 ----------------------------------------------------------------------

 --------------------------------------
 CID_87434350_JID_7215_Energie_neutraal
 --------------------------------------
 Structure from the checkpoint file:  "JID_7215.chk"
 Charge =  0 Multiplicity = 1

 SCF Done:  E(RB3LYP) =  -775.123553936     A.U. after   14 cycles
 Normal termination of Gaussian 16 at Fri Dec 11 12:23:48 2020.

 ----------------------------------------------------------------------
 # B3LYP/6-311++G(d,p) empiricaldispersion=gd3bj scf=xqc pop=npa geom=c
 heck
 ----------------------------------------------------------------------

 ------------------------------------
 CID_87434350_JID_7215_Energie_kation
 ------------------------------------
 Structure from the checkpoint file:  "JID_7215.chk"
 Charge =  1 Multiplicity = 2

 SCF Done:  E(UB3LYP) =  -774.784587613     A.U. after   29 cycles
 Normal termination of Gaussian 16 at Fri Dec 11 12:51:31 2020.
 Gaussian 16:  ES64L-G16RevA.03 25-Dec-2016

 ----------------------------------------------------------------------
 # B3LYP/6-311++G(d,p) empiricaldispersion=gd3bj scf=xqc pop=npa geom=c
 heck
 ----------------------------------------------------------------------

 -----------------------------------
 CID_87434350_JID_7215_Energie_anion
 -----------------------------------
 Structure from the checkpoint file:  "JID_7215.chk"
 Charge = -1 Multiplicity = 2

                         Standard orientation:
 ---------------------------------------------------------------------
 Center     Atomic      Atomic             Coordinates (Angstroms)
 Number     Number       Type             X           Y           Z
 ---------------------------------------------------------------------
      1          6           0        5.348760    0.648270    0.927557
      2          6           0        4.333727    0.944370   -0.183413
      3          6           0        5.008184    1.674328   -1.351559
      4          6           0        3.635491   -0.331150   -0.688086
      5          6           0        2.866388   -1.137148    0.370072
      6          6           0        1.781805   -0.349620    1.122204
      7          6           0        0.713686    0.304688    0.230981
      8          6           0       -0.026240   -0.658248   -0.710821
      9          6           0       -0.710637   -1.855850   -0.039793
     10          6           0       -1.788607   -1.471478    0.971116
     11          8           0       -2.867893   -0.809417    0.270969
     12          6           0       -3.069085    0.508188    0.514514
     13          8           0       -2.423655    1.156801    1.315476
     14          6           0       -4.172264    1.093949   -0.302304
     15          6           0       -4.895720    0.338993   -1.137703
     16          6           0       -4.391057    2.567967   -0.096482
     17          8           0       -1.256588   -2.738935   -1.018002
     18          1           0        6.115542   -0.054014    0.574907
     19          1           0        4.874193    0.207890    1.810732
     20          1           0        5.858550    1.564498    1.247202
     21          1           0        3.567178    1.615934    0.229261
     22          1           0        5.792748    1.050600   -1.799308
     23          1           0        4.285813    1.917059   -2.139926
     24          1           0        5.474596    2.609854   -1.021419
     25          1           0        2.951447   -0.054168   -1.501658
     26          1           0        4.393003   -0.985370   -1.143851
     27          1           0        2.412799   -2.006966   -0.123188
     28          1           0        3.571383   -1.548679    1.103221
     29          1           0        1.299598   -1.022589    1.844317
     30          1           0        2.252434    0.435986    1.726772
     31          1           0       -0.012181    0.823750    0.866041
     32          1           0        1.182932    1.082681   -0.384442
     33          1           0       -0.785367   -0.096592   -1.273135
     34          1           0        0.662070   -1.069769   -1.457565
     35          1           0        0.034870   -2.453173    0.496795
     36          1           0       -2.227179   -2.373717    1.403650
     37          1           0       -1.414208   -0.817768    1.759694
     38          1           0       -5.699734    0.770904   -1.727067
     39          1           0       -4.711654   -0.723047   -1.250325
     40          1           0       -4.620650    2.783593    0.952599
     41          1           0       -3.484323    3.133968   -0.336828
     42          1           0       -5.211389    2.931152   -0.721205
     43          1           0       -1.983961   -2.253176   -1.440516
 ---------------------------------------------------------------------

 SCF Done:  E(UB3LYP) =  -775.125430133     A.U. after   33 cycles
 SCF Done:  E(UB3LYP) =  -775.125430133     a.u. after    1 cycles

 The electronic state is 2-A.
 Alpha  occ. eigenvalues --  -19.03454 -19.02263 -18.96032 -10.14213 -10.12325
 Alpha  occ. eigenvalues --  -10.11441 -10.08578 -10.07440 -10.07389 -10.07220
 Alpha  occ. eigenvalues --  -10.07138 -10.07078 -10.06549 -10.06261 -10.04602
 Alpha  occ. eigenvalues --  -10.04114 -10.02237  -0.97148  -0.92573  -0.87937
 Alpha  occ. eigenvalues --   -0.73278  -0.70444  -0.67760  -0.66178  -0.62811
 Alpha  occ. eigenvalues --   -0.59909  -0.59281  -0.56442  -0.54903  -0.51839
 Alpha  occ. eigenvalues --   -0.48496  -0.46846  -0.44850  -0.42981  -0.40823
 Alpha  occ. eigenvalues --   -0.38712  -0.38489  -0.37225  -0.35647  -0.34993
 Alpha  occ. eigenvalues --   -0.34426  -0.34310  -0.32847  -0.32311  -0.31526
 Alpha  occ. eigenvalues --   -0.30928  -0.30093  -0.29841  -0.29247  -0.28665
 Alpha  occ. eigenvalues --   -0.28295  -0.27421  -0.26548  -0.26118  -0.26002
 Alpha  occ. eigenvalues --   -0.24285  -0.24249  -0.23843  -0.23039  -0.22946
 Alpha  occ. eigenvalues --   -0.22327  -0.21635  -0.21367  -0.18895  -0.17158
 Alpha  occ. eigenvalues --   -0.14278  -0.13921   0.04199
 Alpha virt. eigenvalues --    0.05345   0.06960   0.07420   0.07967   0.08477
 Alpha virt. eigenvalues --    0.09065   0.09259   0.09887   0.10152   0.10516
 Alpha virt. eigenvalues --    0.10739   0.11119   0.11873   0.12155   0.12752

  Beta  occ. eigenvalues --  -19.03416 -19.02257 -18.95753 -10.13945 -10.12319
  Beta  occ. eigenvalues --  -10.11444 -10.08574 -10.07434 -10.07383 -10.07200
  Beta  occ. eigenvalues --  -10.07135 -10.07053 -10.06547 -10.06257 -10.04612
  Beta  occ. eigenvalues --  -10.04006 -10.01894  -0.96918  -0.92532  -0.87536
  Beta  occ. eigenvalues --   -0.73265  -0.70422  -0.67442  -0.66045  -0.62769
  Beta  occ. eigenvalues --   -0.59866  -0.59246  -0.56208  -0.54736  -0.51680
  Beta  occ. eigenvalues --   -0.48286  -0.46492  -0.44805  -0.42808  -0.40752
  Beta  occ. eigenvalues --   -0.38677  -0.38465  -0.37092  -0.35562  -0.34952
  Beta  occ. eigenvalues --   -0.34372  -0.34005  -0.32697  -0.31935  -0.31499
  Beta  occ. eigenvalues --   -0.30664  -0.30057  -0.29696  -0.29093  -0.28605
  Beta  occ. eigenvalues --   -0.28232  -0.27121  -0.26499  -0.26093  -0.25832
  Beta  occ. eigenvalues --   -0.24237  -0.24209  -0.23674  -0.22963  -0.22800
  Beta  occ. eigenvalues --   -0.22278  -0.21618  -0.21323  -0.18453  -0.16695
  Beta  occ. eigenvalues --   -0.14000  -0.12168
  Beta virt. eigenvalues --    0.05852   0.07092   0.07590   0.07950   0.08466
  Beta virt. eigenvalues --    0.09006   0.09163   0.09633   0.09955   0.10187
  Beta virt. eigenvalues --    0.10508   0.10770   0.11072   0.11977   0.12127

 Mulliken charges and spin densities:
               1          2
     1  C    0.301608  -1.009079
     2  C   -0.632107   1.016233
     3  C   -0.019139  -0.605964
     4  C    0.038027  -0.458936
     5  C   -0.007831  -0.220115
     6  C   -0.285943   0.078037
     7  C   -0.330175  -0.164820
     8  C   -0.021143   0.151027
     9  C   -0.399308  -0.207473
    10  C   -0.245077   0.018619
    11  O   -0.028912   0.002499
    12  C   -0.366558   0.137007
    13  O   -0.320818   0.098503
    14  C    0.842317   0.004001
    15  C   -0.858776   0.386094
    16  C   -0.704750   0.029278
    17  O   -0.177755   0.007702
    18  H   -0.071185   0.213923
    19  H   -0.015078   0.140540
    20  H   -0.176918   0.314491
    21  H    0.181749  -0.036920
    22  H   -0.037988   0.166872
    23  H   -0.010131   0.139484
    24  H   -0.105159   0.243183
    25  H    0.147483  -0.012145
    26  H    0.013308   0.137299
    27  H    0.160353   0.002911
    28  H    0.086081   0.073311
    29  H    0.136339   0.031486
    30  H    0.062734   0.103492
    31  H    0.214417   0.006171
    32  H    0.079213   0.070356
    33  H    0.133647   0.022602
    34  H    0.126966   0.037444
    35  H    0.097839   0.068616
    36  H    0.169650   0.011558
    37  H    0.187741  -0.013286
    38  H    0.092315  -0.017373
    39  H    0.119326  -0.020597
    40  H    0.143871   0.005468
    41  H    0.129638   0.015614
    42  H    0.106894   0.001348
    43  H    0.243236   0.031539
 Sum of Mulliken charges =  -1.00000   1.00000

 Dipole moment (field-independent basis, Debye):
    X=              1.5723    Y=             -1.9806    Z=              0.3086  Tot=              2.5476
 Quadrupole moment (field-independent basis, Debye-Ang):
   XX=           -216.5674   YY=           -139.6263   ZZ=           -130.7204
   XY=             -3.9226   XZ=             -2.0059   YZ=             -5.6226

 Summary of Natural Population Analysis:

                                       Natural Population
                Natural  -----------------------------------------------
    Atom  No    Charge         Core      Valence    Rydberg      Total
 -----------------------------------------------------------------------
      C    1   -0.28719      0.99965     2.28129    0.00625     3.28719
      C    2   -0.12101      0.99962     2.11054    0.01086     3.12101
      C    3   -0.28066      0.99965     2.27620    0.00480     3.28066
      C    4   -0.18848      0.99961     2.18090    0.00797     3.18848
      C    5   -0.19243      0.99963     2.18501    0.00779     3.19243
      C    6   -0.19180      0.99963     2.18486    0.00731     3.19180
      C    7   -0.20194      0.99962     2.19447    0.00785     3.20194
      C    8   -0.20534      0.99961     2.19673    0.00900     3.20534
      C    9    0.05129      0.99955     1.93566    0.01350     2.94871
      C   10   -0.02966      0.99954     2.01894    0.01118     3.02966
      O   11   -0.29619      0.99986     3.28668    0.00964     4.29619
      C   12    0.42311      0.99961     1.55108    0.02620     2.57689
      O   13   -0.30190      0.99987     3.29708    0.00494     4.30190
      C   14   -0.05688      0.99949     2.04736    0.01003     3.05688
      C   15   -0.10463      0.99954     2.09633    0.00876     3.10463
      C   16   -0.29148      0.99964     2.28693    0.00491     3.29148
      O   17   -0.37506      0.99990     3.36838    0.00678     4.37506
      H   18    0.09569      0.00000     0.40335    0.00096     0.40431
      H   19    0.09946      0.00000     0.39963    0.00090     0.40054
      H   20    0.09928      0.00000     0.39981    0.00092     0.40072
      H   21    0.09332      0.00000     0.40462    0.00206     0.40668
      H   22    0.09516      0.00000     0.40381    0.00103     0.40484
      H   23    0.09832      0.00000     0.40078    0.00091     0.40168
      H   24    0.09837      0.00000     0.40070    0.00093     0.40163
      H   25    0.09718      0.00000     0.40162    0.00120     0.40282
      H   26    0.09533      0.00000     0.40368    0.00099     0.40467
      H   27    0.09704      0.00000     0.40176    0.00120     0.40296
      H   28    0.09566      0.00000     0.40321    0.00113     0.40434
      H   29    0.09439      0.00000     0.40440    0.00121     0.40561
      H   30    0.09675      0.00000     0.40214    0.00111     0.40325
      H   31    0.11666      0.00000     0.38197    0.00136     0.38334
      H   32    0.09509      0.00000     0.40379    0.00111     0.40491
      H   33    0.10437      0.00000     0.39435    0.00128     0.39563
      H   34    0.09836      0.00000     0.40024    0.00140     0.40164
      H   35    0.08678      0.00000     0.41181    0.00142     0.41322
      H   36    0.08926      0.00000     0.40953    0.00121     0.41074
      H   37    0.10410      0.00000     0.39446    0.00143     0.39590
      H   38    0.07950      0.00000     0.41964    0.00086     0.42050
      H   39    0.09249      0.00000     0.40669    0.00082     0.40751
      H   40    0.10204      0.00000     0.39691    0.00105     0.39796
      H   41    0.10212      0.00000     0.39684    0.00105     0.39788
      H   42    0.09183      0.00000     0.40733    0.00084     0.40817
      H   43    0.23170      0.00000     0.26547    0.00283     0.26830
 =======================================================================
   * Total *   -0.00000     16.99401    49.81700    0.18899    67.00000

 Normal termination of Gaussian 16 at Fri Dec 11 13:21:41 2020.
