 Gaussian 16, Revision A.03,

 -----------------------------------------------------------
 # opt freq B3LYP/6-31G(d) empiricaldispersion=gd3bj scf=xqc
 -----------------------------------------------------------

 ------------------------------
 CID_82237365_JID_2552_neutraal
 ------------------------------
 Symbolic Z-matrix:
 Charge =  0 Multiplicity = 1

 SCF Done:  E(RB3LYP) =  -537.290322816     A.U. after   14 cycles
 SCF Done:  E(RB3LYP) =  -537.297066439     A.U. after   12 cycles
 SCF Done:  E(RB3LYP) =  -537.298091054     A.U. after   11 cycles
 SCF Done:  E(RB3LYP) =  -537.298761808     A.U. after   12 cycles
 SCF Done:  E(RB3LYP) =  -537.299646414     A.U. after   12 cycles
 SCF Done:  E(RB3LYP) =  -537.299865104     A.U. after   14 cycles
 SCF Done:  E(RB3LYP) =  -537.300766190     A.U. after   12 cycles
 SCF Done:  E(RB3LYP) =  -537.301153885     A.U. after   11 cycles
 SCF Done:  E(RB3LYP) =  -537.301417548     A.U. after   11 cycles
 SCF Done:  E(RB3LYP) =  -537.301551323     A.U. after   11 cycles
 SCF Done:  E(RB3LYP) =  -537.302089173     A.U. after   10 cycles
 SCF Done:  E(RB3LYP) =  -537.302090278     A.U. after   10 cycles
 SCF Done:  E(RB3LYP) =  -537.302088761     A.U. after   10 cycles
 SCF Done:  E(RB3LYP) =  -537.302090644     A.U. after   10 cycles
 SCF Done:  E(RB3LYP) =  -537.302090756     A.U. after    7 cycles
 SCF Done:  E(RB3LYP) =  -537.302090754     A.U. after    7 cycles
 Optimization completed.
    -- Stationary point found.
 Normal termination of Gaussian 16 at Wed Dec  9 18:17:33 2020.

 --------------------------------------------------------------------
 #N Geom=AllCheck Guess=TCheck SCRF=Check GenChk RB3LYP/6-31G(d) Freq
 --------------------------------------------------------------------

 Structure from the checkpoint file:  "JID_2552.chk"
 ------------------------------
 CID_82237365_JID_2552_neutraal
 ------------------------------
 Charge =  0 Multiplicity = 1

 SCF Done:  E(RB3LYP) =  -537.302090754     A.U. after    1 cycles

  Exact polarizability: 128.016  -4.004 106.077  -5.046  -0.912  85.973
 Approx polarizability: 164.037  -3.248 148.531 -13.908  -4.550 134.218

                      1                      2                      3
                      A                      A                      A
 Frequencies --     26.9267                45.5546                59.3665
 Red. masses --      3.4782                 3.0933                 2.6029
 Frc consts  --      0.0015                 0.0038                 0.0054
 IR Inten    --      0.3581                 0.8396                 0.2223

                      4                      5                      6
                      A                      A                      A
 Frequencies --     79.9236                92.6454               154.3467
 Red. masses --      3.6573                 1.3437                 2.5991
 Frc consts  --      0.0138                 0.0068                 0.0365
 IR Inten    --      3.7663                 0.2002                 0.8879

                      7                      8                      9
                      A                      A                      A
 Frequencies --    214.3995               250.6236               259.5132
 Red. masses --      3.6294                 4.3724                 3.2181
 Frc consts  --      0.0983                 0.1618                 0.1277
 IR Inten    --      1.8304                 2.3940                 0.4147

                     10                     11                     12
                      A                      A                      A
 Frequencies --    301.9292               316.3559               335.6499
 Red. masses --      2.6916                 1.1727                 2.4412
 Frc consts  --      0.1446                 0.0691                 0.1620
 IR Inten    --      7.7371                68.0523                19.7605

                     13                     14                     15
                      A                      A                      A
 Frequencies --    405.6347               430.9271               458.8065
 Red. masses --      3.5113                 2.4491                 4.3022
 Frc consts  --      0.3404                 0.2680                 0.5336
 IR Inten    --      5.6473                 4.9639                12.4084

                     16                     17                     18
                      A                      A                      A
 Frequencies --    470.4403               491.5050               665.3225
 Red. masses --      3.3680                 2.1194                 3.4048
 Frc consts  --      0.4392                 0.3017                 0.8880
 IR Inten    --      2.1954                 7.1762                10.3623

                     19                     20                     21
                      A                      A                      A
 Frequencies --    752.4813               768.2157               781.1584
 Red. masses --      4.4582                 1.8891                 1.2985
 Frc consts  --      1.4873                 0.6568                 0.4669
 IR Inten    --      8.1278                 1.1796                 0.3276

                     22                     23                     24
                      A                      A                      A
 Frequencies --    808.1389               814.1775               841.6743
 Red. masses --      1.7906                 2.7862                 1.9626
 Frc consts  --      0.6890                 1.0882                 0.8192
 IR Inten    --      9.5452                 6.1827                16.5073

                     25                     26                     27
                      A                      A                      A
 Frequencies --    853.7030               900.1760               916.6438
 Red. masses --      1.6591                 1.8938                 1.5455
 Frc consts  --      0.7124                 0.9042                 0.7651
 IR Inten    --     23.9104                35.1902                12.1190

                     28                     29                     30
                      A                      A                      A
 Frequencies --    949.0933               972.2071               995.2035
 Red. masses --      2.6863                 2.0695                 1.8097
 Frc consts  --      1.4257                 1.1525                 1.0560
 IR Inten    --     53.4410                25.9283                52.3210

                     31                     32                     33
                      A                      A                      A
 Frequencies --   1014.3551              1038.4915              1062.1854
 Red. masses --      2.5353                 2.3910                 1.3035
 Frc consts  --      1.5369                 1.5193                 0.8665
 IR Inten    --      4.7199                24.1369                 4.7180

                     34                     35                     36
                      A                      A                      A
 Frequencies --   1067.8078              1087.0903              1113.0364
 Red. masses --      1.3388                 1.3673                 1.6988
 Frc consts  --      0.8994                 0.9520                 1.2400
 IR Inten    --     13.2351                 3.3784                39.2570

                     37                     38                     39
                      A                      A                      A
 Frequencies --   1118.9580              1133.6922              1146.8052
 Red. masses --      1.3851                 1.2198                 1.1333
 Frc consts  --      1.0218                 0.9237                 0.8781
 IR Inten    --      9.0753                 8.4045                 1.4482

                     40                     41                     42
                      A                      A                      A
 Frequencies --   1155.7609              1158.6444              1184.4515
 Red. masses --      1.4625                 1.5116                 1.7708
 Frc consts  --      1.1510                 1.1956                 1.4637
 IR Inten    --     40.9439                14.8896                68.2776

                     43                     44                     45
                      A                      A                      A
 Frequencies --   1208.6806              1238.3754              1265.4865
 Red. masses --      1.4055                 1.8272                 1.5134
 Frc consts  --      1.2098                 1.6510                 1.4279
 IR Inten    --      0.3022                 8.2787                17.2861

                     46                     47                     48
                      A                      A                      A
 Frequencies --   1273.9278              1301.6525              1315.1495
 Red. masses --      2.3133                 2.1601                 1.8082
 Frc consts  --      2.2119                 2.1563                 1.8426
 IR Inten    --     64.7887                15.9232                 6.8804

                     49                     50                     51
                      A                      A                      A
 Frequencies --   1375.7328              1394.3812              1438.7921
 Red. masses --      1.5135                 1.4139                 1.5654
 Frc consts  --      1.6877                 1.6197                 1.9092
 IR Inten    --     27.8046                 4.1101                10.3473

                     52                     53                     54
                      A                      A                      A
 Frequencies --   1445.9700              1456.4358              1488.2540
 Red. masses --      1.2819                 1.3192                 1.5253
 Frc consts  --      1.5792                 1.6487                 1.9906
 IR Inten    --     11.8455                69.8526               119.9682

                     55                     56                     57
                      A                      A                      A
 Frequencies --   1498.7655              1499.7069              1518.4037
 Red. masses --      1.3291                 1.2068                 1.1727
 Frc consts  --      1.7590                 1.5992                 1.5930
 IR Inten    --     33.1703                18.9717                23.4449

                     58                     59                     60
                      A                      A                      A
 Frequencies --   1525.3903              1540.7020              1551.2317
 Red. masses --      1.1098                 1.2931                 1.1621
 Frc consts  --      1.5214                 1.8085                 1.6475
 IR Inten    --      2.3909                 3.4807                33.4402

                     61                     62                     63
                      A                      A                      A
 Frequencies --   1682.2307              1728.8697              3041.3680
 Red. masses --      1.7133                 2.2421                 1.0461
 Frc consts  --      2.8567                 3.9485                 5.7012
 IR Inten    --    254.7895                60.8074                44.2280

                     64                     65                     66
                      A                      A                      A
 Frequencies --   3057.0452              3108.9563              3134.1108
 Red. masses --      1.0712                 1.0949                 1.0900
 Frc consts  --      5.8985                 6.2351                 6.3083
 IR Inten    --     41.0670                33.8189                 8.8666

                     67                     68                     69
                      A                      A                      A
 Frequencies --   3141.5491              3144.6450              3144.9444
 Red. masses --      1.0702                 1.0576                 1.0703
 Frc consts  --      6.2233                 6.1618                 6.2370
 IR Inten    --     15.3982                30.2651                17.2237

                     70                     71                     72
                      A                      A                      A
 Frequencies --   3156.4815              3161.2591              3187.9798
 Red. masses --      1.0588                 1.0877                 1.0985
 Frc consts  --      6.2152                 6.4046                 6.5780
 IR Inten    --     15.0779                14.4683                 3.5733

                     73                     74                     75
                      A                      A                      A
 Frequencies --   3220.8754              3223.9621              3238.0881
 Red. masses --      1.1180                 1.0919                 1.1159
 Frc consts  --      6.8333                 6.6869                 6.8935
 IR Inten    --      3.2936                14.2595                18.9410

                     76                     77                     78
                      A                      A                      A
 Frequencies --   3240.2287              3449.5242              3534.7091
 Red. masses --      1.1128                 1.0495                 1.0923
 Frc consts  --      6.8836                 7.3577                 8.0412
 IR Inten    --     13.1231                32.9864                14.5642

 - Thermochemistry -
 -------------------
 Temperature   298.150 Kelvin.  Pressure   1.00000 Atm.
 Atom     1 has atomic number  6 and mass  12.00000

 Molecular mass:   168.12626 amu.
 Principal axes and moments of inertia in atomic units:
                           1         2         3
     Eigenvalues --  1221.488972992.486783722.08923
           X            0.99996  -0.00852  -0.00162
           Y            0.00852   0.99996   0.00325
           Z            0.00159  -0.00326   0.99999
 This molecule is an asymmetric top.
 Rotational symmetry number  1.
 Warning -- assumption of classical behavior for rotation
           may cause significant error
 Rotational temperatures (Kelvin)      0.07091     0.02894     0.02327
 Rotational constants (GHZ):           1.47749     0.60309     0.48487
 Zero-point vibrational energy     649739.1 (Joules/Mol)
                                  155.29136 (Kcal/Mol)
 Warning -- explicit consideration of  17 degrees of freedom as
           vibrations may cause significant error
 Vibrational temperatures:     38.74    65.54    85.42   114.99   133.30
          (Kelvin)            222.07   308.47   360.59   373.38   434.41
                              455.17   482.93   583.62   620.01   660.12
                              676.86   707.17   957.25  1082.65  1105.29
                             1123.91  1162.73  1171.42  1210.98  1228.29
                             1295.15  1318.85  1365.53  1398.79  1431.88
                             1459.43  1494.16  1528.25  1536.34  1564.08
                             1601.41  1609.93  1631.13  1650.00  1662.88
                             1667.03  1704.16  1739.02  1781.75  1820.75
                             1832.90  1872.79  1892.21  1979.37  2006.20
                             2070.10  2080.43  2095.49  2141.27  2156.39
                             2157.74  2184.64  2194.70  2216.73  2231.88
                             2420.35  2487.46  4375.85  4398.41  4473.09
                             4509.29  4519.99  4524.44  4524.87  4541.47
                             4548.35  4586.79  4634.12  4638.56  4658.89
                             4661.97  4963.10  5085.66

 Zero-point correction=                           0.247473 (Hartree/Particle)
 Thermal correction to Energy=                    0.260366
 Thermal correction to Enthalpy=                  0.261310
 Thermal correction to Gibbs Free Energy=         0.206800
 Sum of electronic and zero-point Energies=           -537.054618
 Sum of electronic and thermal Energies=              -537.041725
 Sum of electronic and thermal Enthalpies=            -537.040781
 Sum of electronic and thermal Free Energies=         -537.095291

                     E (Thermal)             CV                S
                      KCal/Mol        Cal/Mol-Kelvin    Cal/Mol-Kelvin
 Total                  163.382             47.763            114.725
 Electronic               0.000              0.000              0.000
 Translational            0.889              2.981             41.267
 Rotational               0.889              2.981             30.987
 Vibrational            161.605             41.802             42.471
 Vibration     1          0.593              1.984              6.044
 Vibration     2          0.595              1.979              5.002
 Vibration     3          0.597              1.974              4.478
 Vibration     4          0.600              1.963              3.893
 Vibration     5          0.602              1.954              3.603
 Vibration     6          0.620              1.898              2.618
 Vibration     7          0.644              1.819              2.006
 Vibration     8          0.663              1.762              1.726
 Vibration     9          0.668              1.747              1.665
 Vibration    10          0.694              1.670              1.406
 Vibration    11          0.703              1.642              1.329
 Vibration    12          0.717              1.604              1.233
 Vibration    13          0.771              1.458              0.942
 Vibration    14          0.792              1.403              0.856
 Vibration    15          0.817              1.341              0.770
 Vibration    16          0.827              1.316              0.736
 Vibration    17          0.847              1.269              0.680

 Optimization completed.
    -- Stationary point found.
 Normal termination of Gaussian 16 at Wed Dec  9 18:24:03 2020.

 ----------------------------------------------------------------------
 # B3LYP/6-311++G(d,p) empiricaldispersion=gd3bj scf=xqc pop=npa geom=c
 heck
 ----------------------------------------------------------------------

 --------------------------------------
 CID_82237365_JID_2552_Energie_neutraal
 --------------------------------------
 Structure from the checkpoint file:  "JID_2552.chk"
 Charge =  0 Multiplicity = 1

 SCF Done:  E(RB3LYP) =  -537.460848553     A.U. after   14 cycles
 Normal termination of Gaussian 16 at Wed Dec  9 18:26:45 2020.

 ----------------------------------------------------------------------
 # B3LYP/6-311++G(d,p) empiricaldispersion=gd3bj scf=xqc pop=npa geom=c
 heck
 ----------------------------------------------------------------------

 ------------------------------------
 CID_82237365_JID_2552_Energie_kation
 ------------------------------------
 Structure from the checkpoint file:  "JID_2552.chk"
 Charge =  1 Multiplicity = 2

 SCF Done:  E(UB3LYP) =  -537.157253118     A.U. after   25 cycles
 Normal termination of Gaussian 16 at Wed Dec  9 18:32:18 2020.
 Gaussian 16:  ES64L-G16RevA.03 25-Dec-2016

 ----------------------------------------------------------------------
 # B3LYP/6-311++G(d,p) empiricaldispersion=gd3bj scf=xqc pop=npa geom=c
 heck
 ----------------------------------------------------------------------

 -----------------------------------
 CID_82237365_JID_2552_Energie_anion
 -----------------------------------
 Structure from the checkpoint file:  "JID_2552.chk"
 Charge = -1 Multiplicity = 2

                         Standard orientation:
 ---------------------------------------------------------------------
 Center     Atomic      Atomic             Coordinates (Angstroms)
 Number     Number       Type             X           Y           Z
 ---------------------------------------------------------------------
      1          6           0       -0.800919    2.518534   -0.158391
      2          7           0       -0.470621    1.177966    0.314620
      3          6           0       -1.560787    0.441185    0.952158
      4          6           0       -2.599344   -0.074393   -0.025030
      5          6           0       -2.327901   -1.322435   -0.825613
      6          6           0       -3.348969   -1.346075    0.285952
      7          6           0        0.687856    0.620183   -0.166529
      8          8           0        1.428130    1.265311   -0.920056
      9          6           0        1.073215   -0.758398    0.269789
     10          6           0        1.885403   -1.590225   -0.719759
     11          6           0        2.545588   -1.063002    0.524119
     12          7           0        3.519961   -0.003885    0.556737
     13          1           0       -1.344372    2.494203   -1.112264
     14          1           0        0.120765    3.078973   -0.306977
     15          1           0       -1.424506    3.015136    0.591147
     16          1           0       -1.154040   -0.386562    1.534644
     17          1           0       -2.033879    1.118167    1.674083
     18          1           0       -3.165191    0.704726   -0.531701
     19          1           0       -2.681258   -1.357400   -1.851857
     20          1           0       -1.383353   -1.834969   -0.667842
     21          1           0       -3.091653   -1.874125    1.201185
     22          1           0       -4.401671   -1.403906    0.025269
     23          1           0        0.381821   -1.305664    0.895998
     24          1           0        1.647849   -2.647998   -0.801562
     25          1           0        2.119287   -1.084585   -1.651791
     26          1           0        2.698060   -1.791321    1.319348
     27          1           0        4.405887   -0.355588    0.195642
     28          1           0        3.210974    0.737602   -0.072554
 ---------------------------------------------------------------------

 SCF Done:  E(UB3LYP) =  -537.446648554     A.U. after   30 cycles

 The electronic state is 2-A.
 Alpha  occ. eigenvalues --  -18.98671 -14.24436 -14.19426 -10.17501 -10.11247
 Alpha  occ. eigenvalues --  -10.11042 -10.09625 -10.08825 -10.08008 -10.07581
 Alpha  occ. eigenvalues --  -10.07173 -10.07082  -0.94059  -0.83785  -0.80809
 Alpha  occ. eigenvalues --   -0.76019  -0.72570  -0.63058  -0.61389  -0.52921
 Alpha  occ. eigenvalues --   -0.50315  -0.49933  -0.48621  -0.44604  -0.42452
 Alpha  occ. eigenvalues --   -0.40613  -0.38962  -0.38244  -0.37427  -0.36341
 Alpha  occ. eigenvalues --   -0.33955  -0.33502  -0.30676  -0.29977  -0.28839
 Alpha  occ. eigenvalues --   -0.28611  -0.27529  -0.26683  -0.26443  -0.24272
 Alpha  occ. eigenvalues --   -0.20261  -0.19628  -0.19486  -0.16393  -0.14560
 Alpha  occ. eigenvalues --   -0.13624   0.04486
 Alpha virt. eigenvalues --    0.06423   0.07466   0.07570   0.08631   0.09350
 Alpha virt. eigenvalues --    0.09677   0.10153   0.10448   0.10888   0.11583
 Alpha virt. eigenvalues --    0.12134   0.12861   0.13589   0.13727   0.14772

  Beta  occ. eigenvalues --  -18.98668 -14.24433 -14.19421 -10.17500 -10.11233
  Beta  occ. eigenvalues --  -10.11017 -10.09594 -10.08813 -10.07993 -10.07566
  Beta  occ. eigenvalues --  -10.07137 -10.07064  -0.94054  -0.83770  -0.80785
  Beta  occ. eigenvalues --   -0.75991  -0.72544  -0.63013  -0.61357  -0.52880
  Beta  occ. eigenvalues --   -0.50235  -0.49887  -0.48563  -0.44561  -0.42411
  Beta  occ. eigenvalues --   -0.40578  -0.38909  -0.38197  -0.37394  -0.36307
  Beta  occ. eigenvalues --   -0.33927  -0.33469  -0.30647  -0.29944  -0.28809
  Beta  occ. eigenvalues --   -0.28587  -0.27500  -0.26641  -0.26406  -0.24251
  Beta  occ. eigenvalues --   -0.20227  -0.19606  -0.19454  -0.16383  -0.14542
  Beta  occ. eigenvalues --   -0.13609
  Beta virt. eigenvalues --    0.06908   0.07467   0.08085   0.08329   0.09077
  Beta virt. eigenvalues --    0.09927   0.10208   0.10529   0.10871   0.11161
  Beta virt. eigenvalues --    0.11855   0.12511   0.13366   0.13986   0.14028

 Mulliken charges and spin densities:
               1          2
     1  C    0.684326  -0.974585
     2  N   -0.005655   0.160625
     3  C    1.552630  -2.229706
     4  C   -1.648963   1.959917
     5  C    0.061253  -0.400860
     6  C    1.217685  -1.688687
     7  C   -0.149072  -0.495777
     8  O   -0.388406   0.005434
     9  C   -0.344849   1.227033
    10  C    0.062771  -0.733117
    11  C    0.434843  -0.886664
    12  N   -0.310430  -0.041418
    13  H   -0.020777   0.194749
    14  H    0.067774   0.120370
    15  H   -0.213700   0.352293
    16  H   -0.275600   0.433418
    17  H   -0.104807   0.280932
    18  H   -0.543563   0.763921
    19  H   -0.229404   0.388417
    20  H    0.206916  -0.080759
    21  H   -0.485251   0.625747
    22  H   -0.264988   0.419551
    23  H   -0.069587   0.369927
    24  H   -0.383227   0.541825
    25  H    0.211300  -0.029768
    26  H   -0.419002   0.608374
    27  H    0.168741   0.042846
    28  H    0.189041   0.065961
 Sum of Mulliken charges =  -1.00000   1.00000

 Dipole moment (field-independent basis, Debye):
    X=              4.1184    Y=              1.7460    Z=             -2.1243  Tot=              4.9520
 Quadrupole moment (field-independent basis, Debye-Ang):
   XX=           -139.9197   YY=           -122.8706   ZZ=           -108.7885
   XY=             -0.1342   XZ=             -4.3514   YZ=              4.5078

 Summary of Natural Population Analysis:

                                       Natural Population
                Natural  -----------------------------------------------
    Atom  No    Charge         Core      Valence    Rydberg      Total
 -----------------------------------------------------------------------
      C    1   -0.17946      0.99963     2.17134    0.00848     3.17946
      N    2   -0.24587      0.99965     2.73549    0.01073     3.74587
      C    3   -0.08216      0.99958     2.07025    0.01234     3.08216
      C    4   -0.12528      0.99958     2.11452    0.01118     3.12528
      C    5   -0.19745      0.99961     2.18862    0.00922     3.19745
      C    6   -0.19330      0.99962     2.18464    0.00904     3.19330
      C    7    0.34694      0.99961     1.63020    0.02325     2.65306
      O    8   -0.34837      0.99988     3.34367    0.00482     4.34837
      C    9   -0.16136      0.99954     2.15070    0.01112     3.16136
      C   10   -0.19809      0.99960     2.18843    0.01006     3.19809
      C   11   -0.00308      0.99959     1.98851    0.01498     3.00308
      N   12   -0.42334      0.99975     2.91405    0.00953     3.92334
      H   13    0.09419      0.00000     0.40472    0.00109     0.40581
      H   14    0.11081      0.00000     0.38826    0.00093     0.38919
      H   15    0.09598      0.00000     0.40291    0.00111     0.40402
      H   16    0.10213      0.00000     0.39551    0.00236     0.39787
      H   17    0.10083      0.00000     0.39756    0.00161     0.39917
      H   18    0.10516      0.00000     0.39307    0.00177     0.39484
      H   19    0.10294      0.00000     0.39605    0.00101     0.39706
      H   20    0.10406      0.00000     0.39453    0.00141     0.39594
      H   21    0.10304      0.00000     0.39527    0.00169     0.39696
      H   22    0.10476      0.00000     0.39347    0.00177     0.39524
      H   23    0.11247      0.00000     0.38531    0.00222     0.38753
      H   24    0.10518      0.00000     0.39343    0.00139     0.39482
      H   25    0.10893      0.00000     0.38980    0.00127     0.39107
      H   26    0.09835      0.00000     0.39988    0.00176     0.40165
      H   27    0.17017      0.00000     0.32815    0.00168     0.32983
      H   28    0.19181      0.00000     0.30601    0.00218     0.30819
 =======================================================================
   * Total *    0.00000     11.99565    33.84436    0.16000    46.00000

 Normal termination of Gaussian 16 at Wed Dec  9 18:38:37 2020.
