 Gaussian 16, Revision A.03,

 -----------------------------------------------------------
 # opt freq B3LYP/6-31G(d) empiricaldispersion=gd3bj scf=xqc
 -----------------------------------------------------------

 ------------------------------
 CID_81482561_JID_8919_neutraal
 ------------------------------
 Symbolic Z-matrix:
 Charge =  0 Multiplicity = 1

 SCF Done:  E(RB3LYP) =  -842.649293935     A.U. after   15 cycles
 SCF Done:  E(RB3LYP) =  -842.642498671     A.U. after   13 cycles
 SCF Done:  E(RB3LYP) =  -842.655525128     A.U. after   12 cycles
 SCF Done:  E(RB3LYP) =  -842.655493939     A.U. after   14 cycles
 SCF Done:  E(RB3LYP) =  -842.656702171     A.U. after   12 cycles
 SCF Done:  E(RB3LYP) =  -842.657047522     A.U. after   11 cycles
 SCF Done:  E(RB3LYP) =  -842.657178145     A.U. after   11 cycles
 SCF Done:  E(RB3LYP) =  -842.657236389     A.U. after   10 cycles
 SCF Done:  E(RB3LYP) =  -842.657280734     A.U. after   11 cycles
 SCF Done:  E(RB3LYP) =  -842.657357727     A.U. after   11 cycles
 SCF Done:  E(RB3LYP) =  -842.657741878     A.U. after    8 cycles
 SCF Done:  E(RB3LYP) =  -842.657742516     A.U. after    8 cycles
 SCF Done:  E(RB3LYP) =  -842.657743088     A.U. after    8 cycles
 SCF Done:  E(RB3LYP) =  -842.657743298     A.U. after    8 cycles
 SCF Done:  E(RB3LYP) =  -842.657743373     A.U. after    7 cycles
 Optimization completed.
    -- Stationary point found.
 Normal termination of Gaussian 16 at Fri Dec 11 23:34:48 2020.

 --------------------------------------------------------------------
 #N Geom=AllCheck Guess=TCheck SCRF=Check GenChk RB3LYP/6-31G(d) Freq
 --------------------------------------------------------------------

 Structure from the checkpoint file:  "JID_8919.chk"
 ------------------------------
 CID_81482561_JID_8919_neutraal
 ------------------------------
 Charge =  0 Multiplicity = 1

 SCF Done:  E(RB3LYP) =  -842.657743373     A.U. after    1 cycles

  Exact polarizability: 206.686 -12.846 141.133 -12.435 -10.453 135.861
 Approx polarizability: 266.875 -24.741 226.971 -21.552 -30.769 211.771

                      1                      2                      3
                      A                      A                      A
 Frequencies --     26.1351                53.4844                58.7451
 Red. masses --      4.5486                 3.5058                 4.0099
 Frc consts  --      0.0018                 0.0059                 0.0082
 IR Inten    --      1.0256                 0.0853                 2.2394

                      4                      5                      6
                      A                      A                      A
 Frequencies --     77.8698                85.0264               101.4101
 Red. masses --      3.3952                 1.5298                 3.7442
 Frc consts  --      0.0121                 0.0065                 0.0227
 IR Inten    --      6.8749                 0.0866                 1.0166

                      7                      8                      9
                      A                      A                      A
 Frequencies --    107.4374               146.8446               152.8565
 Red. masses --      2.7057                 3.5492                 2.7549
 Frc consts  --      0.0184                 0.0451                 0.0379
 IR Inten    --      0.4592                 2.5724                16.6441

                     10                     11                     12
                      A                      A                      A
 Frequencies --    164.0084               198.9198               230.1740
 Red. masses --      3.1813                 3.6472                 1.6414
 Frc consts  --      0.0504                 0.0850                 0.0512
 IR Inten    --      7.6945                 1.4176                 2.1911

                     13                     14                     15
                      A                      A                      A
 Frequencies --    235.0644               247.1186               255.0023
 Red. masses --      2.3820                 1.5712                 1.5276
 Frc consts  --      0.0775                 0.0565                 0.0585
 IR Inten    --      3.9329                 0.1900                 1.3968

                     16                     17                     18
                      A                      A                      A
 Frequencies --    277.1060               301.9321               307.6869
 Red. masses --      1.1583                 3.9594                 3.1203
 Frc consts  --      0.0524                 0.2127                 0.1740
 IR Inten    --      0.5733                 1.4218                 1.2998

                     19                     20                     21
                      A                      A                      A
 Frequencies --    331.9904               337.2290               350.2880
 Red. masses --      2.2989                 2.6793                 1.7620
 Frc consts  --      0.1493                 0.1795                 0.1274
 IR Inten    --     50.2848                 5.2751                41.7999

                     22                     23                     24
                      A                      A                      A
 Frequencies --    363.0325               374.6393               418.8204
 Red. masses --      2.9684                 3.2739                 2.1869
 Frc consts  --      0.2305                 0.2707                 0.2260
 IR Inten    --      1.4603                 9.9778                 0.3152

                     25                     26                     27
                      A                      A                      A
 Frequencies --    460.3780               468.9186               495.4808
 Red. masses --      2.7616                 2.9656                 3.1349
 Frc consts  --      0.3449                 0.3842                 0.4534
 IR Inten    --     19.5901                 5.4450                 0.5452

                     28                     29                     30
                      A                      A                      A
 Frequencies --    526.0814               551.2713               595.2366
 Red. masses --      2.9891                 4.8169                 3.2955
 Frc consts  --      0.4874                 0.8625                 0.6879
 IR Inten    --     16.6687                14.2254                48.4897

                     31                     32                     33
                      A                      A                      A
 Frequencies --    624.3352               632.1960               664.2121
 Red. masses --      2.2606                 2.8007                 3.6402
 Frc consts  --      0.5192                 0.6595                 0.9462
 IR Inten    --      9.6766                43.0923                16.5485

                     34                     35                     36
                      A                      A                      A
 Frequencies --    724.7240               738.5339               749.2046
 Red. masses --      4.4120                 4.3510                 5.8040
 Frc consts  --      1.3653                 1.3982                 1.9195
 IR Inten    --     10.7447                12.5579                 4.8476

                     37                     38                     39
                      A                      A                      A
 Frequencies --    780.3728               781.7207               823.1642
 Red. masses --      3.9678                 3.2161                 1.8834
 Frc consts  --      1.4236                 1.1579                 0.7519
 IR Inten    --      3.9444                20.6153                13.5204

                     40                     41                     42
                      A                      A                      A
 Frequencies --    872.3380               894.6196               915.2307
 Red. masses --      1.4931                 1.7071                 1.9133
 Frc consts  --      0.6694                 0.8050                 0.9443
 IR Inten    --     19.8597                60.0852                48.3271

                     43                     44                     45
                      A                      A                      A
 Frequencies --    930.0324               942.6642               946.4394
 Red. masses --      4.0650                 1.4338                 1.4110
 Frc consts  --      2.0716                 0.7507                 0.7447
 IR Inten    --      4.4877                23.8648                 2.7509

                     46                     47                     48
                      A                      A                      A
 Frequencies --    972.0927               995.1655              1038.5775
 Red. masses --      1.4986                 1.5557                 1.6211
 Frc consts  --      0.8344                 0.9078                 1.0303
 IR Inten    --     11.5165                 9.2988                18.5124

                     49                     50                     51
                      A                      A                      A
 Frequencies --   1044.5584              1072.2043              1110.2225
 Red. masses --      4.1582                 3.5063                 2.8349
 Frc consts  --      2.6732                 2.3750                 2.0588
 IR Inten    --     40.0617                12.4887                11.3302

                     52                     53                     54
                      A                      A                      A
 Frequencies --   1141.2720              1156.6261              1186.1446
 Red. masses --      1.7782                 1.7874                 1.2720
 Frc consts  --      1.3646                 1.4088                 1.0544
 IR Inten    --     87.5690                45.5015                 1.4008

                     55                     56                     57
                      A                      A                      A
 Frequencies --   1189.0927              1191.3619              1196.2366
 Red. masses --      1.7164                 1.3958                 1.5904
 Frc consts  --      1.4299                 1.1672                 1.3409
 IR Inten    --     83.6969                18.5391                66.1001

                     58                     59                     60
                      A                      A                      A
 Frequencies --   1210.6119              1220.1961              1238.7767
 Red. masses --      2.7048                 1.3567                 1.8318
 Frc consts  --      2.3356                 1.1901                 1.6562
 IR Inten    --     22.6321                10.7942                95.3494

                     61                     62                     63
                      A                      A                      A
 Frequencies --   1243.7709              1291.5008              1323.0814
 Red. masses --      1.8246                 1.6969                 2.2889
 Frc consts  --      1.6630                 1.6676                 2.3608
 IR Inten    --    128.6020                24.7584               107.8083

                     64                     65                     66
                      A                      A                      A
 Frequencies --   1337.9275              1357.6566              1368.9308
 Red. masses --      2.8618                 8.5527                 1.5473
 Frc consts  --      3.0183                 9.2883                 1.7084
 IR Inten    --     98.9378                64.9246                68.5551

                     67                     68                     69
                      A                      A                      A
 Frequencies --   1392.9541              1422.3255              1426.3810
 Red. masses --      2.0979                 1.6006                 1.3074
 Frc consts  --      2.3983                 1.9078                 1.5672
 IR Inten    --    105.0070                52.2374                22.1983

                     70                     71                     72
                      A                      A                      A
 Frequencies --   1446.4161              1466.4362              1495.0783
 Red. masses --      1.2518                 2.2485                 1.3109
 Frc consts  --      1.5430                 2.8489                 1.7265
 IR Inten    --      2.4779                66.4169                55.7885

                     73                     74                     75
                      A                      A                      A
 Frequencies --   1499.4221              1510.4822              1511.7243
 Red. masses --      1.5935                 1.0584                 1.2346
 Frc consts  --      2.1108                 1.4228                 1.6624
 IR Inten    --     50.0786                 1.0108                 0.4634

                     76                     77                     78
                      A                      A                      A
 Frequencies --   1515.7725              1520.4304              1521.3691
 Red. masses --      1.2129                 1.0991                 1.0479
 Frc consts  --      1.6418                 1.4970                 1.4290
 IR Inten    --      3.4834                 4.5301                 5.2531

                     79                     80                     81
                      A                      A                      A
 Frequencies --   1527.7301              1534.0356              1535.7287
 Red. masses --      1.1040                 1.0750                 1.0739
 Frc consts  --      1.5181                 1.4906                 1.4923
 IR Inten    --      0.9404                 4.3977                47.3526

                     82                     83                     84
                      A                      A                      A
 Frequencies --   1544.2500              1547.1322              1552.0897
 Red. masses --      1.0610                 1.1737                 2.0895
 Frc consts  --      1.4908                 1.6553                 2.9656
 IR Inten    --      9.0543                 6.5584                52.6329

                     85                     86                     87
                      A                      A                      A
 Frequencies --   1619.4634              1673.9226              1697.3737
 Red. masses --      6.8746                 5.9898                 1.1068
 Frc consts  --     10.6228                 9.8886                 1.8788
 IR Inten    --     42.9499               268.0725                38.2495

                     88                     89                     90
                      A                      A                      A
 Frequencies --   1763.4237              3011.6843              3029.0080
 Red. masses --      8.0807                 1.0731                 1.0346
 Frc consts  --     14.8051                 5.7346                 5.5926
 IR Inten    --    379.2132                41.1451                58.2715

                     91                     92                     93
                      A                      A                      A
 Frequencies --   3036.8498              3049.7293              3064.7318
 Red. masses --      1.0353                 1.0362                 1.0298
 Frc consts  --      5.6254                 5.6784                 5.6987
 IR Inten    --     27.6929                26.3675                53.3357

                     94                     95                     96
                      A                      A                      A
 Frequencies --   3088.9334              3103.3594              3109.2611
 Red. masses --      1.1067                 1.1020                 1.1027
 Frc consts  --      6.2218                 6.2531                 6.2806
 IR Inten    --     41.0512                12.5734                23.2621

                     97                     98                     99
                      A                      A                      A
 Frequencies --   3113.0504              3129.4618              3141.5997
 Red. masses --      1.1013                 1.1024                 1.0891
 Frc consts  --      6.2882                 6.3610                 6.3332
 IR Inten    --     55.1878                31.3444                11.6800

                    100                    101                    102
                      A                      A                      A
 Frequencies --   3144.3684              3161.3265              3170.6992
 Red. masses --      1.1070                 1.1001                 1.1076
 Frc consts  --      6.4486                 6.4776                 6.5608
 IR Inten    --     22.9617                27.0308                 3.3458

                    103                    104                    105
                      A                      A                      A
 Frequencies --   3205.6958              3232.4758              3237.0845
 Red. masses --      1.0892                 1.0914                 1.0919
 Frc consts  --      6.5950                 6.7189                 6.7412
 IR Inten    --      3.6778                 0.8462                10.1875

                    106                    107                    108
                      A                      A                      A
 Frequencies --   3456.3829              3546.8933              3592.3019
 Red. masses --      1.0492                 1.0937                 1.0748
 Frc consts  --      7.3853                 8.1064                 8.1720
 IR Inten    --     18.8360                 6.2929                20.6718

 - Thermochemistry -
 -------------------
 Temperature   298.150 Kelvin.  Pressure   1.00000 Atm.
 Atom     1 has atomic number  6 and mass  12.00000

 Molecular mass:   252.14739 amu.
 Principal axes and moments of inertia in atomic units:
                           1         2         3
     Eigenvalues --  2610.262127624.371038177.72201
           X            0.99993   0.01120  -0.00303
           Y           -0.01099   0.99803   0.06169
           Z            0.00371  -0.06165   0.99809
 This molecule is an asymmetric top.
 Rotational symmetry number  1.
 Warning -- assumption of classical behavior for rotation
           may cause significant error
 Rotational temperatures (Kelvin)      0.03318     0.01136     0.01059
 Rotational constants (GHZ):           0.69140     0.23671     0.22069
 Zero-point vibrational energy     852667.2 (Joules/Mol)
                                  203.79235 (Kcal/Mol)
 Warning -- explicit consideration of  30 degrees of freedom as
           vibrations may cause significant error
 Vibrational temperatures:     37.60    76.95    84.52   112.04   122.33
          (Kelvin)            145.91   154.58   211.28   219.93   235.97
                              286.20   331.17   338.21   355.55   366.89
                              398.69   434.41   442.69   477.66   485.20
                              503.99   522.32   539.02   602.59   662.38
                              674.67   712.89   756.91   793.16   856.41
                              898.28   909.59   955.65  1042.72  1062.59
                             1077.94  1122.78  1124.72  1184.35  1255.10
                             1287.16  1316.81  1338.11  1356.28  1361.72
                             1398.62  1431.82  1494.28  1502.89  1542.66
                             1597.36  1642.04  1664.13  1706.60  1710.84
                             1714.10  1721.12  1741.80  1755.59  1782.32
                             1789.51  1858.18  1903.62  1924.98  1953.37
                             1969.59  2004.15  2046.41  2052.24  2081.07
                             2109.87  2151.08  2157.33  2173.25  2175.03
                             2180.86  2187.56  2188.91  2198.06  2207.14
                             2209.57  2221.83  2225.98  2233.11  2330.05
                             2408.40  2442.14  2537.17  4333.14  4358.07
                             4369.35  4387.88  4409.47  4444.29  4465.04
                             4473.53  4478.99  4502.60  4520.06  4524.04
                             4548.44  4561.93  4612.28  4650.81  4657.44
                             4972.96  5103.19  5168.52

 Zero-point correction=                           0.324764 (Hartree/Particle)
 Thermal correction to Energy=                    0.344011
 Thermal correction to Enthalpy=                  0.344955
 Thermal correction to Gibbs Free Energy=         0.277352
 Sum of electronic and zero-point Energies=           -842.332980
 Sum of electronic and thermal Energies=              -842.313733
 Sum of electronic and thermal Enthalpies=            -842.312788
 Sum of electronic and thermal Free Energies=         -842.380392

                     E (Thermal)             CV                S
                      KCal/Mol        Cal/Mol-Kelvin    Cal/Mol-Kelvin
 Total                  215.870             72.242            142.283
 Electronic               0.000              0.000              0.000
 Translational            0.889              2.981             42.475
 Rotational               0.889              2.981             33.453
 Vibrational            214.093             66.280             66.355
 Vibration     1          0.593              1.985              6.103
 Vibration     2          0.596              1.976              4.684
 Vibration     3          0.596              1.974              4.499
 Vibration     4          0.599              1.964              3.944
 Vibration     5          0.601              1.960              3.771
 Vibration     6          0.604              1.948              3.427
 Vibration     7          0.606              1.943              3.315
 Vibration     8          0.617              1.906              2.713
 Vibration     9          0.619              1.899              2.636
 Vibration    10          0.623              1.887              2.503
 Vibration    11          0.637              1.841              2.143
 Vibration    12          0.652              1.795              1.878
 Vibration    13          0.655              1.787              1.840
 Vibration    14          0.661              1.768              1.751
 Vibration    15          0.665              1.754              1.696
 Vibration    16          0.678              1.716              1.551
 Vibration    17          0.694              1.670              1.406
 Vibration    18          0.698              1.659              1.375
 Vibration    19          0.714              1.612              1.250
 Vibration    20          0.718              1.601              1.225
 Vibration    21          0.727              1.575              1.165
 Vibration    22          0.737              1.548              1.109
 Vibration    23          0.746              1.524              1.061
 Vibration    24          0.782              1.429              0.896
 Vibration    25          0.818              1.338              0.765
 Vibration    26          0.826              1.319              0.741
 Vibration    27          0.851              1.260              0.670
 Vibration    28          0.881              1.192              0.596
 Vibration    29          0.907              1.137              0.542
 Vibration    30          0.953              1.042              0.458

                           ! Non-Optimized Parameters !
 Normal termination of Gaussian 16 at Fri Dec 11 23:53:24 2020.

 ----------------------------------------------------------------------
 # B3LYP/6-311++G(d,p) empiricaldispersion=gd3bj scf=xqc pop=npa geom=c
 heck
 ----------------------------------------------------------------------

 --------------------------------------
 CID_81482561_JID_8919_Energie_neutraal
 --------------------------------------
 Structure from the checkpoint file:  "JID_8919.chk"
 Charge =  0 Multiplicity = 1

 SCF Done:  E(RB3LYP) =  -842.905589560     A.U. after   15 cycles
 Normal termination of Gaussian 16 at Sat Dec 12 00:01:54 2020.

 ----------------------------------------------------------------------
 # B3LYP/6-311++G(d,p) empiricaldispersion=gd3bj scf=xqc pop=npa geom=c
 heck
 ----------------------------------------------------------------------

 ------------------------------------
 CID_81482561_JID_8919_Energie_kation
 ------------------------------------
 Structure from the checkpoint file:  "JID_8919.chk"
 Charge =  1 Multiplicity = 2

 SCF Done:  E(UB3LYP) =  -842.616487903     A.U. after   28 cycles
 Normal termination of Gaussian 16 at Sat Dec 12 00:24:06 2020.
 Gaussian 16:  ES64L-G16RevA.03 25-Dec-2016

 ----------------------------------------------------------------------
 # B3LYP/6-311++G(d,p) empiricaldispersion=gd3bj scf=xqc pop=npa geom=c
 heck
 ----------------------------------------------------------------------

 -----------------------------------
 CID_81482561_JID_8919_Energie_anion
 -----------------------------------
 Structure from the checkpoint file:  "JID_8919.chk"
 Charge = -1 Multiplicity = 2

                         Standard orientation:
 ---------------------------------------------------------------------
 Center     Atomic      Atomic             Coordinates (Angstroms)
 Number     Number       Type             X           Y           Z
 ---------------------------------------------------------------------
      1          6           0       -4.396384   -0.324754   -0.815144
      2          6           0       -3.077775   -0.981185   -0.381113
      3          6           0       -3.048780   -2.448360   -0.854482
      4          6           0       -1.870710   -0.269784   -1.027965
      5          7           0       -1.720182    1.123942   -0.648991
      6          6           0       -0.556166    1.807857   -0.423779
      7          8           0       -0.525099    3.035439   -0.431149
      8          6           0        0.686437    0.992414   -0.193841
      9          6           0        0.857157    0.069396    0.857406
     10          6           0        2.027997   -0.675548    0.958239
     11          6           0        3.059876   -0.504529    0.029326
     12          6           0        2.930282    0.446676   -0.990605
     13          6           0        1.752108    1.184967   -1.075976
     14          8           0        4.156354   -1.290845    0.218188
     15          6           0        5.253966   -1.122617   -0.664789
     16          8           0       -0.096681   -0.168409    1.813622
     17          6           0       -0.706854    0.972184    2.450814
     18          7           0       -2.972850   -0.853768    1.078467
     19          1           0       -4.511555   -0.341374   -1.904916
     20          1           0       -4.450824    0.709863   -0.462527
     21          1           0       -5.248969   -0.860231   -0.380885
     22          1           0       -3.112994   -2.531096   -1.946546
     23          1           0       -2.124770   -2.941397   -0.529638
     24          1           0       -3.894631   -3.000797   -0.428568
     25          1           0       -0.953608   -0.792573   -0.751379
     26          1           0       -1.970011   -0.357265   -2.120531
     27          1           0       -2.500693    1.743293   -0.831332
     28          1           0        2.149862   -1.374823    1.777280
     29          1           0        3.723144    0.617283   -1.707973
     30          1           0        1.639452    1.925986   -1.861402
     31          1           0        4.973723   -1.347116   -1.702156
     32          1           0        5.658202   -0.103450   -0.613462
     33          1           0        6.014878   -1.831400   -0.334301
     34          1           0       -0.128023    1.879064    2.257878
     35          1           0       -1.728912    1.084693    2.085661
     36          1           0       -0.713419    0.762591    3.524415
     37          1           0       -3.661737   -1.460115    1.521940
     38          1           0       -2.051412   -1.162143    1.388273
 ---------------------------------------------------------------------

 SCF Done:  E(UB3LYP) =  -842.896031377     A.U. after   33 cycles
 SCF Done:  E(UB3LYP) =  -842.896031377     a.u. after    1 cycles

 The electronic state is 2-A.
 Alpha  occ. eigenvalues --  -19.07264 -19.06526 -19.00027 -14.24854 -14.19818
 Alpha  occ. eigenvalues --  -10.18910 -10.15675 -10.15639 -10.13600 -10.13022
 Alpha  occ. eigenvalues --  -10.12429 -10.11864 -10.09991 -10.09690 -10.08852
 Alpha  occ. eigenvalues --  -10.08658 -10.07206 -10.07035  -0.98908  -0.97880
 Alpha  occ. eigenvalues --   -0.95052  -0.84211  -0.79965  -0.77462  -0.68781
 Alpha  occ. eigenvalues --   -0.67759  -0.67539  -0.63013  -0.61101  -0.60531
 Alpha  occ. eigenvalues --   -0.60169  -0.54744  -0.52364  -0.49128  -0.47762
 Alpha  occ. eigenvalues --   -0.45840  -0.43136  -0.42212  -0.41345  -0.40918
 Alpha  occ. eigenvalues --   -0.40525  -0.38719  -0.37644  -0.36552  -0.36154
 Alpha  occ. eigenvalues --   -0.35343  -0.34777  -0.34079  -0.33396  -0.32916
 Alpha  occ. eigenvalues --   -0.31561  -0.30940  -0.30488  -0.30015  -0.29784
 Alpha  occ. eigenvalues --   -0.28765  -0.28170  -0.27255  -0.26042  -0.25325
 Alpha  occ. eigenvalues --   -0.24939  -0.23943  -0.21788  -0.17954  -0.16625
 Alpha  occ. eigenvalues --   -0.15854  -0.15359  -0.14134   0.03704
 Alpha virt. eigenvalues --    0.04942   0.06246   0.06729   0.06959   0.07507
 Alpha virt. eigenvalues --    0.07647   0.07800   0.08945   0.09247   0.09468
 Alpha virt. eigenvalues --    0.09778   0.09933   0.10284   0.11164   0.11442

  Beta  occ. eigenvalues --  -19.07254 -19.06525 -19.00018 -14.24850 -14.19793
  Beta  occ. eigenvalues --  -10.18903 -10.15672 -10.15624 -10.13550 -10.13015
  Beta  occ. eigenvalues --  -10.12429 -10.11846 -10.09988 -10.09688 -10.08833
  Beta  occ. eigenvalues --  -10.08657 -10.07170 -10.06999  -0.98886  -0.97871
  Beta  occ. eigenvalues --   -0.95035  -0.84195  -0.79932  -0.77447  -0.68757
  Beta  occ. eigenvalues --   -0.67718  -0.67514  -0.62968  -0.61054  -0.60501
  Beta  occ. eigenvalues --   -0.60107  -0.54720  -0.52330  -0.49101  -0.47701
  Beta  occ. eigenvalues --   -0.45813  -0.43107  -0.42186  -0.41317  -0.40890
  Beta  occ. eigenvalues --   -0.40497  -0.38682  -0.37621  -0.36524  -0.36127
  Beta  occ. eigenvalues --   -0.35323  -0.34751  -0.34050  -0.33365  -0.32883
  Beta  occ. eigenvalues --   -0.31526  -0.30909  -0.30464  -0.29977  -0.29755
  Beta  occ. eigenvalues --   -0.28732  -0.28130  -0.27229  -0.26004  -0.25288
  Beta  occ. eigenvalues --   -0.24906  -0.23917  -0.21773  -0.17940  -0.16599
  Beta  occ. eigenvalues --   -0.15825  -0.15332  -0.14102
  Beta virt. eigenvalues --    0.05754   0.06163   0.06297   0.06915   0.07391
  Beta virt. eigenvalues --    0.07741   0.08075   0.08366   0.09361   0.09512
  Beta virt. eigenvalues --    0.09838   0.09987   0.10325   0.10419   0.11361

 Mulliken charges and spin densities:
               1          2
     1  C    0.422245  -0.950022
     2  C   -1.603324   1.544493
     3  C    0.590547  -1.138329
     4  C    0.920467  -1.332995
     5  N   -0.210510   0.126048
     6  C    0.401799  -0.598386
     7  O   -0.280561   0.012104
     8  C    1.053785  -0.439474
     9  C   -0.920375   0.532653
    10  C   -0.304436   0.155930
    11  C   -0.787274   0.137461
    12  C   -0.121890   0.240708
    13  C    0.678480  -0.720548
    14  O   -0.196937   0.053961
    15  C    0.905918  -1.238349
    16  O   -0.063690   0.003745
    17  C   -0.303291  -0.076809
    18  N   -0.280922   0.016435
    19  H   -0.130613   0.288377
    20  H    0.058959   0.063445
    21  H   -0.349940   0.501833
    22  H   -0.022536   0.166523
    23  H   -0.126004   0.259711
    24  H   -0.400976   0.556693
    25  H    0.450590  -0.282272
    26  H   -0.192701   0.412463
    27  H    0.274803   0.034130
    28  H    0.090863   0.104186
    29  H   -0.223642   0.419411
    30  H    0.023520   0.194568
    31  H   -0.312347   0.472044
    32  H   -0.219156   0.374473
    33  H   -0.511457   0.691836
    34  H    0.165182  -0.004666
    35  H    0.211671   0.039263
    36  H    0.043016   0.117058
    37  H    0.068131   0.184030
    38  H    0.202604   0.078268
 Sum of Mulliken charges =  -1.00000   1.00000

 Dipole moment (field-independent basis, Debye):
    X=             -1.3440    Y=              2.1728    Z=              2.8178  Tot=              3.8036
 Quadrupole moment (field-independent basis, Debye-Ang):
   XX=           -225.7732   YY=           -160.7327   ZZ=           -142.0316
   XY=             -2.7743   XZ=              6.0906   YZ=             -1.2847

 Summary of Natural Population Analysis:

                                       Natural Population
                Natural  -----------------------------------------------
    Atom  No    Charge         Core      Valence    Rydberg      Total
 -----------------------------------------------------------------------
      C    1   -0.28951      0.99962     2.28221    0.00768     3.28951
      C    2    0.04488      0.99959     1.94236    0.01316     2.95512
      C    3   -0.29212      0.99962     2.28546    0.00704     3.29212
      C    4   -0.08890      0.99954     2.07762    0.01174     3.08890
      N    5   -0.30994      0.99966     2.80075    0.00953     3.80994
      C    6    0.34028      0.99961     1.63698    0.02312     2.65972
      O    7   -0.32129      0.99988     3.31611    0.00531     4.32129
      C    8   -0.10801      0.99940     2.09785    0.01075     3.10801
      C    9    0.17252      0.99934     1.81425    0.01388     2.82748
      C   10   -0.13806      0.99947     2.12934    0.00925     3.13806
      C   11    0.17213      0.99939     1.81501    0.01347     2.82787
      C   12   -0.15175      0.99952     2.14363    0.00860     3.15175
      C   13   -0.06967      0.99954     2.05971    0.01041     3.06967
      O   14   -0.27067      0.99986     3.26085    0.00996     4.27067
      C   15   -0.10127      0.99960     2.09260    0.00907     3.10127
      O   16   -0.29267      0.99986     3.28324    0.00958     4.29267
      C   17   -0.10700      0.99958     2.10017    0.00725     3.10700
      N   18   -0.43193      0.99975     2.92063    0.01156     3.93193
      H   19    0.10105      0.00000     0.39784    0.00111     0.39895
      H   20    0.09955      0.00000     0.39917    0.00128     0.40045
      H   21    0.10339      0.00000     0.39541    0.00120     0.39661
      H   22    0.10151      0.00000     0.39727    0.00122     0.39849
      H   23    0.10041      0.00000     0.39833    0.00127     0.39959
      H   24    0.10220      0.00000     0.39633    0.00147     0.39780
      H   25    0.10696      0.00000     0.39105    0.00199     0.39304
      H   26    0.09576      0.00000     0.40291    0.00133     0.40424
      H   27    0.19345      0.00000     0.30428    0.00227     0.30655
      H   28    0.11219      0.00000     0.38616    0.00165     0.38781
      H   29    0.10939      0.00000     0.38932    0.00129     0.39061
      H   30    0.10736      0.00000     0.39165    0.00099     0.39264
      H   31    0.08725      0.00000     0.41063    0.00211     0.41275
      H   32    0.08587      0.00000     0.41242    0.00171     0.41413
      H   33    0.09582      0.00000     0.40275    0.00143     0.40418
      H   34    0.09131      0.00000     0.40772    0.00097     0.40869
      H   35    0.10409      0.00000     0.39458    0.00132     0.39591
      H   36    0.08658      0.00000     0.41243    0.00098     0.41342
      H   37    0.17573      0.00000     0.32243    0.00184     0.32427
      H   38    0.18308      0.00000     0.31450    0.00241     0.31692
 =======================================================================
   * Total *    0.00000     17.99283    49.78598    0.22119    68.00000

 Normal termination of Gaussian 16 at Sat Dec 12 00:50:46 2020.
