 Gaussian 16, Revision A.03,

 -----------------------------------------------------------
 # opt freq B3LYP/6-31G(d) empiricaldispersion=gd3bj scf=xqc
 -----------------------------------------------------------

 ------------------------------
 CID_61375733_JID_2023_neutraal
 ------------------------------
 Symbolic Z-matrix:
 Charge =  0 Multiplicity = 1

 SCF Done:  E(RB3LYP) =  -582.966303816     A.U. after   16 cycles
 SCF Done:  E(RB3LYP) =  -582.968270972     A.U. after   15 cycles
 SCF Done:  E(RB3LYP) =  -582.970082567     A.U. after   13 cycles
 SCF Done:  E(RB3LYP) =  -582.970312060     A.U. after   12 cycles
 SCF Done:  E(RB3LYP) =  -582.970363778     A.U. after   13 cycles
 SCF Done:  E(RB3LYP) =  -582.970431457     A.U. after   11 cycles
 SCF Done:  E(RB3LYP) =  -582.970493542     A.U. after   12 cycles
 SCF Done:  E(RB3LYP) =  -582.970739353     A.U. after   16 cycles
 SCF Done:  E(RB3LYP) =  -582.971087365     A.U. after   13 cycles
 SCF Done:  E(RB3LYP) =  -582.971505128     A.U. after   15 cycles
 SCF Done:  E(RB3LYP) =  -582.972179947     A.U. after    7 cycles
 SCF Done:  E(RB3LYP) =  -582.972180020     A.U. after    8 cycles
 SCF Done:  E(RB3LYP) =  -582.972180072     A.U. after    9 cycles
 SCF Done:  E(RB3LYP) =  -582.972180095     A.U. after    8 cycles
 SCF Done:  E(RB3LYP) =  -582.972180105     A.U. after    8 cycles
 Optimization completed.
    -- Stationary point found.
 Normal termination of Gaussian 16 at Wed Dec  9 16:48:06 2020.

 --------------------------------------------------------------------
 #N Geom=AllCheck Guess=TCheck SCRF=Check GenChk RB3LYP/6-31G(d) Freq
 --------------------------------------------------------------------

 Structure from the checkpoint file:  "JID_2023.chk"
 ------------------------------
 CID_61375733_JID_2023_neutraal
 ------------------------------
 Charge =  0 Multiplicity = 1

 SCF Done:  E(RB3LYP) =  -582.972180105     A.U. after    1 cycles

  Exact polarizability: 107.683  -3.050 105.972  -1.495  -4.137  63.965
 Approx polarizability: 138.917 -11.435 206.977  -1.463 -23.162 104.402

                      1                      2                      3
                      A                      A                      A
 Frequencies --     21.4100                39.7746                47.2178
 Red. masses --      4.3306                 6.9845                 4.7238
 Frc consts  --      0.0012                 0.0065                 0.0062
 IR Inten    --      0.6204                 0.4302                 0.2075

                      4                      5                      6
                      A                      A                      A
 Frequencies --    101.3438               152.2408               185.8413
 Red. masses --      6.2713                 4.9160                 2.9474
 Frc consts  --      0.0379                 0.0671                 0.0600
 IR Inten    --      1.2489                 0.6959                 4.1872

                      7                      8                      9
                      A                      A                      A
 Frequencies --    231.4243               232.6479               263.9090
 Red. masses --      1.0995                 3.9887                 1.2411
 Frc consts  --      0.0347                 0.1272                 0.0509
 IR Inten    --      0.3593                 2.6076                 1.0533

                     10                     11                     12
                      A                      A                      A
 Frequencies --    297.3662               338.4498               385.7620
 Red. masses --      2.4494                 2.8364                 4.3029
 Frc consts  --      0.1276                 0.1914                 0.3773
 IR Inten    --      1.0669                 3.4403                 2.7018

                     13                     14                     15
                      A                      A                      A
 Frequencies --    457.3900               483.2405               572.6221
 Red. masses --      5.6436                 3.6152                13.6919
 Frc consts  --      0.6956                 0.4974                 2.6452
 IR Inten    --      1.2893                 0.4425                15.9434

                     16                     17                     18
                      A                      A                      A
 Frequencies --    624.9687               659.4461               692.8498
 Red. masses --      3.3617                 6.7680                 6.8599
 Frc consts  --      0.7736                 1.7341                 1.9402
 IR Inten    --      2.9509                 5.9839                 7.9960

                     19                     20                     21
                      A                      A                      A
 Frequencies --    762.9199               815.8165               896.0002
 Red. masses --      4.6945                 8.3498                 3.4471
 Frc consts  --      1.6099                 3.2742                 1.6305
 IR Inten    --     12.3923                16.0297                 6.9877

                     22                     23                     24
                      A                      A                      A
 Frequencies --    903.5761               919.9111               949.0400
 Red. masses --      4.3178                 8.0243                 1.1507
 Frc consts  --      2.0771                 4.0008                 0.6106
 IR Inten    --     13.6093                28.3224                 1.3032

                     25                     26                     27
                      A                      A                      A
 Frequencies --    981.8934               986.9978              1019.5577
 Red. masses --      1.7055                 1.9447                 6.2290
 Frc consts  --      0.9688                 1.1162                 3.8150
 IR Inten    --      7.6154                 7.5544                 1.3445

                     28                     29                     30
                      A                      A                      A
 Frequencies --   1068.5476              1133.0670              1142.6871
 Red. masses --      5.0254                 1.6862                 2.3790
 Frc consts  --      3.3807                 1.2755                 1.8302
 IR Inten    --      0.4314                 9.6761                 5.2194

                     31                     32                     33
                      A                      A                      A
 Frequencies --   1202.3484              1229.2926              1293.0195
 Red. masses --      1.9242                 1.5916                 2.2461
 Frc consts  --      1.6389                 1.4171                 2.2125
 IR Inten    --     15.3794                 9.0685                51.1035

                     34                     35                     36
                      A                      A                      A
 Frequencies --   1315.5856              1340.7757              1346.5054
 Red. masses --      3.5583                 2.0328                 1.4009
 Frc consts  --      3.6286                 2.1531                 1.4964
 IR Inten    --    120.5603                31.5485                 1.2349

                     37                     38                     39
                      A                      A                      A
 Frequencies --   1402.4701              1422.1264              1434.3818
 Red. masses --      1.7310                 1.5903                 1.8102
 Frc consts  --      2.0060                 1.8950                 2.1944
 IR Inten    --      8.8880                17.3625                 6.8178

                     40                     41                     42
                      A                      A                      A
 Frequencies --   1450.5759              1506.2626              1517.8360
 Red. masses --      1.2435                 1.0922                 1.0514
 Frc consts  --      1.5417                 1.4600                 1.4271
 IR Inten    --      7.2493                 4.6696                 1.8737

                     43                     44                     45
                      A                      A                      A
 Frequencies --   1520.3652              1530.6346              1535.4199
 Red. masses --      1.0521                 1.0740                 1.3891
 Frc consts  --      1.4329                 1.4825                 1.9294
 IR Inten    --      1.9347                 7.6975                 4.9878

                     46                     47                     48
                      A                      A                      A
 Frequencies --   1559.0068              1633.9990              2267.5593
 Red. masses --      2.8434                10.1585                13.6919
 Frc consts  --      4.0717                15.9802                41.4793
 IR Inten    --     16.3868                60.4436               354.3442

                     49                     50                     51
                      A                      A                      A
 Frequencies --   3035.5545              3055.9163              3062.7022
 Red. masses --      1.0828                 1.0354                 1.0353
 Frc consts  --      5.8785                 5.6967                 5.7218
 IR Inten    --      9.0396                18.8984                21.1015

                     52                     53                     54
                      A                      A                      A
 Frequencies --   3070.6956              3123.7778              3132.3783
 Red. masses --      1.0689                 1.1030                 1.1029
 Frc consts  --      5.9384                 6.3416                 6.3756
 IR Inten    --     17.4557                11.7349                40.1821

                     55                     56                     57
                      A                      A                      A
 Frequencies --   3137.6191              3143.0192              3173.3321
 Red. masses --      1.1028                 1.1027                 1.0974
 Frc consts  --      6.3965                 6.4183                 6.5110
 IR Inten    --     20.6152                18.7979                 1.7897

 - Thermochemistry -
 -------------------
 Temperature   298.150 Kelvin.  Pressure   1.00000 Atm.
 Atom     1 has atomic number  6 and mass  12.00000

 Molecular mass:   167.08071 amu.
 Principal axes and moments of inertia in atomic units:
                           1         2         3
     Eigenvalues --  1052.167613056.436183884.58652
           X            0.99925  -0.03807  -0.00745
           Y            0.03816   0.99920   0.01177
           Z            0.00700  -0.01205   0.99990
 This molecule is an asymmetric top.
 Rotational symmetry number  1.
 Warning -- assumption of classical behavior for rotation
           may cause significant error
 Rotational temperatures (Kelvin)      0.08232     0.02834     0.02230
 Rotational constants (GHZ):           1.71526     0.59047     0.46459
 Zero-point vibrational energy     429525.6 (Joules/Mol)
                                  102.65909 (Kcal/Mol)
 Warning -- explicit consideration of  15 degrees of freedom as
           vibrations may cause significant error
 Vibrational temperatures:     30.80    57.23    67.94   145.81   219.04
          (Kelvin)            267.38   332.97   334.73   379.71   427.84
                              486.95   555.03   658.08   695.28   823.88
                              899.19   948.80   996.86  1097.67  1173.78
                             1289.14  1300.04  1323.55  1365.46  1412.73
                             1420.07  1466.92  1537.40  1630.23  1644.07
                             1729.91  1768.68  1860.37  1892.83  1929.08
                             1937.32  2017.84  2046.12  2063.76  2087.06
                             2167.18  2183.83  2187.47  2202.24  2209.13
                             2243.06  2350.96  3262.51  4367.49  4396.78
                             4406.55  4418.05  4494.42  4506.79  4514.33
                             4522.10  4565.72

 Zero-point correction=                           0.163598 (Hartree/Particle)
 Thermal correction to Energy=                    0.175332
 Thermal correction to Enthalpy=                  0.176276
 Thermal correction to Gibbs Free Energy=         0.123532
 Sum of electronic and zero-point Energies=           -582.808582
 Sum of electronic and thermal Energies=              -582.796848
 Sum of electronic and thermal Enthalpies=            -582.795904
 Sum of electronic and thermal Free Energies=         -582.848648

                     E (Thermal)             CV                S
                      KCal/Mol        Cal/Mol-Kelvin    Cal/Mol-Kelvin
 Total                  110.023             41.153            111.009
 Electronic               0.000              0.000              0.000
 Translational            0.889              2.981             41.248
 Rotational               0.889              2.981             30.903
 Vibrational            108.245             35.192             38.858
 Vibration     1          0.593              1.985              6.499
 Vibration     2          0.594              1.981              5.270
 Vibration     3          0.595              1.979              4.931
 Vibration     4          0.604              1.948              3.428
 Vibration     5          0.619              1.900              2.644
 Vibration     6          0.632              1.859              2.269
 Vibration     7          0.653              1.793              1.868
 Vibration     8          0.653              1.791              1.858
 Vibration     9          0.670              1.739              1.636
 Vibration    10          0.691              1.679              1.432
 Vibration    11          0.719              1.599              1.219
 Vibration    12          0.754              1.501              1.016
 Vibration    13          0.816              1.345              0.774
 Vibration    14          0.839              1.287              0.701
 Vibration    15          0.929              1.090              0.499

 Optimization completed.
    -- Stationary point found.
 Normal termination of Gaussian 16 at Wed Dec  9 16:51:58 2020.

 ----------------------------------------------------------------------
 # B3LYP/6-311++G(d,p) empiricaldispersion=gd3bj scf=xqc pop=npa geom=c
 heck
 ----------------------------------------------------------------------

 --------------------------------------
 CID_61375733_JID_2023_Energie_neutraal
 --------------------------------------
 Structure from the checkpoint file:  "JID_2023.chk"
 Charge =  0 Multiplicity = 1

 SCF Done:  E(RB3LYP) =  -583.130633820     A.U. after   16 cycles
 Normal termination of Gaussian 16 at Wed Dec  9 16:53:30 2020.

 ----------------------------------------------------------------------
 # B3LYP/6-311++G(d,p) empiricaldispersion=gd3bj scf=xqc pop=npa geom=c
 heck
 ----------------------------------------------------------------------

 ------------------------------------
 CID_61375733_JID_2023_Energie_kation
 ------------------------------------
 Structure from the checkpoint file:  "JID_2023.chk"
 Charge =  1 Multiplicity = 2

 SCF Done:  E(UB3LYP) =  -582.772014195     A.U. after   28 cycles
 Normal termination of Gaussian 16 at Wed Dec  9 16:56:53 2020.
 Gaussian 16:  ES64L-G16RevA.03 25-Dec-2016

 ----------------------------------------------------------------------
 # B3LYP/6-311++G(d,p) empiricaldispersion=gd3bj scf=xqc pop=npa geom=c
 heck
 ----------------------------------------------------------------------

 -----------------------------------
 CID_61375733_JID_2023_Energie_anion
 -----------------------------------
 Structure from the checkpoint file:  "JID_2023.chk"
 Charge = -1 Multiplicity = 2

                         Standard orientation:
 ---------------------------------------------------------------------
 Center     Atomic      Atomic             Coordinates (Angstroms)
 Number     Number       Type             X           Y           Z
 ---------------------------------------------------------------------
      1          6           0       -3.673378   -0.114783    0.140092
      2          6           0       -2.399581    0.536350   -0.407785
      3          6           0       -2.153979    1.928717    0.203285
      4          6           0       -1.186531   -0.322126   -0.199954
      5          7           0       -1.195510   -1.439165    0.486767
      6          8           0        0.148832   -1.868203    0.436940
      7          6           0        0.809221   -0.951663   -0.286062
      8          7           0        0.056288    0.019563   -0.708785
      9          6           0        2.288638   -1.089308   -0.457529
     10          7           0        3.035241   -0.166500    0.429226
     11          7           0        2.835746    1.038833    0.211962
     12          7           0        2.744503    2.171136    0.125334
     13          1           0       -3.602291   -0.258734    1.223076
     14          1           0       -3.851809   -1.093627   -0.314649
     15          1           0       -4.536204    0.526998   -0.065079
     16          1           0       -2.499943    0.662317   -1.494929
     17          1           0       -2.062427    1.858366    1.293106
     18          1           0       -1.236650    2.375065   -0.190745
     19          1           0       -2.993925    2.592557   -0.026442
     20          1           0        2.606397   -2.092430   -0.174920
     21          1           0        2.545978   -0.915082   -1.508736
 ---------------------------------------------------------------------

 SCF Done:  E(UB3LYP) =  -583.129184906     A.U. after   33 cycles
 SCF Done:  E(UB3LYP) =  -583.129184906     a.u. after    1 cycles

 The electronic state is 2-A.
 Alpha  occ. eigenvalues --  -19.07658 -14.31284 -14.22609 -14.21986 -14.21585
 Alpha  occ. eigenvalues --  -14.18297 -10.13140 -10.10709 -10.10210 -10.07822
 Alpha  occ. eigenvalues --  -10.05279 -10.05180  -1.02780  -0.98770  -0.83425
 Alpha  occ. eigenvalues --   -0.80651  -0.74728  -0.68273  -0.63172  -0.57932
 Alpha  occ. eigenvalues --   -0.52955  -0.49395  -0.45497  -0.41410  -0.39247
 Alpha  occ. eigenvalues --   -0.37507  -0.36204  -0.35397  -0.33895  -0.32061
 Alpha  occ. eigenvalues --   -0.31268  -0.30527  -0.28967  -0.28755  -0.27787
 Alpha  occ. eigenvalues --   -0.24600  -0.23911  -0.23551  -0.21206  -0.19508
 Alpha  occ. eigenvalues --   -0.17926  -0.16751  -0.15552  -0.11809   0.05124
 Alpha virt. eigenvalues --    0.06814   0.08601   0.09512   0.09811   0.10547
 Alpha virt. eigenvalues --    0.11046   0.11720   0.12937   0.13573   0.13734
 Alpha virt. eigenvalues --    0.14290   0.14956   0.15772   0.16819   0.17379

  Beta  occ. eigenvalues --  -19.07432 -14.30959 -14.22410 -14.21604 -14.21499
  Beta  occ. eigenvalues --  -14.18280 -10.12905 -10.10700 -10.10095 -10.07825
  Beta  occ. eigenvalues --  -10.05260 -10.05160  -1.02425  -0.98108  -0.83063
  Beta  occ. eigenvalues --   -0.80467  -0.74405  -0.68185  -0.62776  -0.57888
  Beta  occ. eigenvalues --   -0.52852  -0.49058  -0.45292  -0.41018  -0.38933
  Beta  occ. eigenvalues --   -0.36776  -0.35629  -0.34857  -0.33500  -0.31897
  Beta  occ. eigenvalues --   -0.30571  -0.30173  -0.28722  -0.28104  -0.27696
  Beta  occ. eigenvalues --   -0.24473  -0.23858  -0.23489  -0.20953  -0.18796
  Beta  occ. eigenvalues --   -0.17142  -0.16455  -0.14625  -0.11612
  Beta virt. eigenvalues --    0.07612   0.08773   0.09795   0.10109   0.10461
  Beta virt. eigenvalues --    0.11302   0.11778   0.12403   0.13053   0.13760
  Beta virt. eigenvalues --    0.14067   0.14266   0.15112   0.15850   0.17023

 Mulliken charges and spin densities:
               1          2
     1  C    0.256625  -1.037736
     2  C   -2.327019   3.113583
     3  C   -0.031883  -0.531358
     4  C    1.251141  -1.398867
     5  N   -0.432117   0.085750
     6  O    0.203699   0.043040
     7  C   -0.088718   0.199314
     8  N   -0.044415   0.013839
     9  C    0.698337  -1.512880
    10  N   -0.338455   0.019458
    11  N    0.372829   0.099812
    12  N   -0.328278   0.281299
    13  H    0.150333   0.006801
    14  H    0.045110   0.104265
    15  H   -0.505201   0.661349
    16  H    0.021423   0.152351
    17  H    0.057311   0.076964
    18  H    0.213168  -0.051185
    19  H   -0.352424   0.505270
    20  H    0.011642   0.166114
    21  H    0.166892   0.002817
 Sum of Mulliken charges =  -1.00000   1.00000

 Dipole moment (field-independent basis, Debye):
    X=              1.1980    Y=             -2.2990    Z=             -0.8732  Tot=              2.7356
 Quadrupole moment (field-independent basis, Debye-Ang):
   XX=           -128.5351   YY=           -102.0281   ZZ=            -82.5488
   XY=             -0.9328   XZ=             -4.6669   YZ=              3.1152

 Summary of Natural Population Analysis:

                                       Natural Population
                Natural  -----------------------------------------------
    Atom  No    Charge         Core      Valence    Rydberg      Total
 -----------------------------------------------------------------------
      C    1   -0.28343      0.99966     2.27699    0.00679     3.28343
      C    2   -0.13132      0.99957     2.12206    0.00970     3.13132
      C    3   -0.28058      0.99965     2.27485    0.00608     3.28058
      C    4    0.17510      0.99962     1.80643    0.01884     2.82490
      N    5   -0.07918      0.99965     2.56795    0.01158     3.57918
      O    6   -0.15629      0.99985     3.14707    0.00938     4.15629
      C    7    0.30960      0.99962     1.67138    0.01940     2.69040
      N    8   -0.27811      0.99967     2.76929    0.00915     3.77811
      C    9   -0.10877      0.99955     2.09803    0.01119     3.10877
      N   10   -0.22011      0.99973     2.70521    0.01518     3.72011
      N   11    0.13589      0.99970     2.34745    0.01696     3.36411
      N   12    0.01206      0.99982     2.47546    0.01266     3.48794
      H   13    0.10058      0.00000     0.39828    0.00113     0.39942
      H   14    0.10276      0.00000     0.39615    0.00108     0.39724
      H   15    0.09728      0.00000     0.40161    0.00111     0.40272
      H   16    0.10239      0.00000     0.39559    0.00203     0.39761
      H   17    0.09637      0.00000     0.40277    0.00086     0.40363
      H   18    0.10961      0.00000     0.38931    0.00108     0.39039
      H   19    0.09690      0.00000     0.40191    0.00119     0.40310
      H   20    0.10297      0.00000     0.39502    0.00201     0.39703
      H   21    0.09628      0.00000     0.40218    0.00154     0.40372
 =======================================================================
   * Total *    0.00000     11.99609    31.84499    0.15893    44.00000

 Normal termination of Gaussian 16 at Wed Dec  9 17:01:53 2020.
