 Gaussian 16, Revision A.03,

 -----------------------------------------------------------
 # opt freq B3LYP/6-31G(d) empiricaldispersion=gd3bj scf=xqc
 -----------------------------------------------------------

 -------------------------------
 CID_141229310_JID_1837_neutraal
 -------------------------------
 Symbolic Z-matrix:
 Charge =  0 Multiplicity = 1

 SCF Done:  E(RB3LYP) =  -500.603252345     A.U. after   14 cycles
 SCF Done:  E(RB3LYP) =  -500.613808717     A.U. after   12 cycles
 SCF Done:  E(RB3LYP) =  -500.615297561     A.U. after   12 cycles
 SCF Done:  E(RB3LYP) =  -500.615712959     A.U. after   11 cycles
 SCF Done:  E(RB3LYP) =  -500.616004344     A.U. after   11 cycles
 SCF Done:  E(RB3LYP) =  -500.616167191     A.U. after   11 cycles
 SCF Done:  E(RB3LYP) =  -500.616478019     A.U. after   11 cycles
 SCF Done:  E(RB3LYP) =  -500.616572796     A.U. after   11 cycles
 SCF Done:  E(RB3LYP) =  -500.616584589     A.U. after    9 cycles
 SCF Done:  E(RB3LYP) =  -500.616587935     A.U. after    9 cycles
 SCF Done:  E(RB3LYP) =  -500.616588592     A.U. after    8 cycles
 SCF Done:  E(RB3LYP) =  -500.616589160     A.U. after    7 cycles
 SCF Done:  E(RB3LYP) =  -500.616589279     A.U. after    7 cycles
 Optimization completed.
    -- Stationary point found.

 1\1\GINC-NODE312\FOpt\RB3LYP\6-31G(d)\C9H12O2\VSC10255\08-Dec-2020\0\\
 # opt freq B3LYP/6-31G(d) empiricaldispersion=gd3bj scf=xqc\\CID_14122
 9310_JID_1837_neutraal\\0,1\C,1.0848804783,0.0519586717,-0.1365392178\
 C,0.2071813197,1.1933352403,0.2858190381\C,-1.0333135119,1.0286694638,
 0.7980877378\C,-1.9443949444,2.1269165696,1.0820511681\C,-1.5767687567
 ,3.4028733001,0.8198819348\C,-0.2189886698,3.7307162515,0.3612698774\C
 ,0.7233742675,2.5746843423,0.127984625\O,0.8650222845,3.3641772034,1.2
 953369897\O,1.7889172345,2.6703349674,-0.7631876048\C,-0.0069422485,5.

 Normal termination of Gaussian 16 at Tue Dec  8 21:25:57 2020.

 --------------------------------------------------------------------
 #N Geom=AllCheck Guess=TCheck SCRF=Check GenChk RB3LYP/6-31G(d) Freq
 --------------------------------------------------------------------

 Structure from the checkpoint file:  "JID_1837.chk"
 -------------------------------
 CID_141229310_JID_1837_neutraal
 -------------------------------
 Charge =  0 Multiplicity = 1

 SCF Done:  E(RB3LYP) =  -500.616589279     A.U. after    1 cycles

  Exact polarizability: 117.937  -1.572 113.271  -1.188   0.226  59.820
 Approx polarizability: 171.336  -4.501 167.206  -4.138  -1.764  95.748

                      1                      2                      3
                      A                      A                      A
 Frequencies --    102.8692               143.8728               149.4489
 Red. masses --      3.3721                 1.0441                 1.3766
 Frc consts  --      0.0210                 0.0127                 0.0181
 IR Inten    --      0.0621                 0.1730                 1.9350

                      4                      5                      6
                      A                      A                      A
 Frequencies --    159.1974               184.2260               213.7578
 Red. masses --      1.6400                 1.4148                 1.8459
 Frc consts  --      0.0245                 0.0283                 0.0497
 IR Inten    --      1.3078                 0.5262                 0.4900

                      7                      8                      9
                      A                      A                      A
 Frequencies --    231.2880               270.5725               282.2041
 Red. masses --      1.9829                 2.5016                 2.3301
 Frc consts  --      0.0625                 0.1079                 0.1093
 IR Inten    --     55.0834                 4.6754                14.1829

                     10                     11                     12
                      A                      A                      A
 Frequencies --    326.4893               345.0284               411.1202
 Red. masses --      2.0027                 4.2401                 5.1900
 Frc consts  --      0.1258                 0.2974                 0.5168
 IR Inten    --     19.8715                 7.7060                 7.6794

                     13                     14                     15
                      A                      A                      A
 Frequencies --    418.1816               500.9386               515.2704
 Red. masses --      3.1203                 3.8670                 4.0209
 Frc consts  --      0.3215                 0.5717                 0.6290
 IR Inten    --      0.5175                 2.9472                15.0518

                     16                     17                     18
                      A                      A                      A
 Frequencies --    551.6364               571.7497               587.5311
 Red. masses --      3.3980                 3.5816                 4.3521
 Frc consts  --      0.6092                 0.6898                 0.8851
 IR Inten    --      1.0451                 2.6836                15.8068

                     19                     20                     21
                      A                      A                      A
 Frequencies --    656.2172               690.8045               768.5503
 Red. masses --      3.2115                 5.2262                 4.4225
 Frc consts  --      0.8148                 1.4694                 1.5391
 IR Inten    --      2.6542                 7.9997                 0.9521

                     22                     23                     24
                      A                      A                      A
 Frequencies --    798.0994               877.9994               903.9486
 Red. masses --      2.0987                 1.9988                 1.6672
 Frc consts  --      0.7876                 0.9078                 0.8027
 IR Inten    --     10.1332                29.1015                40.5025

                     25                     26                     27
                      A                      A                      A
 Frequencies --    952.2770               960.0513              1029.0329
 Red. masses --      2.5172                 2.8617                 2.0767
 Frc consts  --      1.3449                 1.5541                 1.2956
 IR Inten    --      3.1631                 7.1200                 6.1729

                     28                     29                     30
                      A                      A                      A
 Frequencies --   1035.4120              1058.3716              1077.5001
 Red. masses --      1.7978                 1.4398                 1.5328
 Frc consts  --      1.1356                 0.9502                 1.0485
 IR Inten    --     28.2964                 8.7652                 5.1841

                     31                     32                     33
                      A                      A                      A
 Frequencies --   1081.5842              1098.5944              1149.5293
 Red. masses --      1.5243                 1.6706                 2.5547
 Frc consts  --      1.0506                 1.1880                 1.9890
 IR Inten    --      0.2364                30.2942                82.5353

                     34                     35                     36
                      A                      A                      A
 Frequencies --   1204.8892              1234.5044              1272.3912
 Red. masses --      1.8560                 2.2916                 3.1301
 Frc consts  --      1.5876                 2.0577                 2.9857
 IR Inten    --    126.7507                14.1067                 3.6190

                     37                     38                     39
                      A                      A                      A
 Frequencies --   1343.6874              1362.3729              1409.7934
 Red. masses --      2.2747                 2.7878                 2.0685
 Frc consts  --      2.4197                 3.0486                 2.4223
 IR Inten    --      7.1525                54.9436                15.6985

                     40                     41                     42
                      A                      A                      A
 Frequencies --   1438.6694              1442.1406              1444.1371
 Red. masses --      1.4029                 1.2784                 1.2852
 Frc consts  --      1.7108                 1.5665                 1.5792
 IR Inten    --      6.0901                 0.8321                 1.1541

                     43                     44                     45
                      A                      A                      A
 Frequencies --   1460.3009              1502.6469              1510.1902
 Red. masses --      2.2642                 1.0480                 1.0456
 Frc consts  --      2.8448                 1.3942                 1.4051
 IR Inten    --      4.3403                 6.8781                 6.8489

                     46                     47                     48
                      A                      A                      A
 Frequencies --   1513.2134              1517.5186              1522.6184
 Red. masses --      1.0506                 1.0959                 1.0553
 Frc consts  --      1.4174                 1.4869                 1.4415
 IR Inten    --      3.2523                11.9821                10.1852

                     49                     50                     51
                      A                      A                      A
 Frequencies --   1524.4032              1648.0596              1727.2986
 Red. masses --      1.1043                 6.7488                 6.2929
 Frc consts  --      1.5120                10.7999                11.0620
 IR Inten    --      7.5076                 8.8440                 8.6146

                     52                     53                     54
                      A                      A                      A
 Frequencies --   3038.7532              3046.7599              3058.1386
 Red. masses --      1.0380                 1.0369                 1.0369
 Frc consts  --      5.6473                 5.6710                 5.7135
 IR Inten    --     29.6730                25.5016                20.6102

                     55                     56                     57
                      A                      A                      A
 Frequencies --   3088.1710              3099.8974              3120.9367
 Red. masses --      1.1004                 1.0986                 1.1023
 Frc consts  --      6.1830                 6.2197                 6.3258
 IR Inten    --     20.5971                14.3930                17.5543

                     58                     59                     60
                      A                      A                      A
 Frequencies --   3130.5789              3131.9697              3145.7944
 Red. masses --      1.1003                 1.1030                 1.1005
 Frc consts  --      6.3537                 6.3747                 6.4164
 IR Inten    --     16.9901                18.8883                14.8667

                     61                     62                     63
                      A                      A                      A
 Frequencies --   3168.5631              3173.4522              3747.1181
 Red. masses --      1.0895                 1.0902                 1.0651
 Frc consts  --      6.4449                 6.4689                 8.8114
 IR Inten    --     26.0193                13.3222                45.1577

 - Thermochemistry -
 -------------------
 Temperature   298.150 Kelvin.  Pressure   1.00000 Atm.
 Atom     1 has atomic number  6 and mass  12.00000

 Molecular mass:   152.08373 amu.
 Principal axes and moments of inertia in atomic units:
                           1         2         3
     Eigenvalues --  1211.587401598.341892548.38372
           X            0.99995   0.00935   0.00235
           Y           -0.00937   0.99989   0.01151
           Z           -0.00224  -0.01153   0.99993
 This molecule is an asymmetric top.
 Rotational symmetry number  1.
 Warning -- assumption of classical behavior for rotation
           may cause significant error
 Rotational temperatures (Kelvin)      0.07149     0.05419     0.03399
 Rotational constants (GHZ):           1.48957     1.12913     0.70819
 Zero-point vibrational energy     503223.0 (Joules/Mol)
                                  120.27319 (Kcal/Mol)
 Warning -- explicit consideration of  18 degrees of freedom as
           vibrations may cause significant error
 Vibrational temperatures:    148.01   207.00   215.02   229.05   265.06
          (Kelvin)            307.55   332.77   389.29   406.03   469.75
                              496.42   591.51   601.67   720.74   741.36
                              793.68   822.62   845.33   944.15   993.91
                             1105.77  1148.29  1263.25  1300.58  1370.11
                             1381.30  1480.55  1489.73  1522.76  1550.28
                             1556.16  1580.63  1653.92  1733.57  1776.18
                             1830.69  1933.27  1960.15  2028.38  2069.92
                             2074.92  2077.79  2101.05  2161.97  2172.83
                             2177.18  2183.37  2190.71  2193.28  2371.19
                             2485.20  4372.09  4383.61  4399.98  4443.19
                             4460.06  4490.33  4504.20  4506.21  4526.10
                             4558.86  4565.89  5391.27

 Zero-point correction=                           0.191668 (Hartree/Particle)
 Thermal correction to Energy=                    0.202942
 Thermal correction to Enthalpy=                  0.203886
 Thermal correction to Gibbs Free Energy=         0.155841
 Sum of electronic and zero-point Energies=           -500.424922
 Sum of electronic and thermal Energies=              -500.413647
 Sum of electronic and thermal Enthalpies=            -500.412703
 Sum of electronic and thermal Free Energies=         -500.460748

                     E (Thermal)             CV                S
                      KCal/Mol        Cal/Mol-Kelvin    Cal/Mol-Kelvin
 Total                  127.348             43.244            101.120
 Electronic               0.000              0.000              0.000
 Translational            0.889              2.981             40.968
 Rotational               0.889              2.981             29.980
 Vibrational            125.571             37.283             30.172
 Vibration     1          0.605              1.947              3.399
 Vibration     2          0.616              1.909              2.752
 Vibration     3          0.618              1.903              2.679
 Vibration     4          0.621              1.892              2.559
 Vibration     5          0.631              1.861              2.285
 Vibration     6          0.644              1.820              2.011
 Vibration     7          0.653              1.793              1.869
 Vibration     8          0.674              1.727              1.593
 Vibration     9          0.681              1.707              1.520
 Vibration    10          0.710              1.623              1.277
 Vibration    11          0.723              1.585              1.189
 Vibration    12          0.775              1.446              0.923
 Vibration    13          0.781              1.431              0.898
 Vibration    14          0.856              1.248              0.656
 Vibration    15          0.870              1.216              0.621
 Vibration    16          0.907              1.136              0.541
 Vibration    17          0.928              1.092              0.501
 Vibration    18          0.945              1.058              0.472

 Optimization completed.
    -- Stationary point found.

 1\1\GINC-NODE312\Freq\RB3LYP\6-31G(d)\C9H12O2\VSC10255\08-Dec-2020\0\\
 #N Geom=AllCheck Guess=TCheck SCRF=Check GenChk RB3LYP/6-31G(d) Freq\\
 CID_141229310_JID_1837_neutraal\\0,1\C,1.0848804783,0.0519586717,-0.13
 65392178\C,0.2071813197,1.1933352403,0.2858190381\C,-1.0333135119,1.02
 86694638,0.7980877378\C,-1.9443949444,2.1269165696,1.0820511681\C,-1.5
 767687567,3.4028733001,0.8198819348\C,-0.2189886698,3.7307162515,0.361
 2698774\C,0.7233742675,2.5746843423,0.127984625\O,0.8650222845,3.36417
 72034,1.2953369897\O,1.7889172345,2.6703349674,-0.7631876048\C,-0.0069

 Normal termination of Gaussian 16 at Tue Dec  8 21:34:24 2020.

 ----------------------------------------------------------------------
 # B3LYP/6-311++G(d,p) empiricaldispersion=gd3bj scf=xqc pop=npa geom=c
 heck
 ----------------------------------------------------------------------

 ---------------------------------------
 CID_141229310_JID_1837_Energie_neutraal
 ---------------------------------------
 Structure from the checkpoint file:  "JID_1837.chk"
 Charge =  0 Multiplicity = 1

 SCF Done:  E(RB3LYP) =  -500.762165707     A.U. after   14 cycles
 Normal termination of Gaussian 16 at Tue Dec  8 21:36:36 2020.

 ----------------------------------------------------------------------
 # B3LYP/6-311++G(d,p) empiricaldispersion=gd3bj scf=xqc pop=npa geom=c
 heck
 ----------------------------------------------------------------------

 -------------------------------------
 CID_141229310_JID_1837_Energie_kation
 -------------------------------------
 Structure from the checkpoint file:  "JID_1837.chk"
 Charge =  1 Multiplicity = 2

 SCF Done:  E(UB3LYP) =  -500.461846698     A.U. after   21 cycles
 Normal termination of Gaussian 16 at Tue Dec  8 21:41:38 2020.
 Gaussian 16:  ES64L-G16RevA.03 25-Dec-2016

 ------------------------------------
 CID_141229310_JID_1837_Energie_anion
 ------------------------------------
 Structure from the checkpoint file:  "JID_1837.chk"
 Charge = -1 Multiplicity = 2

                         Standard orientation:
 ---------------------------------------------------------------------
 Center     Atomic      Atomic             Coordinates (Angstroms)
 Number     Number       Type             X           Y           Z
 ---------------------------------------------------------------------
      1          6           0       -0.921092    2.674408   -0.172620
      2          6           0       -0.224248    1.352628   -0.035553
      3          6           0        1.121139    1.218539   -0.017781
      4          6           0        1.807096   -0.064534   -0.023930
      5          6           0        1.097858   -1.216602   -0.064787
      6          6           0       -0.369924   -1.216699    0.018807
      7          6           0       -1.052930    0.128144    0.080288
      8          8           0       -0.928274   -0.644409    1.260838
      9          8           0       -2.363357    0.301635   -0.357203
     10          6           0       -1.107286   -2.432869   -0.481517
     11          6           0        3.313136   -0.052294   -0.059825
     12          1           0       -1.512780    2.716545   -1.094117
     13          1           0       -0.198785    3.496025   -0.184143
     14          1           0       -1.625296    2.836017    0.653076
     15          1           0        1.738235    2.113887   -0.063490
     16          1           0        1.603362   -2.171175   -0.193200
     17          1           0       -2.911786   -0.237217    0.235264
     18          1           0       -0.701026   -2.744385   -1.449872
     19          1           0       -0.998525   -3.266308    0.221607
     20          1           0       -2.171641   -2.225052   -0.614934
     21          1           0        3.721563   -1.063495   -0.144579
     22          1           0        3.685321    0.540661   -0.905084
     23          1           0        3.721914    0.402361    0.851895
 ---------------------------------------------------------------------

 SCF Done:  E(UB3LYP) =  -500.749402230     A.U. after   33 cycles
 SCF Done:  E(UB3LYP) =  -500.749402230     a.u. after    1 cycles

 The electronic state is 2-A.
 Alpha  occ. eigenvalues --  -19.01433 -18.99523 -10.14152 -10.09423 -10.04364
 Alpha  occ. eigenvalues --  -10.04192 -10.04084 -10.03501 -10.02875 -10.02267
 Alpha  occ. eigenvalues --  -10.01288  -0.96619  -0.89132  -0.69636  -0.65163
 Alpha  occ. eigenvalues --   -0.62560  -0.57124  -0.54867  -0.52956  -0.45927
 Alpha  occ. eigenvalues --   -0.44102  -0.40178  -0.37198  -0.34950  -0.32409
 Alpha  occ. eigenvalues --   -0.30520  -0.29947  -0.29242  -0.28498  -0.28311
 Alpha  occ. eigenvalues --   -0.28121  -0.26856  -0.25512  -0.23915  -0.22714
 Alpha  occ. eigenvalues --   -0.21543  -0.21411  -0.18693  -0.14258  -0.12260
 Alpha  occ. eigenvalues --   -0.08780   0.05657
 Alpha virt. eigenvalues --    0.08004   0.08222   0.08671   0.09988   0.10624
 Alpha virt. eigenvalues --    0.11336   0.12036   0.12417   0.12920   0.13027
 Alpha virt. eigenvalues --    0.14917   0.15340   0.16232   0.16934   0.17712

  Beta  occ. eigenvalues --  -19.01421 -18.99385 -10.14166 -10.09406 -10.04338
  Beta  occ. eigenvalues --  -10.04184 -10.04102 -10.03392 -10.02557 -10.02219
  Beta  occ. eigenvalues --  -10.01093  -0.96413  -0.88968  -0.69254  -0.64826
  Beta  occ. eigenvalues --   -0.62420  -0.57021  -0.54628  -0.52799  -0.45806
  Beta  occ. eigenvalues --   -0.43697  -0.40064  -0.37041  -0.34761  -0.32246
  Beta  occ. eigenvalues --   -0.30372  -0.29793  -0.29092  -0.28254  -0.28214
  Beta  occ. eigenvalues --   -0.28010  -0.26754  -0.25433  -0.23807  -0.22579
  Beta  occ. eigenvalues --   -0.21382  -0.21259  -0.18197  -0.13849  -0.11908
  Beta  occ. eigenvalues --   -0.07482
  Beta virt. eigenvalues --    0.07942   0.08594   0.08922   0.10280   0.10335
  Beta virt. eigenvalues --    0.10879   0.11507   0.12257   0.12644   0.12961
  Beta virt. eigenvalues --    0.13215   0.15006   0.15566   0.16237   0.17255

 Mulliken charges and spin densities:
               1          2
     1  C   -0.002235  -0.511291
     2  C    1.116777   0.062833
     3  C   -1.425723   0.713687
     4  C   -1.287944   2.236982
     5  C   -0.039148  -1.069283
     6  C   -0.699215   0.544390
     7  C   -0.076334   0.021887
     8  O   -0.022356  -0.030694
     9  O   -0.238380   0.014673
    10  C    1.631389  -2.166082
    11  C    0.698697  -1.155624
    12  H    0.000491   0.165337
    13  H    0.017696   0.104320
    14  H    0.109256   0.034345
    15  H    0.085182  -0.013201
    16  H   -0.089261   0.182141
    17  H    0.057813   0.219306
    18  H    0.019275   0.121826
    19  H   -0.435289   0.597267
    20  H   -0.120159   0.215408
    21  H   -0.326434   0.463643
    22  H    0.045299   0.080819
    23  H   -0.019396   0.167313
 Sum of Mulliken charges =  -1.00000   1.00000

 Dipole moment (field-independent basis, Debye):
    X=             -0.8846    Y=              3.1008    Z=             -1.1961  Tot=              3.4392
 Quadrupole moment (field-independent basis, Debye-Ang):
   XX=           -102.3005   YY=           -101.5450   ZZ=            -87.4322
   XY=              3.2577   XZ=             -3.4245   YZ=              4.9222

 Summary of Natural Population Analysis:

                                       Natural Population
                Natural  -----------------------------------------------
    Atom  No    Charge         Core      Valence    Rydberg      Total
 -----------------------------------------------------------------------
      C    1   -0.29283      0.99964     2.28843    0.00477     3.29283
      C    2    0.04146      0.99946     1.95042    0.00866     2.95854
      C    3   -0.10360      0.99946     2.09570    0.00844     3.10360
      C    4    0.00525      0.99951     1.98574    0.00951     2.99475
      C    5   -0.08313      0.99944     2.07344    0.01024     3.08313
      C    6    0.09454      0.99948     1.89053    0.01546     2.90546
      C    7    0.26149      0.99936     1.71826    0.02090     2.73851
      O    8   -0.28217      0.99991     3.27531    0.00695     4.28217
      O    9   -0.37083      0.99988     3.36446    0.00649     4.37083
      C   10   -0.29059      0.99962     2.28457    0.00639     3.29059
      C   11   -0.29075      0.99964     2.28541    0.00570     3.29075
      H   12    0.10616      0.00000     0.39206    0.00178     0.39384
      H   13    0.09388      0.00000     0.40515    0.00098     0.40612
      H   14    0.09981      0.00000     0.39878    0.00141     0.40019
      H   15    0.08735      0.00000     0.41120    0.00145     0.41265
      H   16    0.09156      0.00000     0.40730    0.00114     0.40844
      H   17    0.23388      0.00000     0.26279    0.00333     0.26612
      H   18    0.10162      0.00000     0.39738    0.00100     0.39838
      H   19    0.10370      0.00000     0.39463    0.00167     0.39630
      H   20    0.09880      0.00000     0.39965    0.00154     0.40120
      H   21    0.09947      0.00000     0.39962    0.00090     0.40053
      H   22    0.09550      0.00000     0.40349    0.00101     0.40450
      H   23    0.09945      0.00000     0.39940    0.00115     0.40055
 =======================================================================
   * Total *    0.00000     10.99540    29.88371    0.12088    41.00000

 Normal termination of Gaussian 16 at Tue Dec  8 21:48:13 2020.
