 Gaussian 16, Revision A.03,

 -----------------------------------------------------------
 # opt freq B3LYP/6-31G(d) empiricaldispersion=gd3bj scf=xqc
 -----------------------------------------------------------

 ------------------------------
 CID_59623247_JID_2202_neutraal
 ------------------------------
 Symbolic Z-matrix:
 Charge =  0 Multiplicity = 1

 SCF Done:  E(RB3LYP) =  -650.117550510     A.U. after   14 cycles
 SCF Done:  E(RB3LYP) =  -650.122213541     A.U. after   13 cycles
 SCF Done:  E(RB3LYP) =  -650.120804963     A.U. after   12 cycles
 SCF Done:  E(RB3LYP) =  -650.122434437     A.U. after   12 cycles
 SCF Done:  E(RB3LYP) =  -650.123755952     A.U. after   12 cycles
 SCF Done:  E(RB3LYP) =  -650.123005400     A.U. after   12 cycles
 SCF Done:  E(RB3LYP) =  -650.124183239     A.U. after   13 cycles
 SCF Done:  E(RB3LYP) =  -650.124279728     A.U. after   12 cycles
 SCF Done:  E(RB3LYP) =  -650.124373060     A.U. after   11 cycles
 SCF Done:  E(RB3LYP) =  -650.124418181     A.U. after   11 cycles
 SCF Done:  E(RB3LYP) =  -650.125028517     A.U. after   10 cycles
 SCF Done:  E(RB3LYP) =  -650.125032230     A.U. after    9 cycles
 SCF Done:  E(RB3LYP) =  -650.125034745     A.U. after   10 cycles
 SCF Done:  E(RB3LYP) =  -650.125035950     A.U. after    8 cycles
 SCF Done:  E(RB3LYP) =  -650.125036572     A.U. after    8 cycles
 SCF Done:  E(RB3LYP) =  -650.125036639     A.U. after    7 cycles
 Optimization completed.
    -- Stationary point found.

 1\1\GINC-NODE202\FOpt\RB3LYP\6-31G(d)\C7H12O5\VSC10255\09-Dec-2020\0\\
 # opt freq B3LYP/6-31G(d) empiricaldispersion=gd3bj scf=xqc\\CID_59623
 247_JID_2202_neutraal\\0,1\C,1.5395018705,0.0441038938,-0.3388744493\C
 ,0.6294774723,0.9047740697,-1.1735516052\O,-0.5530412729,0.7148420906,
 -1.3543403947\O,1.3284629198,1.9193052247,-1.7528698592\C,0.605357396,
 2.8396463068,-2.6005752442\C,1.3134412753,2.9734154225,-3.9409109895\O
 ,0.9879307202,1.9873838145,-4.9128171926\C,1.0970296298,0.6402787409,-
 4.5162688762\C,2.4712603113,0.1740507298,-4.047031258\O,2.6353510429,-

 Normal termination of Gaussian 16 at Wed Dec  9 17:01:10 2020.

 --------------------------------------------------------------------
 #N Geom=AllCheck Guess=TCheck SCRF=Check GenChk RB3LYP/6-31G(d) Freq
 --------------------------------------------------------------------

 Structure from the checkpoint file:  "JID_2202.chk"
 ------------------------------
 CID_59623247_JID_2202_neutraal
 ------------------------------
 Charge =  0 Multiplicity = 1

 SCF Done:  E(RB3LYP) =  -650.125036639     A.U. after    1 cycles

  Exact polarizability:  85.923  -1.469  92.383   7.136  -2.758  78.693
 Approx polarizability: 113.263  -4.940 128.819  16.636  -5.118 119.846

                      1                      2                      3
                      A                      A                      A
 Frequencies --     30.3821                45.5835                82.1860
 Red. masses --      5.0214                 7.5358                 4.4166
 Frc consts  --      0.0027                 0.0092                 0.0176
 IR Inten    --      0.8476                 1.4193                 0.7942

                      4                      5                      6
                      A                      A                      A
 Frequencies --     89.8395               109.7520               133.5337
 Red. masses --      4.3651                 1.3621                 2.0049
 Frc consts  --      0.0208                 0.0097                 0.0211
 IR Inten    --      1.0973                 2.5105                 2.0145

                      7                      8                      9
                      A                      A                      A
 Frequencies --    138.2642               162.6913               193.3091
 Red. masses --      1.3191                 2.7341                 4.5443
 Frc consts  --      0.0149                 0.0426                 0.1001
 IR Inten    --      0.2917                 2.1892                 2.0767

                     10                     11                     12
                      A                      A                      A
 Frequencies --    234.4444               271.0584               302.9464
 Red. masses --      3.8003                 3.0841                 2.6572
 Frc consts  --      0.1231                 0.1335                 0.1437
 IR Inten    --     19.9910                 7.7362                11.5360

                     13                     14                     15
                      A                      A                      A
 Frequencies --    344.5905               351.7839               431.4212
 Red. masses --      2.8953                 3.3843                 3.2906
 Frc consts  --      0.2026                 0.2468                 0.3609
 IR Inten    --      4.0560                15.0490                 5.7840

                     16                     17                     18
                      A                      A                      A
 Frequencies --    487.1831               528.8239               586.5973
 Red. masses --      3.7691                 3.0029                 3.4780
 Frc consts  --      0.5271                 0.4948                 0.7051
 IR Inten    --      2.2021                 8.8695                 6.6526

                     19                     20                     21
                      A                      A                      A
 Frequencies --    603.1276               644.1205               707.3248
 Red. masses --      2.8591                 4.5856                 4.1674
 Frc consts  --      0.6128                 1.1209                 1.2284
 IR Inten    --      6.1942                 3.9787                16.7774

                     22                     23                     24
                      A                      A                      A
 Frequencies --    813.8274               860.8566               880.6224
 Red. masses --      2.7237                 4.7449                 3.2660
 Frc consts  --      1.0628                 2.0718                 1.4923
 IR Inten    --     15.6482                15.0381                22.0404

                     25                     26                     27
                      A                      A                      A
 Frequencies --    951.0852              1019.7286              1025.1157
 Red. masses --      3.4373                 2.4311                 2.1189
 Frc consts  --      1.8319                 1.4894                 1.3119
 IR Inten    --     33.4111                 3.3542                13.0157

                     28                     29                     30
                      A                      A                      A
 Frequencies --   1043.9584              1065.0204              1085.4244
 Red. masses --      3.3083                 2.8785                 1.7306
 Frc consts  --      2.1243                 1.9237                 1.2013
 IR Inten    --     46.0911                39.4865                12.2724

                     31                     32                     33
                      A                      A                      A
 Frequencies --   1095.4878              1132.8796              1185.1924
 Red. masses --      2.9319                 2.4167                 2.8876
 Frc consts  --      2.0731                 1.8275                 2.3898
 IR Inten    --     56.4678                 0.7850                76.7715

                     34                     35                     36
                      A                      A                      A
 Frequencies --   1186.2873              1220.7142              1258.1030
 Red. masses --      1.5820                 1.5098                 2.2987
 Frc consts  --      1.3117                 1.3256                 2.1437
 IR Inten    --     37.6921                 6.4273               246.6117

                     37                     38                     39
                      A                      A                      A
 Frequencies --   1284.7160              1301.2466              1320.3739
 Red. masses --      1.3399                 2.2754                 1.4796
 Frc consts  --      1.3030                 2.2700                 1.5198
 IR Inten    --     21.6461               240.4849                78.9392

                     40                     41                     42
                      A                      A                      A
 Frequencies --   1351.4645              1401.6806              1409.3595
 Red. masses --      1.2747                 1.2635                 1.2789
 Frc consts  --      1.3717                 1.4626                 1.4967
 IR Inten    --     57.5983                12.9632                14.6810

                     43                     44                     45
                      A                      A                      A
 Frequencies --   1429.1756              1440.9303              1491.9793
 Red. masses --      1.3795                 1.3775                 1.2173
 Frc consts  --      1.6601                 1.6851                 1.5965
 IR Inten    --     44.0388                19.4153                 9.4286

                     46                     47                     48
                      A                      A                      A
 Frequencies --   1503.7067              1509.4173              1514.2885
 Red. masses --      1.0504                 1.0508                 1.0482
 Frc consts  --      1.3994                 1.4106                 1.4161
 IR Inten    --      5.8371                 8.7017                 5.1559

                     49                     50                     51
                      A                      A                      A
 Frequencies --   1517.6081              1520.6205              1523.3486
 Red. masses --      1.0871                 1.0895                 1.0470
 Frc consts  --      1.4752                 1.4844                 1.4316
 IR Inten    --      6.1807                 2.3033                 7.1675

                     52                     53                     54
                      A                      A                      A
 Frequencies --   1525.5308              1815.0582              1830.5465
 Red. masses --      1.0833                11.0055                10.7346
 Frc consts  --      1.4853                21.3620                21.1933
 IR Inten    --     11.4642               245.6403               168.2249

                     55                     56                     57
                      A                      A                      A
 Frequencies --   3054.3471              3067.0803              3075.8697
 Red. masses --      1.0621                 1.0590                 1.0367
 Frc consts  --      5.8378                 5.8694                 5.7787
 IR Inten    --     35.9464                15.6119                 8.3881

                     58                     59                     60
                      A                      A                      A
 Frequencies --   3077.6684              3079.1699              3105.6031
 Red. masses --      1.0650                 1.0297                 1.1057
 Frc consts  --      5.9435                 5.7519                 6.2831
 IR Inten    --     24.8137                26.4619                 7.0667

                     61                     62                     63
                      A                      A                      A
 Frequencies --   3113.1101              3146.9369              3154.0904
 Red. masses --      1.1010                 1.1006                 1.1010
 Frc consts  --      6.2870                 6.4215                 6.4534
 IR Inten    --     34.4287                 3.9337                 6.2042

                     64                     65                     66
                      A                      A                      A
 Frequencies --   3155.1931              3182.1859              3188.8358
 Red. masses --      1.1075                 1.1045                 1.1073
 Frc consts  --      6.4962                 6.5897                 6.6340
 IR Inten    --     20.8880                 6.9540                14.9199

 - Thermochemistry -
 -------------------
 Temperature   298.150 Kelvin.  Pressure   1.00000 Atm.
 Atom     1 has atomic number  6 and mass  12.00000

 Molecular mass:   176.06847 amu.
 Principal axes and moments of inertia in atomic units:
                           1         2         3
     Eigenvalues --  1516.172812395.473103098.69682
           X            0.99991   0.01039   0.00792
           Y           -0.01047   0.99990   0.00998
           Z           -0.00781  -0.01006   0.99992
 This molecule is an asymmetric top.
 Rotational symmetry number  1.
 Warning -- assumption of classical behavior for rotation
           may cause significant error
 Rotational temperatures (Kelvin)      0.05713     0.03616     0.02795
 Rotational constants (GHZ):           1.19033     0.75340     0.58242
 Zero-point vibrational energy     516753.3 (Joules/Mol)
                                  123.50701 (Kcal/Mol)
 Warning -- explicit consideration of  19 degrees of freedom as
           vibrations may cause significant error
 Vibrational temperatures:     43.71    65.58   118.25   129.26   157.91
          (Kelvin)            192.13   198.93   234.08   278.13   337.31
                              389.99   435.87   495.79   506.14   620.72
                              700.95   760.86   843.98   867.77   926.75
                             1017.68  1170.92  1238.58  1267.02  1368.40
                             1467.16  1474.91  1502.02  1532.33  1561.68
                             1576.16  1629.96  1705.23  1706.80  1756.34
                             1810.13  1848.42  1872.20  1899.72  1944.46
                             2016.71  2027.75  2056.26  2073.18  2146.63
                             2163.50  2171.71  2178.72  2183.50  2187.83
                             2191.76  2194.90  2611.46  2633.75  4394.52
                             4412.84  4425.49  4428.08  4430.24  4468.27
                             4479.07  4527.74  4538.03  4539.62  4578.46
                             4588.02

 Zero-point correction=                           0.196821 (Hartree/Particle)
 Thermal correction to Energy=                    0.210157
 Thermal correction to Enthalpy=                  0.211101
 Thermal correction to Gibbs Free Energy=         0.155661
 Sum of electronic and zero-point Energies=           -649.928216
 Sum of electronic and thermal Energies=              -649.914880
 Sum of electronic and thermal Enthalpies=            -649.913935
 Sum of electronic and thermal Free Energies=         -649.969376

                     E (Thermal)             CV                S
                      KCal/Mol        Cal/Mol-Kelvin    Cal/Mol-Kelvin
 Total                  131.876             46.100            116.684
 Electronic               0.000              0.000              0.000
 Translational            0.889              2.981             41.404
 Rotational               0.889              2.981             30.799
 Vibrational            130.098             40.138             44.481
 Vibration     1          0.594              1.984              5.804
 Vibration     2          0.595              1.979              5.000
 Vibration     3          0.600              1.961              3.838
 Vibration     4          0.602              1.956              3.664
 Vibration     5          0.606              1.941              3.273
 Vibration     6          0.613              1.920              2.895
 Vibration     7          0.614              1.915              2.828
 Vibration     8          0.623              1.888              2.518
 Vibration     9          0.635              1.849              2.196
 Vibration    10          0.654              1.788              1.845
 Vibration    11          0.675              1.727              1.589
 Vibration    12          0.694              1.668              1.401
 Vibration    13          0.723              1.586              1.191
 Vibration    14          0.728              1.572              1.158
 Vibration    15          0.792              1.402              0.854
 Vibration    16          0.843              1.278              0.691
 Vibration    17          0.884              1.186              0.590
 Vibration    18          0.944              1.060              0.473
 Vibration    19          0.962              1.025              0.444

                           ! Non-Optimized Parameters !

 1\1\GINC-NODE202\Freq\RB3LYP\6-31G(d)\C7H12O5\VSC10255\09-Dec-2020\0\\
 #N Geom=AllCheck Guess=TCheck SCRF=Check GenChk RB3LYP/6-31G(d) Freq\\
 CID_59623247_JID_2202_neutraal\\0,1\C,1.5395018705,0.0441038938,-0.338
 8744493\C,0.6294774723,0.9047740697,-1.1735516052\O,-0.5530412729,0.71
 48420906,-1.3543403947\O,1.3284629198,1.9193052247,-1.7528698592\C,0.6
 05357396,2.8396463068,-2.6005752442\C,1.3134412753,2.9734154225,-3.940
 9109895\O,0.9879307202,1.9873838145,-4.9128171926\C,1.0970296298,0.640
 2787409,-4.5162688762\C,2.4712603113,0.1740507298,-4.047031258\O,2.635

 Normal termination of Gaussian 16 at Wed Dec  9 17:06:30 2020.

 ----------------------------------------------------------------------
 # B3LYP/6-311++G(d,p) empiricaldispersion=gd3bj scf=xqc pop=npa geom=c
 heck
 ----------------------------------------------------------------------

 --------------------------------------
 CID_59623247_JID_2202_Energie_neutraal
 --------------------------------------
 Structure from the checkpoint file:  "JID_2202.chk"
 Charge =  0 Multiplicity = 1

 SCF Done:  E(RB3LYP) =  -650.324023286     A.U. after   14 cycles
 Normal termination of Gaussian 16 at Wed Dec  9 17:08:48 2020.

 ----------------------------------------------------------------------
 # B3LYP/6-311++G(d,p) empiricaldispersion=gd3bj scf=xqc pop=npa geom=c
 heck
 ----------------------------------------------------------------------

 ------------------------------------
 CID_59623247_JID_2202_Energie_kation
 ------------------------------------
 Structure from the checkpoint file:  "JID_2202.chk"
 Charge =  1 Multiplicity = 2

 SCF Done:  E(UB3LYP) =  -649.975441021     A.U. after   23 cycles
 Normal termination of Gaussian 16 at Wed Dec  9 17:14:20 2020.
 Gaussian 16:  ES64L-G16RevA.03 25-Dec-2016

 -----------------------------------
 CID_59623247_JID_2202_Energie_anion
 -----------------------------------
 Structure from the checkpoint file:  "JID_2202.chk"
 Charge = -1 Multiplicity = 2

                         Standard orientation:
 ---------------------------------------------------------------------
 Center     Atomic      Atomic             Coordinates (Angstroms)
 Number     Number       Type             X           Y           Z
 ---------------------------------------------------------------------
      1          6           0        1.929737   -2.134572   -0.382746
      2          6           0        2.074597   -0.668243   -0.075371
      3          8           0        2.741767   -0.196235    0.818610
      4          8           0        1.305285    0.075624   -0.916967
      5          6           0        1.318829    1.511367   -0.752735
      6          6           0       -0.107078    2.034577   -0.658828
      7          8           0       -0.694764    1.997747    0.635809
      8          6           0       -0.656553    0.766635    1.318998
      9          6           0       -1.333428   -0.416820    0.635377
     10          8           0       -1.068303   -1.572341    0.895208
     11          8           0       -2.279135   -0.041851   -0.241461
     12          6           0       -2.951738   -1.122970   -0.910132
     13          1           0        0.969319   -2.472878    0.020789
     14          1           0        2.739846   -2.686453    0.095339
     15          1           0        1.927806   -2.309127   -1.461834
     16          1           0        1.911570    1.774184    0.125449
     17          1           0        1.798406    1.922716   -1.647305
     18          1           0       -0.106813    3.095518   -0.927677
     19          1           0       -0.734153    1.497537   -1.381991
     20          1           0        0.361795    0.453831    1.576267
     21          1           0       -1.188265    0.937348    2.262503
     22          1           0       -2.234939   -1.720284   -1.479441
     23          1           0       -3.455363   -1.766023   -0.184430
     24          1           0       -3.674201   -0.649767   -1.574630
 ---------------------------------------------------------------------

 SCF Done:  E(UB3LYP) =  -650.309394325     A.U. after   31 cycles

 The electronic state is 2-A.
 Alpha  occ. eigenvalues --  -19.07706 -19.07275 -19.03932 -19.02188 -19.02088
 Alpha  occ. eigenvalues --  -10.21187 -10.20998 -10.13939 -10.13000 -10.12293
 Alpha  occ. eigenvalues --  -10.12128 -10.08013  -1.01937  -1.01229  -0.95110
 Alpha  occ. eigenvalues --   -0.93068  -0.92861  -0.69429  -0.66655  -0.63729
 Alpha  occ. eigenvalues --   -0.60508  -0.53927  -0.48165  -0.47059  -0.43118
 Alpha  occ. eigenvalues --   -0.42028  -0.40949  -0.39886  -0.39014  -0.37882
 Alpha  occ. eigenvalues --   -0.37028  -0.36266  -0.34063  -0.33314  -0.31915
 Alpha  occ. eigenvalues --   -0.31354  -0.29887  -0.28873  -0.28089  -0.27004
 Alpha  occ. eigenvalues --   -0.26002  -0.24170  -0.22081  -0.21454  -0.19426
 Alpha  occ. eigenvalues --   -0.18966  -0.17090   0.04579
 Alpha virt. eigenvalues --    0.06727   0.07460   0.07785   0.08831   0.09244
 Alpha virt. eigenvalues --    0.09783   0.09981   0.10430   0.10903   0.12171
 Alpha virt. eigenvalues --    0.12841   0.13460   0.13857   0.14558   0.15249

  Beta  occ. eigenvalues --  -19.07698 -19.07268 -19.03931 -19.02178 -19.02077
  Beta  occ. eigenvalues --  -10.21177 -10.20995 -10.13928 -10.12973 -10.12267
  Beta  occ. eigenvalues --  -10.12068 -10.07992  -1.01922  -1.01211  -0.95101
  Beta  occ. eigenvalues --   -0.93052  -0.92844  -0.69390  -0.66619  -0.63677
  Beta  occ. eigenvalues --   -0.60450  -0.53875  -0.48116  -0.47005  -0.43083
  Beta  occ. eigenvalues --   -0.41995  -0.40915  -0.39856  -0.38979  -0.37849
  Beta  occ. eigenvalues --   -0.36997  -0.36233  -0.34014  -0.33274  -0.31885
  Beta  occ. eigenvalues --   -0.31319  -0.29850  -0.28834  -0.28050  -0.26957
  Beta  occ. eigenvalues --   -0.25973  -0.24149  -0.22056  -0.21429  -0.19405
  Beta  occ. eigenvalues --   -0.18954  -0.17072
  Beta virt. eigenvalues --    0.07049   0.07769   0.08167   0.08369   0.09093
  Beta virt. eigenvalues --    0.09462   0.10427   0.10618   0.11250   0.11322
  Beta virt. eigenvalues --    0.12551   0.13298   0.13573   0.14008   0.14829

 Mulliken charges and spin densities:
               1          2
     1  C    0.306086  -0.781133
     2  C   -0.327228   0.385582
     3  O   -0.252972  -0.007757
     4  O    0.014912   0.029422
     5  C    0.951795  -1.186954
     6  C   -0.223566  -0.183728
     7  O   -0.078988   0.019686
     8  C    0.401240  -0.824153
     9  C   -0.528490   0.451048
    10  O   -0.245809   0.024183
    11  O   -0.100818   0.077148
    12  C    1.540566  -1.734857
    13  H    0.095874   0.117657
    14  H    0.088135   0.060502
    15  H   -0.230319   0.399078
    16  H    0.247525  -0.021332
    17  H   -0.742478   0.924537
    18  H   -0.656771   0.834667
    19  H    0.193291   0.021406
    20  H    0.160301   0.051725
    21  H   -0.056626   0.264976
    22  H   -0.470568   0.657014
    23  H   -0.404318   0.575454
    24  H   -0.680775   0.845830
 Sum of Mulliken charges =  -1.00000   1.00000

 Dipole moment (field-independent basis, Debye):
    X=              2.8951    Y=             -0.7479    Z=              4.4353  Tot=              5.3491
 Quadrupole moment (field-independent basis, Debye-Ang):
   XX=           -129.0828   YY=           -118.4264   ZZ=           -110.2625
   XY=            -10.2283   XZ=             -6.0636   YZ=              4.1908

 Summary of Natural Population Analysis:

                                       Natural Population
                Natural  -----------------------------------------------
    Atom  No    Charge         Core      Valence    Rydberg      Total
 -----------------------------------------------------------------------
      C    1   -0.33837      0.99960     2.33294    0.00583     3.33837
      C    2    0.41137      0.99971     1.56344    0.02549     2.58863
      O    3   -0.31082      0.99987     3.30552    0.00543     4.31082
      O    4   -0.28961      0.99986     3.27821    0.01154     4.28961
      C    5   -0.03700      0.99955     2.02575    0.01170     3.03700
      C    6   -0.02408      0.99956     2.01086    0.01365     3.02408
      O    7   -0.29205      0.99989     3.28289    0.00927     4.29205
      C    8   -0.05776      0.99953     2.04555    0.01269     3.05776
      C    9    0.39651      0.99970     1.57811    0.02568     2.60349
      O   10   -0.31055      0.99987     3.30443    0.00625     4.31055
      O   11   -0.27276      0.99986     3.26289    0.01001     4.27276
      C   12   -0.10442      0.99959     2.09551    0.00931     3.10442
      H   13    0.12989      0.00000     0.36897    0.00115     0.37011
      H   14    0.10641      0.00000     0.39287    0.00072     0.39359
      H   15    0.11304      0.00000     0.38579    0.00117     0.38696
      H   16    0.10305      0.00000     0.39554    0.00141     0.39695
      H   17    0.10028      0.00000     0.39636    0.00336     0.39972
      H   18    0.09806      0.00000     0.39969    0.00226     0.40194
      H   19    0.09286      0.00000     0.40489    0.00225     0.40714
      H   20    0.09800      0.00000     0.40048    0.00152     0.40200
      H   21    0.10444      0.00000     0.39431    0.00125     0.39556
      H   22    0.09509      0.00000     0.40243    0.00248     0.40491
      H   23    0.09230      0.00000     0.40588    0.00182     0.40770
      H   24    0.09614      0.00000     0.40151    0.00235     0.40386
 =======================================================================
   * Total *    0.00000     11.99658    34.83482    0.16860    47.00000

 Normal termination of Gaussian 16 at Wed Dec  9 17:21:18 2020.
