 Gaussian 16, Revision A.03,

 -----------------------------------------------------------
 # opt freq B3LYP/6-31G(d) empiricaldispersion=gd3bj scf=xqc
 -----------------------------------------------------------

 -----------------------------
 CID_129812843_JID_69_neutraal
 -----------------------------
 Symbolic Z-matrix:
 Charge =  0 Multiplicity = 1

 SCF Done:  E(RB3LYP) =  -497.196882869     A.U. after   15 cycles
 SCF Done:  E(RB3LYP) =  -497.205225199     A.U. after   13 cycles
 SCF Done:  E(RB3LYP) =  -497.206110159     A.U. after   13 cycles
 SCF Done:  E(RB3LYP) =  -497.206872774     A.U. after   12 cycles
 SCF Done:  E(RB3LYP) =  -497.207079536     A.U. after   12 cycles
 SCF Done:  E(RB3LYP) =  -497.207275041     A.U. after   13 cycles
 SCF Done:  E(RB3LYP) =  -497.207654086     A.U. after   14 cycles
 SCF Done:  E(RB3LYP) =  -497.207953689     A.U. after   13 cycles
 SCF Done:  E(RB3LYP) =  -497.209570555     A.U. after   15 cycles
 SCF Done:  E(RB3LYP) =  -497.210113169     A.U. after   13 cycles
 SCF Done:  E(RB3LYP) =  -497.213523742     A.U. after   12 cycles
 SCF Done:  E(RB3LYP) =  -497.213559449     A.U. after   12 cycles
 SCF Done:  E(RB3LYP) =  -497.213568351     A.U. after    9 cycles
 SCF Done:  E(RB3LYP) =  -497.213569603     A.U. after    8 cycles
 SCF Done:  E(RB3LYP) =  -497.213569812     A.U. after    7 cycles
 SCF Done:  E(RB3LYP) =  -497.213569908     A.U. after    7 cycles
 Optimization completed.
    -- Stationary point found.
 Normal termination of Gaussian 16 at Tue Dec  8 10:18:33 2020.

 --------------------------------------------------------------------
 #N Geom=AllCheck Guess=TCheck SCRF=Check GenChk RB3LYP/6-31G(d) Freq
 --------------------------------------------------------------------

 Structure from the checkpoint file:  "JID_69.chk"
 -----------------------------
 CID_129812843_JID_69_neutraal
 -----------------------------
 Charge =  0 Multiplicity = 1

 SCF Done:  E(RB3LYP) =  -497.213569908     A.U. after    1 cycles

  Exact polarizability:  87.647   7.139  74.948   0.629   1.981  62.494
 Approx polarizability: 121.989  15.804 112.438   6.634   8.694 105.718

                      1                      2                      3
                      A                      A                      A
 Frequencies --     66.1011               106.4656               157.1479
 Red. masses --      8.3092                 3.8115                 2.9248
 Frc consts  --      0.0214                 0.0255                 0.0426
 IR Inten    --      1.3801                 2.2812                 0.6117

                      4                      5                      6
                      A                      A                      A
 Frequencies --    187.0174               229.8839               325.8266
 Red. masses --      1.2835                 5.0396                 2.8665
 Frc consts  --      0.0264                 0.1569                 0.1793
 IR Inten    --      0.5390                 1.2595                 1.8770

                      7                      8                      9
                      A                      A                      A
 Frequencies --    348.8294               424.8568               483.1804
 Red. masses --      6.2578                 3.4030                 4.8721
 Frc consts  --      0.4486                 0.3619                 0.6702
 IR Inten    --      4.2158                 3.7924                36.4567

                     10                     11                     12
                      A                      A                      A
 Frequencies --    591.1807               632.9266               641.9433
 Red. masses --      3.9064                 1.3023                 3.8416
 Frc consts  --      0.8044                 0.3074                 0.9327
 IR Inten    --     15.1070                85.7275                10.1051

                     13                     14                     15
                      A                      A                      A
 Frequencies --    697.3947               742.2521               748.7249
 Red. masses --      2.8552                 4.2651                 1.6387
 Frc consts  --      0.8182                 1.3845                 0.5412
 IR Inten    --      6.5245                11.9934                23.5537

                     16                     17                     18
                      A                      A                      A
 Frequencies --    781.0359               797.1561               820.2012
 Red. masses --      2.1357                 2.2741                 8.6129
 Frc consts  --      0.7676                 0.8514                 3.4138
 IR Inten    --      9.4376                 6.8093                15.0804

                     19                     20                     21
                      A                      A                      A
 Frequencies --    918.9482               932.3711               969.1591
 Red. masses --      2.8932                 4.4536                 2.0528
 Frc consts  --      1.4395                 2.2811                 1.1360
 IR Inten    --     28.2031                46.5233                29.0026

                     22                     23                     24
                      A                      A                      A
 Frequencies --   1025.5933              1033.4075              1049.7472
 Red. masses --      2.3441                 1.5478                 1.4354
 Frc consts  --      1.4527                 0.9739                 0.9319
 IR Inten    --     14.0689                13.5892                 6.0199

                     25                     26                     27
                      A                      A                      A
 Frequencies --   1082.6334              1099.6300              1125.6367
 Red. masses --      1.5408                 1.4330                 1.9900
 Frc consts  --      1.0640                 1.0209                 1.4856
 IR Inten    --      7.5259                 5.2114                29.0782

                     28                     29                     30
                      A                      A                      A
 Frequencies --   1150.9572              1196.7043              1238.2726
 Red. masses --      3.3940                 1.5905                 3.2139
 Frc consts  --      2.6490                 1.3421                 2.9035
 IR Inten    --    388.4309                54.6067                39.5871

                     31                     32                     33
                      A                      A                      A
 Frequencies --   1269.2189              1319.0025              1361.0845
 Red. masses --      1.4268                 1.4785                 2.3955
 Frc consts  --      1.3542                 1.5155                 2.6146
 IR Inten    --     15.4826                 0.2105                18.5985

                     34                     35                     36
                      A                      A                      A
 Frequencies --   1397.6506              1439.8272              1466.6481
 Red. masses --      1.7577                 1.3671                 2.4315
 Frc consts  --      2.0230                 1.6698                 3.0816
 IR Inten    --      8.9135                11.8754               154.9053

                     37                     38                     39
                      A                      A                      A
 Frequencies --   1500.3608              1517.0895              1721.9960
 Red. masses --      1.0480                 1.0694                 7.2163
 Frc consts  --      1.3899                 1.4502                12.6074
 IR Inten    --      8.7135                 7.1471                43.1488

                     40                     41                     42
                      A                      A                      A
 Frequencies --   1825.7901              3056.0920              3114.6156
 Red. masses --      9.2304                 1.0364                 1.1014
 Frc consts  --     18.1289                 5.7031                 6.2952
 IR Inten    --    201.2619                18.5533                10.4895

                     43                     44                     45
                      A                      A                      A
 Frequencies --   3150.7493              3188.9535              3202.0746
 Red. masses --      1.1014                 1.0908                 1.0884
 Frc consts  --      6.4422                 6.5357                 6.5750
 IR Inten    --     12.5574                13.4342                 3.4605

                     46                     47                     48
                      A                      A                      A
 Frequencies --   3215.5287              3269.4251              3688.3304
 Red. masses --      1.0936                 1.0962                 1.0639
 Frc consts  --      6.6620                 6.9035                 8.5271
 IR Inten    --     18.9946                 3.3408                49.2060

 - Thermochemistry -
 -------------------
 Temperature   298.150 Kelvin.  Pressure   1.00000 Atm.
 Atom     1 has atomic number  6 and mass  12.00000

 Molecular mass:   140.04734 amu.
 Principal axes and moments of inertia in atomic units:
                           1         2         3
     Eigenvalues --   744.005421574.567741891.18942
           X            0.99900   0.04403  -0.00725
           Y           -0.04404   0.99903  -0.00185
           Z            0.00716   0.00217   0.99997
 This molecule is an asymmetric top.
 Rotational symmetry number  1.
 Warning -- assumption of classical behavior for rotation
           may cause significant error
 Rotational temperatures (Kelvin)      0.11642     0.05501     0.04580
 Rotational constants (GHZ):           2.42571     1.14618     0.95429
 Zero-point vibrational energy     372694.3 (Joules/Mol)
                                   89.07608 (Kcal/Mol)
 Warning -- explicit consideration of  10 degrees of freedom as
           vibrations may cause significant error
 Vibrational temperatures:     95.10   153.18   226.10   269.08   330.75
          (Kelvin)            468.79   501.89   611.27   695.19   850.58
                              910.64   923.61  1003.40  1067.94  1077.25
                             1123.74  1146.93  1180.09  1322.16  1341.47
                             1394.40  1475.60  1486.84  1510.35  1557.67
                             1582.12  1619.54  1655.97  1721.79  1781.60
                             1826.12  1897.75  1958.30  2010.91  2071.59
                             2110.18  2158.68  2182.75  2477.57  2626.90
                             4397.03  4481.24  4533.23  4588.19  4607.07
                             4626.43  4703.97  5306.68

 Zero-point correction=                           0.141952 (Hartree/Particle)
 Thermal correction to Energy=                    0.150723
 Thermal correction to Enthalpy=                  0.151667
 Thermal correction to Gibbs Free Energy=         0.107948
 Sum of electronic and zero-point Energies=           -497.071618
 Sum of electronic and thermal Energies=              -497.062847
 Sum of electronic and thermal Enthalpies=            -497.061903
 Sum of electronic and thermal Free Energies=         -497.105622

                     E (Thermal)             CV                S
                      KCal/Mol        Cal/Mol-Kelvin    Cal/Mol-Kelvin
 Total                   94.580             33.299             92.014
 Electronic               0.000              0.000              0.000
 Translational            0.889              2.981             40.722
 Rotational               0.889              2.981             29.184
 Vibrational             92.802             27.338             22.108
 Vibration     1          0.598              1.970              4.266
 Vibration     2          0.605              1.944              3.332
 Vibration     3          0.621              1.895              2.584
 Vibration     4          0.632              1.858              2.257
 Vibration     5          0.652              1.795              1.880
 Vibration     6          0.710              1.624              1.281
 Vibration     7          0.726              1.578              1.171
 Vibration     8          0.787              1.416              0.876
 Vibration     9          0.839              1.287              0.702
 Vibration    10          0.949              1.051              0.465

                           ! Non-Optimized Parameters !
 Normal termination of Gaussian 16 at Tue Dec  8 10:21:24 2020.

 ----------------------------------------------------------------------
 # B3LYP/6-311++G(d,p) empiricaldispersion=gd3bj scf=xqc pop=npa geom=c
 heck
 ----------------------------------------------------------------------

 -------------------------------------
 CID_129812843_JID_69_Energie_neutraal
 -------------------------------------
 Structure from the checkpoint file:  "JID_69.chk"
 Charge =  0 Multiplicity = 1

 SCF Done:  E(RB3LYP) =  -497.364318159     A.U. after   14 cycles
 Normal termination of Gaussian 16 at Tue Dec  8 10:22:08 2020.

 ----------------------------------------------------------------------
 # B3LYP/6-311++G(d,p) empiricaldispersion=gd3bj scf=xqc pop=npa geom=c
 heck
 ----------------------------------------------------------------------

 -----------------------------------
 CID_129812843_JID_69_Energie_kation
 -----------------------------------
 Structure from the checkpoint file:  "JID_69.chk"
 Charge =  1 Multiplicity = 2

 SCF Done:  E(UB3LYP) =  -497.064583197     A.U. after   20 cycles
 Normal termination of Gaussian 16 at Tue Dec  8 10:23:44 2020.
 Gaussian 16:  ES64L-G16RevA.03 25-Dec-2016

 ----------------------------------------------------------------------
 # B3LYP/6-311++G(d,p) empiricaldispersion=gd3bj scf=xqc pop=npa geom=c
 heck
 ----------------------------------------------------------------------

 ----------------------------------
 CID_129812843_JID_69_Energie_anion
 ----------------------------------
 Structure from the checkpoint file:  "JID_69.chk"
 Charge = -1 Multiplicity = 2

                         Standard orientation:
 ---------------------------------------------------------------------
 Center     Atomic      Atomic             Coordinates (Angstroms)
 Number     Number       Type             X           Y           Z
 ---------------------------------------------------------------------
      1          6           0       -2.556779   -1.274820   -0.011653
      2          6           0       -1.620583   -0.131324    0.118890
      3          6           0       -1.089183    0.483728    1.187333
      4          6           0       -0.077054    1.455493    0.716142
      5          6           0        1.126760    0.898682   -0.102517
      6          6           0       -0.166198    1.329168   -0.777771
      7          8           0       -1.139021    0.360190   -1.080375
      8          6           0        1.575520   -0.504880   -0.025796
      9          8           0        0.890919   -1.507721   -0.047445
     10          8           0        2.933961   -0.566083    0.085151
     11          1           0       -2.994990   -1.524014    0.957851
     12          1           0       -2.011496   -2.148524   -0.386918
     13          1           0       -3.360036   -1.046248   -0.721197
     14          1           0       -1.312788    0.260518    2.220640
     15          1           0        0.097656    2.394908    1.231746
     16          1           0        1.934955    1.612795   -0.217983
     17          1           0       -0.141237    2.140475   -1.496606
     18          1           0        3.146166   -1.517282    0.126045
 ---------------------------------------------------------------------

 SCF Done:  E(UB3LYP) =  -497.347502613     A.U. after   32 cycles

 The electronic state is 2-A.
 Alpha  occ. eigenvalues --  -19.06113 -19.05466 -19.00418 -10.19901 -10.13612
 Alpha  occ. eigenvalues --  -10.12491 -10.09305 -10.08845 -10.07178 -10.05532
 Alpha  occ. eigenvalues --   -1.00063  -0.98096  -0.90992  -0.76395  -0.68583
 Alpha  occ. eigenvalues --   -0.61989  -0.58135  -0.51170  -0.47938  -0.44485
 Alpha  occ. eigenvalues --   -0.43068  -0.38370  -0.36899  -0.35542  -0.34916
 Alpha  occ. eigenvalues --   -0.34144  -0.32721  -0.30522  -0.29275  -0.28043
 Alpha  occ. eigenvalues --   -0.27749  -0.26502  -0.23078  -0.21002  -0.19276
 Alpha  occ. eigenvalues --   -0.16980  -0.11244   0.04837
 Alpha virt. eigenvalues --    0.06993   0.07168   0.08393   0.09461   0.10158
 Alpha virt. eigenvalues --    0.10537   0.11350   0.11752   0.13505   0.14381
 Alpha virt. eigenvalues --    0.15089   0.15706   0.16438   0.17329   0.18081

  Beta  occ. eigenvalues --  -19.06081 -19.05460 -19.00408 -10.19901 -10.13591
  Beta  occ. eigenvalues --  -10.12488 -10.09283 -10.08821 -10.07158 -10.05514
  Beta  occ. eigenvalues --   -1.00026  -0.98075  -0.90958  -0.76342  -0.68559
  Beta  occ. eigenvalues --   -0.61945  -0.58078  -0.51130  -0.47876  -0.44425
  Beta  occ. eigenvalues --   -0.42979  -0.38345  -0.36852  -0.35495  -0.34887
  Beta  occ. eigenvalues --   -0.34107  -0.32688  -0.30489  -0.29243  -0.28013
  Beta  occ. eigenvalues --   -0.27716  -0.26469  -0.23045  -0.20979  -0.19247
  Beta  occ. eigenvalues --   -0.16949  -0.11216
  Beta virt. eigenvalues --    0.07268   0.07923   0.08619   0.09325   0.09720
  Beta virt. eigenvalues --    0.10761   0.11382   0.11775   0.12410   0.13544
  Beta virt. eigenvalues --    0.14634   0.15166   0.15855   0.16483   0.17444

 Mulliken charges and spin densities:
               1          2
     1  C    1.901500  -2.658987
     2  C   -0.168036   0.018997
     3  C   -0.781739   0.943305
     4  C    1.552519  -1.864292
     5  C    1.454548  -1.346878
     6  C   -0.693919   0.706152
     7  O   -0.068890  -0.008073
     8  C   -0.054696  -0.164698
     9  O   -0.302745  -0.008817
    10  O   -0.202767   0.045985
    11  H   -0.202371   0.354494
    12  H    0.109455   0.072212
    13  H   -0.097517   0.238446
    14  H   -0.909963   1.084425
    15  H   -1.098645   1.342830
    16  H   -0.284861   0.564084
    17  H   -0.990257   1.250016
    18  H   -0.161617   0.430799
 Sum of Mulliken charges =  -1.00000   1.00000

 Dipole moment (field-independent basis, Debye):
    X=             -1.2424    Y=             -4.3316    Z=             -1.8566  Tot=              4.8737
 Quadrupole moment (field-independent basis, Debye-Ang):
   XX=           -101.2259   YY=           -105.5706   ZZ=            -92.0723
   XY=             -2.9263   XZ=              2.7630   YZ=             -0.5728

 Summary of Natural Population Analysis:

                                       Natural Population
                Natural  -----------------------------------------------
    Atom  No    Charge         Core      Valence    Rydberg      Total
 -----------------------------------------------------------------------
      C    1   -0.30544      0.99961     2.30077    0.00506     3.30544
      C    2    0.17971      0.99943     1.80401    0.01685     2.82029
      C    3   -0.15408      0.99944     2.14399    0.01066     3.15408
      C    4   -0.10967      0.99958     2.09743    0.01265     3.10967
      C    5   -0.17948      0.99952     2.16739    0.01256     3.17948
      C    6    0.07807      0.99950     1.90786    0.01458     2.92193
      O    7   -0.27184      0.99986     3.26276    0.00922     4.27184
      C    8    0.39887      0.99966     1.57653    0.02494     2.60113
      O    9   -0.31208      0.99987     3.30526    0.00695     4.31208
      O   10   -0.34556      0.99988     3.33956    0.00612     4.34556
      H   11    0.10756      0.00000     0.39143    0.00101     0.39244
      H   12    0.11357      0.00000     0.38494    0.00149     0.38643
      H   13    0.10428      0.00000     0.39428    0.00143     0.39572
      H   14    0.11108      0.00000     0.38730    0.00162     0.38892
      H   15    0.11829      0.00000     0.37514    0.00657     0.38171
      H   16    0.12387      0.00000     0.37274    0.00339     0.37613
      H   17    0.10433      0.00000     0.39260    0.00307     0.39567
      H   18    0.23852      0.00000     0.25578    0.00570     0.26148
 =======================================================================
   * Total *   -0.00000      9.99635    26.85977    0.14387    37.00000

 Normal termination of Gaussian 16 at Tue Dec  8 10:26:17 2020.
