 Gaussian 16, Revision A.03,

 -----------------------------------------------------------
 # opt freq B3LYP/6-31G(d) empiricaldispersion=gd3bj scf=xqc
 -----------------------------------------------------------

 -------------------------------
 CID_130013342_JID_2223_neutraal
 -------------------------------
 Symbolic Z-matrix:
 Charge =  0 Multiplicity = 1

 SCF Done:  E(RB3LYP) =  -557.214562734     A.U. after   15 cycles
 SCF Done:  E(RB3LYP) =  -557.217887877     A.U. after   12 cycles
 SCF Done:  E(RB3LYP) =  -557.218328096     A.U. after   12 cycles
 SCF Done:  E(RB3LYP) =  -557.218418360     A.U. after   11 cycles
 SCF Done:  E(RB3LYP) =  -557.218519728     A.U. after   11 cycles
 SCF Done:  E(RB3LYP) =  -557.218545878     A.U. after   10 cycles
 SCF Done:  E(RB3LYP) =  -557.218554683     A.U. after   10 cycles
 SCF Done:  E(RB3LYP) =  -557.218558160     A.U. after    9 cycles
 SCF Done:  E(RB3LYP) =  -557.218561512     A.U. after    9 cycles
 SCF Done:  E(RB3LYP) =  -557.218562611     A.U. after    8 cycles
 SCF Done:  E(RB3LYP) =  -557.218562820     A.U. after    7 cycles
 SCF Done:  E(RB3LYP) =  -557.218562975     A.U. after    7 cycles
 SCF Done:  E(RB3LYP) =  -557.218563102     A.U. after    8 cycles
 SCF Done:  E(RB3LYP) =  -557.218563300     A.U. after    7 cycles
 SCF Done:  E(RB3LYP) =  -557.218563389     A.U. after    8 cycles
 Optimization completed.
    -- Stationary point found.
 Normal termination of Gaussian 16 at Wed Dec  9 16:58:43 2020.

 --------------------------------------------------------------------
 #N Geom=AllCheck Guess=TCheck SCRF=Check GenChk RB3LYP/6-31G(d) Freq
 --------------------------------------------------------------------

 Structure from the checkpoint file:  "JID_2223.chk"
 -------------------------------
 CID_130013342_JID_2223_neutraal
 -------------------------------
 Charge =  0 Multiplicity = 1

 SCF Done:  E(RB3LYP) =  -557.218563389     A.U. after    1 cycles

  Exact polarizability: 130.129   0.212  91.118  -2.632   3.361  88.839
 Approx polarizability: 183.855  -0.571 133.418  -6.856   3.334 128.183

                      1                      2                      3
                      A                      A                      A
 Frequencies --     40.2444                49.5402                95.0868
 Red. masses --      6.0095                 4.8618                 3.0565
 Frc consts  --      0.0057                 0.0070                 0.0163
 IR Inten    --      1.7450                 1.3896                 0.2228

                      4                      5                      6
                      A                      A                      A
 Frequencies --     98.6514               135.0051               170.5113
 Red. masses --      2.9414                 1.0494                 3.8402
 Frc consts  --      0.0169                 0.0113                 0.0658
 IR Inten    --      6.2361                 0.0169                 2.3426

                      7                      8                      9
                      A                      A                      A
 Frequencies --    213.6425               257.8770               296.6227
 Red. masses --      2.2427                 2.9649                 1.6823
 Frc consts  --      0.0603                 0.1162                 0.0872
 IR Inten    --      2.2588                11.4468                93.0714

                     10                     11                     12
                      A                      A                      A
 Frequencies --    310.4546               331.9020               360.0843
 Red. masses --      1.8381                 3.3148                 4.0112
 Frc consts  --      0.1044                 0.2151                 0.3064
 IR Inten    --     22.1834                 2.7366                 4.2985

                     13                     14                     15
                      A                      A                      A
 Frequencies --    413.1446               471.5708               483.5982
 Red. masses --      2.4116                 3.4367                 3.0699
 Frc consts  --      0.2425                 0.4503                 0.4230
 IR Inten    --      1.7401                 4.3242                 4.6114

                     16                     17                     18
                      A                      A                      A
 Frequencies --    506.5973               533.7826               552.1365
 Red. masses --      1.4841                 3.3068                 2.7890
 Frc consts  --      0.2244                 0.5551                 0.5010
 IR Inten    --     22.8250                12.2781                15.9417

                     19                     20                     21
                      A                      A                      A
 Frequencies --    632.8700               686.1567               743.8024
 Red. masses --      2.0493                 2.4716                 2.5152
 Frc consts  --      0.4836                 0.6856                 0.8199
 IR Inten    --     53.3419                 6.0784                 1.8524

                     22                     23                     24
                      A                      A                      A
 Frequencies --    753.4771               799.5658               818.5911
 Red. masses --      2.2012                 2.8455                 1.9688
 Frc consts  --      0.7363                 1.0718                 0.7773
 IR Inten    --     20.4997                 8.3339                 6.1960

                     25                     26                     27
                      A                      A                      A
 Frequencies --    858.5611               944.0029               973.2478
 Red. masses --      2.4737                 2.0652                 1.9956
 Frc consts  --      1.0743                 1.0843                 1.1137
 IR Inten    --      1.9491                 2.5591                 0.2033

                     28                     29                     30
                      A                      A                      A
 Frequencies --    979.7938              1009.5553              1010.9733
 Red. masses --      1.8250                 1.4225                 2.1489
 Frc consts  --      1.0323                 0.8542                 1.2940
 IR Inten    --     13.2624                 5.5526                 8.4074

                     31                     32                     33
                      A                      A                      A
 Frequencies --   1035.8789              1070.3970              1078.5790
 Red. masses --      1.5894                 1.7016                 3.7254
 Frc consts  --      1.0049                 1.1487                 2.5534
 IR Inten    --     14.5215                 6.8298                99.0001

                     34                     35                     36
                      A                      A                      A
 Frequencies --   1081.5197              1112.1291              1130.5114
 Red. masses --      2.2019                 2.0084                 1.7129
 Frc consts  --      1.5175                 1.4635                 1.2898
 IR Inten    --     45.1068                 0.6031                 9.2106

                     37                     38                     39
                      A                      A                      A
 Frequencies --   1143.8404              1174.8378              1223.1711
 Red. masses --      2.1536                 1.2173                 1.3357
 Frc consts  --      1.6602                 0.9899                 1.1774
 IR Inten    --     36.1107                 1.7860                 4.5186

                     40                     41                     42
                      A                      A                      A
 Frequencies --   1252.8600              1268.5015              1311.3698
 Red. masses --      1.3315                 1.2715                 1.3877
 Frc consts  --      1.2314                 1.2054                 1.4060
 IR Inten    --      5.2846                 3.6706                16.2104

                     43                     44                     45
                      A                      A                      A
 Frequencies --   1328.2528              1343.5155              1376.0482
 Red. masses --      1.8517                 1.3369                 1.6351
 Frc consts  --      1.9248                 1.4218                 1.8242
 IR Inten    --    140.4832                 4.9579                 9.6398

                     46                     47                     48
                      A                      A                      A
 Frequencies --   1382.6314              1397.6707              1407.3862
 Red. masses --      1.4500                 1.3723                 1.2217
 Frc consts  --      1.6331                 1.5795                 1.4258
 IR Inten    --     26.9238                10.6290                 1.9601

                     49                     50                     51
                      A                      A                      A
 Frequencies --   1410.6088              1429.6719              1435.0725
 Red. masses --      1.3523                 1.4958                 1.4739
 Frc consts  --      1.5854                 1.8013                 1.7885
 IR Inten    --      2.4285                19.9830                67.9175

                     52                     53                     54
                      A                      A                      A
 Frequencies --   1437.9302              1492.0953              1508.7337
 Red. masses --      1.3099                 1.5080                 1.1405
 Frc consts  --      1.5957                 1.9781                 1.5296
 IR Inten    --     28.2123                42.5848                 5.6309

                     55                     56                     57
                      A                      A                      A
 Frequencies --   1520.2027              1523.1315              1528.3212
 Red. masses --      1.1320                 1.0827                 1.0918
 Frc consts  --      1.5414                 1.4799                 1.5026
 IR Inten    --      8.9794                13.3817                 2.6095

                     58                     59                     60
                      A                      A                      A
 Frequencies --   1535.9982              1729.9934              1789.7335
 Red. masses --      1.0878                 7.0054                 7.6659
 Frc consts  --      1.5121                12.3530                14.4674
 IR Inten    --      3.7064                 8.5691               410.4771

                     61                     62                     63
                      A                      A                      A
 Frequencies --   3008.9440              3018.3847              3033.5969
 Red. masses --      1.0698                 1.0833                 1.0757
 Frc consts  --      5.7064                 5.8151                 5.8327
 IR Inten    --     32.2980                18.2958                14.4920

                     64                     65                     66
                      A                      A                      A
 Frequencies --   3045.7548              3064.0129              3066.7808
 Red. masses --      1.0677                 1.0590                 1.0598
 Frc consts  --      5.8359                 5.8576                 5.8730
 IR Inten    --     69.1671                10.0184                 3.4013

                     67                     68                     69
                      A                      A                      A
 Frequencies --   3075.8678              3100.5947              3110.6988
 Red. masses --      1.0862                 1.0956                 1.1028
 Frc consts  --      6.0545                 6.2058                 6.2872
 IR Inten    --     47.7448                40.4363                34.8138

                     70                     71                     72
                      A                      A                      A
 Frequencies --   3139.2229              3155.8713              3175.3288
 Red. masses --      1.0925                 1.0854                 1.1048
 Frc consts  --      6.3431                 6.3692                 6.5632
 IR Inten    --      7.3085                11.6970                 6.6438

                     73                     74                     75
                      A                      A                      A
 Frequencies --   3182.1357              3601.8264              3758.2066
 Red. masses --      1.0958                 1.0763                 1.0661
 Frc consts  --      6.5376                 8.2270                 8.8718
 IR Inten    --     22.5715                19.7997                 9.5726

 - Thermochemistry -
 -------------------
 Temperature   298.150 Kelvin.  Pressure   1.00000 Atm.
 Atom     1 has atomic number  6 and mass  12.00000

 Molecular mass:   169.11028 amu.
 Principal axes and moments of inertia in atomic units:
                           1         2         3
     Eigenvalues --  1030.033513599.676583824.85084
           X            0.99999   0.00209   0.00393
           Y           -0.00234   0.99791   0.06455
           Z           -0.00379  -0.06455   0.99791
 This molecule is an asymmetric top.
 Rotational symmetry number  1.
 Warning -- assumption of classical behavior for rotation
           may cause significant error
 Rotational temperatures (Kelvin)      0.08409     0.02406     0.02265
 Rotational constants (GHZ):           1.75212     0.50136     0.47185
 Zero-point vibrational energy     619240.2 (Joules/Mol)
                                  148.00195 (Kcal/Mol)
 Warning -- explicit consideration of  18 degrees of freedom as
           vibrations may cause significant error
 Vibrational temperatures:     57.90    71.28   136.81   141.94   194.24
          (Kelvin)            245.33   307.38   371.03   426.77   446.67
                              477.53   518.08   594.42   678.49   695.79
                              728.88   767.99   794.40   910.56   987.23
                             1070.17  1084.09  1150.40  1177.77  1235.28
                             1358.21  1400.29  1409.70  1452.52  1454.57
                             1490.40  1540.06  1551.83  1556.07  1600.11
                             1626.55  1645.73  1690.33  1759.87  1802.59
                             1825.09  1886.77  1911.06  1933.02  1979.83
                             1989.30  2010.94  2024.91  2029.55  2056.98
                             2064.75  2068.86  2146.79  2170.73  2187.23
                             2191.45  2198.91  2209.96  2489.07  2575.03
                             4329.20  4342.78  4364.67  4382.16  4408.43
                             4412.41  4425.49  4461.06  4475.60  4516.64
                             4540.59  4568.59  4578.38  5182.22  5407.22

 Zero-point correction=                           0.235856 (Hartree/Particle)
 Thermal correction to Energy=                    0.248327
 Thermal correction to Enthalpy=                  0.249271
 Thermal correction to Gibbs Free Energy=         0.196589
 Sum of electronic and zero-point Energies=           -556.982707
 Sum of electronic and thermal Energies=              -556.970237
 Sum of electronic and thermal Enthalpies=            -556.969292
 Sum of electronic and thermal Free Energies=         -557.021974

                     E (Thermal)             CV                S
                      KCal/Mol        Cal/Mol-Kelvin    Cal/Mol-Kelvin
 Total                  155.827             46.857            110.878
 Electronic               0.000              0.000              0.000
 Translational            0.889              2.981             41.284
 Rotational               0.889              2.981             31.029
 Vibrational            154.050             40.895             38.565
 Vibration     1          0.594              1.981              5.247
 Vibration     2          0.595              1.978              4.836
 Vibration     3          0.603              1.953              3.553
 Vibration     4          0.604              1.950              3.481
 Vibration     5          0.613              1.918              2.873
 Vibration     6          0.626              1.879              2.430
 Vibration     7          0.644              1.820              2.012
 Vibration     8          0.667              1.749              1.676
 Vibration     9          0.690              1.680              1.436
 Vibration    10          0.699              1.654              1.360
 Vibration    11          0.714              1.612              1.251
 Vibration    12          0.735              1.554              1.122
 Vibration    13          0.777              1.442              0.916
 Vibration    14          0.829              1.313              0.733
 Vibration    15          0.840              1.286              0.700
 Vibration    16          0.862              1.235              0.642
 Vibration    17          0.889              1.175              0.579
 Vibration    18          0.907              1.135              0.540

 Optimization completed.
    -- Stationary point found.
 Normal termination of Gaussian 16 at Wed Dec  9 17:05:48 2020.

 ----------------------------------------------------------------------
 # B3LYP/6-311++G(d,p) empiricaldispersion=gd3bj scf=xqc pop=npa geom=c
 heck
 ----------------------------------------------------------------------

 ---------------------------------------
 CID_130013342_JID_2223_Energie_neutraal
 ---------------------------------------
 Structure from the checkpoint file:  "JID_2223.chk"
 Charge =  0 Multiplicity = 1

 SCF Done:  E(RB3LYP) =  -557.393278753     A.U. after   15 cycles
 Normal termination of Gaussian 16 at Wed Dec  9 17:10:08 2020.

 ----------------------------------------------------------------------
 # B3LYP/6-311++G(d,p) empiricaldispersion=gd3bj scf=xqc pop=npa geom=c
 heck
 ----------------------------------------------------------------------

 -------------------------------------
 CID_130013342_JID_2223_Energie_kation
 -------------------------------------
 Structure from the checkpoint file:  "JID_2223.chk"
 Charge =  1 Multiplicity = 2

 SCF Done:  E(UB3LYP) =  -557.071529640     A.U. after   29 cycles
 Normal termination of Gaussian 16 at Wed Dec  9 17:18:49 2020.
 Gaussian 16:  ES64L-G16RevA.03 25-Dec-2016

 ----------------------------------------------------------------------
 # B3LYP/6-311++G(d,p) empiricaldispersion=gd3bj scf=xqc pop=npa geom=c
 heck
 ----------------------------------------------------------------------

 ------------------------------------
 CID_130013342_JID_2223_Energie_anion
 ------------------------------------
 Structure from the checkpoint file:  "JID_2223.chk"
 Charge = -1 Multiplicity = 2

                         Standard orientation:
 ---------------------------------------------------------------------
 Center     Atomic      Atomic             Coordinates (Angstroms)
 Number     Number       Type             X           Y           Z
 ---------------------------------------------------------------------
      1          6           0        1.836317    1.661665    0.309918
      2          6           0        2.735917    0.501887   -0.082413
      3          8           0        3.931757    0.664543   -0.291283
      4          7           0        2.175256   -0.746082   -0.219478
      5          6           0        0.784040   -1.190738   -0.099647
      6          6           0       -0.134058   -0.640371   -1.203945
      7          6           0       -1.590146   -1.035222   -0.933773
      8          6           0       -2.103612   -0.462704    0.400213
      9          6           0       -1.079962   -0.642175    1.493634
     10          6           0        0.202726   -0.947669    1.276907
     11          6           0       -2.507059    1.023729    0.299237
     12          8           0       -3.630933    1.241358   -0.541914
     13          1           0        2.445763    2.386042    0.853485
     14          1           0        0.976718    1.366824    0.914528
     15          1           0        1.467479    2.152299   -0.598620
     16          1           0        2.852451   -1.428279   -0.535743
     17          1           0        0.843134   -2.280389   -0.233197
     18          1           0        0.202644   -1.015247   -2.176681
     19          1           0       -0.040319    0.450312   -1.236407
     20          1           0       -2.236895   -0.712836   -1.759710
     21          1           0       -1.667594   -2.129726   -0.904002
     22          1           0       -3.020016   -0.999323    0.682022
     23          1           0       -1.424598   -0.491067    2.515848
     24          1           0        0.893716   -1.062982    2.109662
     25          1           0       -2.803474    1.386023    1.288855
     26          1           0       -1.642948    1.626844   -0.020172
     27          1           0       -3.344431    1.116459   -1.458729
 ---------------------------------------------------------------------

 SCF Done:  E(UB3LYP) =  -557.386046150     A.U. after   33 cycles
 SCF Done:  E(UB3LYP) =  -557.386046150     a.u. after    1 cycles

 The electronic state is 2-A.
 Alpha  occ. eigenvalues --  -19.02134 -18.98482 -14.23214 -10.17422 -10.11703
 Alpha  occ. eigenvalues --  -10.11631 -10.07687 -10.07439 -10.07429 -10.07339
 Alpha  occ. eigenvalues --  -10.06484 -10.06429  -0.93668  -0.92284  -0.82201
 Alpha  occ. eigenvalues --   -0.73656  -0.65837  -0.64918  -0.64100  -0.57871
 Alpha  occ. eigenvalues --   -0.52555  -0.50296  -0.47440  -0.42510  -0.41499
 Alpha  occ. eigenvalues --   -0.40815  -0.38852  -0.36998  -0.35358  -0.34099
 Alpha  occ. eigenvalues --   -0.32855  -0.32184  -0.31387  -0.30587  -0.29935
 Alpha  occ. eigenvalues --   -0.29322  -0.28394  -0.26795  -0.24707  -0.23624
 Alpha  occ. eigenvalues --   -0.22874  -0.21408  -0.18503  -0.16163  -0.15781
 Alpha  occ. eigenvalues --   -0.14573   0.04260
 Alpha virt. eigenvalues --    0.06828   0.07109   0.07979   0.09338   0.09513
 Alpha virt. eigenvalues --    0.09853   0.10026   0.10459   0.10926   0.11958
 Alpha virt. eigenvalues --    0.12605   0.13298   0.13716   0.14179   0.14358

  Beta  occ. eigenvalues --  -19.02090 -18.98478 -14.23197 -10.17420 -10.11683
  Beta  occ. eigenvalues --  -10.11615 -10.07681 -10.07420 -10.07401 -10.07310
  Beta  occ. eigenvalues --  -10.06447 -10.06386  -0.93658  -0.92184  -0.82161
  Beta  occ. eigenvalues --   -0.73598  -0.65777  -0.64841  -0.64063  -0.57798
  Beta  occ. eigenvalues --   -0.52478  -0.50201  -0.47382  -0.42438  -0.41437
  Beta  occ. eigenvalues --   -0.40735  -0.38781  -0.36959  -0.35323  -0.34056
  Beta  occ. eigenvalues --   -0.32796  -0.32141  -0.31345  -0.30565  -0.29876
  Beta  occ. eigenvalues --   -0.29277  -0.28333  -0.26767  -0.24639  -0.23561
  Beta  occ. eigenvalues --   -0.22829  -0.21358  -0.18423  -0.16093  -0.15767
  Beta  occ. eigenvalues --   -0.14493
  Beta virt. eigenvalues --    0.06759   0.07820   0.07966   0.08344   0.09677
  Beta virt. eigenvalues --    0.09914   0.10089   0.10468   0.10977   0.11359
  Beta virt. eigenvalues --    0.12191   0.12982   0.13562   0.13966   0.14539

 Mulliken charges and spin densities:
               1          2
     1  C    0.171134  -0.602977
     2  C   -0.165485   0.239926
     3  O   -0.367711   0.010654
     4  N   -0.284095   0.155734
     5  C    1.689922  -2.212283
     6  C   -0.306255   0.348990
     7  C    0.362003  -0.887945
     8  C    0.119823   0.166391
     9  C   -0.389258   0.045530
    10  C   -0.305006   0.186617
    11  C    0.595822  -1.177325
    12  O   -0.263606   0.026462
    13  H    0.161286   0.006448
    14  H    0.140386   0.050700
    15  H   -0.015136   0.193695
    16  H    0.051941   0.269539
    17  H   -0.571704   0.781046
    18  H   -0.427672   0.641701
    19  H   -0.288985   0.430211
    20  H   -0.369295   0.502189
    21  H   -0.393936   0.556306
    22  H    0.034514   0.167875
    23  H   -0.213227   0.384014
    24  H   -0.022323   0.193911
    25  H    0.112769   0.059731
    26  H    0.017230   0.134208
    27  H   -0.073133   0.328649
 Sum of Mulliken charges =  -1.00000   1.00000

 Dipole moment (field-independent basis, Debye):
    X=              0.2747    Y=              2.3123    Z=              4.3644  Tot=              4.9467
 Quadrupole moment (field-independent basis, Debye-Ang):
   XX=           -145.0410   YY=           -111.6008   ZZ=           -108.1138
   XY=              2.0302   XZ=             -2.3695   YZ=             -1.2084

 Summary of Natural Population Analysis:

                                       Natural Population
                Natural  -----------------------------------------------
    Atom  No    Charge         Core      Valence    Rydberg      Total
 -----------------------------------------------------------------------
      C    1   -0.33627      0.99962     2.33220    0.00446     3.33627
      C    2    0.34538      0.99969     1.63375    0.02118     2.65462
      O    3   -0.33055      0.99988     3.32451    0.00617     4.33055
      N    4   -0.31978      0.99967     2.80845    0.01166     3.81978
      C    5   -0.02889      0.99955     2.01437    0.01497     3.02889
      C    6   -0.19362      0.99961     2.18327    0.01074     3.19362
      C    7   -0.18969      0.99962     2.17942    0.01065     3.18969
      C    8   -0.14029      0.99957     2.12912    0.01160     3.14029
      C    9   -0.08463      0.99950     2.07439    0.01074     3.08463
      C   10   -0.09581      0.99950     2.08492    0.01139     3.09581
      C   11   -0.00206      0.99956     1.98951    0.01299     3.00206
      O   12   -0.36970      0.99990     3.36325    0.00655     4.36970
      H   13    0.10939      0.00000     0.38971    0.00090     0.39061
      H   14    0.11116      0.00000     0.38760    0.00124     0.38884
      H   15    0.11239      0.00000     0.38648    0.00113     0.38761
      H   16    0.19786      0.00000     0.29965    0.00249     0.30214
      H   17    0.11165      0.00000     0.38450    0.00385     0.38835
      H   18    0.10777      0.00000     0.38951    0.00272     0.39223
      H   19    0.09572      0.00000     0.40206    0.00221     0.40428
      H   20    0.10134      0.00000     0.39622    0.00244     0.39866
      H   21    0.10319      0.00000     0.39449    0.00233     0.39681
      H   22    0.10469      0.00000     0.39367    0.00164     0.39531
      H   23    0.09733      0.00000     0.40168    0.00099     0.40267
      H   24    0.10044      0.00000     0.39857    0.00099     0.39956
      H   25    0.08382      0.00000     0.41493    0.00125     0.41618
      H   26    0.07715      0.00000     0.42140    0.00145     0.42285
      H   27    0.23201      0.00000     0.26316    0.00483     0.26799
 =======================================================================
   * Total *   -0.00000     11.99566    33.84078    0.16356    46.00000

 Normal termination of Gaussian 16 at Wed Dec  9 17:28:46 2020.
