 Gaussian 16, Revision A.03,

 -----------------------------------------------------------
 # opt freq B3LYP/6-31G(d) empiricaldispersion=gd3bj scf=xqc
 -----------------------------------------------------------

 ------------------------------
 CID_88160827_JID_1074_neutraal
 ------------------------------
 Symbolic Z-matrix:
 Charge =  0 Multiplicity = 1

 SCF Done:  E(RB3LYP) =  -503.077666536     A.U. after   15 cycles
 SCF Done:  E(RB3LYP) =  -503.079467197     A.U. after   13 cycles
 SCF Done:  E(RB3LYP) =  -503.076790348     A.U. after   12 cycles
 SCF Done:  E(RB3LYP) =  -503.079216041     A.U. after   12 cycles
 SCF Done:  E(RB3LYP) =  -503.080923878     A.U. after   10 cycles
 SCF Done:  E(RB3LYP) =  -503.081445197     A.U. after   12 cycles
 SCF Done:  E(RB3LYP) =  -503.080715751     A.U. after   13 cycles
 SCF Done:  E(RB3LYP) =  -503.081652468     A.U. after   13 cycles
 SCF Done:  E(RB3LYP) =  -503.081799207     A.U. after   10 cycles
 SCF Done:  E(RB3LYP) =  -503.081835759     A.U. after   10 cycles
 SCF Done:  E(RB3LYP) =  -503.081862510     A.U. after    8 cycles
 SCF Done:  E(RB3LYP) =  -503.081862844     A.U. after    8 cycles
 SCF Done:  E(RB3LYP) =  -503.081863141     A.U. after    8 cycles
 SCF Done:  E(RB3LYP) =  -503.081863327     A.U. after    8 cycles
 SCF Done:  E(RB3LYP) =  -503.081863371     A.U. after    7 cycles
 Optimization completed.
    -- Stationary point found.

 1\1\GINC-NODE128\FOpt\RB3LYP\6-31G(d)\C9H16O2\VSC10255\08-Dec-2020\0\\
 # opt freq B3LYP/6-31G(d) empiricaldispersion=gd3bj scf=xqc\\CID_88160
 827_JID_1074_neutraal\\0,1\C,1.1011244104,-0.0411356557,0.101468425\C,
 0.5619888546,-0.5865384982,-1.2070493615\C,-0.159170254,-1.7198979886,
 -1.3889550486\C,-0.3797122056,-2.303708516,-2.7679576713\C,-0.71067774
 35,-2.5828615688,-0.2261502462\C,0.4257717812,-3.4687062096,0.33198872
 03\C,-1.3424727462,-1.7304409586,0.8977732304\C,-1.8404439639,-3.52413
 842,-0.710018071\C,1.0013603625,0.2792533403,-2.3468165479\O,2.0618236

 Normal termination of Gaussian 16 at Tue Dec  8 19:17:21 2020.

 --------------------------------------------------------------------
 #N Geom=AllCheck Guess=TCheck SCRF=Check GenChk RB3LYP/6-31G(d) Freq
 --------------------------------------------------------------------

 Structure from the checkpoint file:  "JID_1074.chk"
 ------------------------------
 CID_88160827_JID_1074_neutraal
 ------------------------------
 Charge =  0 Multiplicity = 1

 SCF Done:  E(RB3LYP) =  -503.081863371     A.U. after    1 cycles

  Exact polarizability: 125.400   6.932 101.136  -0.033   0.342  77.322
 Approx polarizability: 172.848  20.115 148.624   2.378   4.514 115.779

                      1                      2                      3
                      A                      A                      A
 Frequencies --     38.7625                64.0643                81.5875
 Red. masses --      3.4900                 3.4292                 3.9192
 Frc consts  --      0.0031                 0.0083                 0.0154
 IR Inten    --      1.2973                 0.9342                 0.2631

                      4                      5                      6
                      A                      A                      A
 Frequencies --    163.2346               199.1032               230.4493
 Red. masses --      1.3868                 1.6415                 1.5648
 Frc consts  --      0.0218                 0.0383                 0.0490
 IR Inten    --      0.1646                 1.1456                 0.1158

                      7                      8                      9
                      A                      A                      A
 Frequencies --    235.6108               245.9899               261.7006
 Red. masses --      1.3939                 1.2604                 1.7375
 Frc consts  --      0.0456                 0.0449                 0.0701
 IR Inten    --      0.1540                 0.3835                 1.5588

                     10                     11                     12
                      A                      A                      A
 Frequencies --    286.9752               307.1527               320.0614
 Red. masses --      2.2833                 2.0178                 1.3751
 Frc consts  --      0.1108                 0.1122                 0.0830
 IR Inten    --      1.8363                 0.9079                 0.8095

                     13                     14                     15
                      A                      A                      A
 Frequencies --    329.3890               357.9775               395.1164
 Red. masses --      2.3538                 2.5757                 2.4723
 Frc consts  --      0.1505                 0.1945                 0.2274
 IR Inten    --      1.5549                 1.6287                 0.0715

                     16                     17                     18
                      A                      A                      A
 Frequencies --    435.9555               442.9250               497.2597
 Red. masses --      2.6349                 2.4535                 2.7910
 Frc consts  --      0.2950                 0.2836                 0.4066
 IR Inten    --      1.9338                 3.9695                10.1134

                     19                     20                     21
                      A                      A                      A
 Frequencies --    545.1289               586.7221               611.9979
 Red. masses --      3.4123                 2.9314                 2.4221
 Frc consts  --      0.5974                 0.5945                 0.5345
 IR Inten    --      1.3301                 8.2247                31.2801

                     22                     23                     24
                      A                      A                      A
 Frequencies --    644.2952               677.0289               778.8389
 Red. masses --      1.5911                 3.4302                 3.5881
 Frc consts  --      0.3891                 0.9264                 1.2824
 IR Inten    --     50.0301                20.3908                17.9467

                     25                     26                     27
                      A                      A                      A
 Frequencies --    790.6167               885.7838               940.1862
 Red. masses --      4.3589                 2.2868                 1.8121
 Frc consts  --      1.6053                 1.0571                 0.9438
 IR Inten    --     50.4512                 0.2668                 0.9324

                     28                     29                     30
                      A                      A                      A
 Frequencies --    946.0916               973.8800               993.2730
 Red. masses --      1.7880                 1.1992                 1.4915
 Frc consts  --      0.9429                 0.6701                 0.8670
 IR Inten    --      0.3592                 0.0663                 2.7250

                     31                     32                     33
                      A                      A                      A
 Frequencies --   1038.7392              1054.8881              1076.7163
 Red. masses --      1.4221                 1.5084                 1.4300
 Frc consts  --      0.9041                 0.9890                 0.9768
 IR Inten    --      0.5532                 5.3604                 1.6551

                     34                     35                     36
                      A                      A                      A
 Frequencies --   1080.3452              1100.5898              1132.7710
 Red. masses --      1.5160                 3.6945                 1.7690
 Frc consts  --      1.0425                 2.6366                 1.3374
 IR Inten    --      0.4089                35.0006                60.2954

                     37                     38                     39
                      A                      A                      A
 Frequencies --   1167.8972              1229.6467              1241.0069
 Red. masses --      2.6993                 2.3595                 2.7227
 Frc consts  --      2.1692                 2.1020                 2.4705
 IR Inten    --    135.1287                98.4559                 6.9207

                     40                     41                     42
                      A                      A                      A
 Frequencies --   1254.6898              1297.9808              1384.2909
 Red. masses --      2.4390                 2.7654                 2.6886
 Frc consts  --      2.2622                 2.7450                 3.0355
 IR Inten    --     21.7870                 4.3438                59.0973

                     43                     44                     45
                      A                      A                      A
 Frequencies --   1424.8194              1429.5145              1438.0469
 Red. masses --      1.2260                 1.2124                 1.2237
 Frc consts  --      1.4664                 1.4597                 1.4909
 IR Inten    --      2.5625                 2.7612                 9.8280

                     46                     47                     48
                      A                      A                      A
 Frequencies --   1446.3569              1464.8899              1506.1292
 Red. masses --      1.2121                 1.1990                 1.0730
 Frc consts  --      1.4940                 1.5159                 1.4341
 IR Inten    --      2.4638                 4.3768                 2.5646

                     49                     50                     51
                      A                      A                      A
 Frequencies --   1507.5784              1517.4841              1518.3915
 Red. masses --      1.0527                 1.0520                 1.0478
 Frc consts  --      1.4097                 1.4273                 1.4233
 IR Inten    --      6.6831                 3.7331                 3.2624

                     52                     53                     54
                      A                      A                      A
 Frequencies --   1524.9680              1528.0507              1536.0231
 Red. masses --      1.0506                 1.0532                 1.0666
 Frc consts  --      1.4396                 1.4490                 1.4827
 IR Inten    --     16.9352                 0.4883                 0.9539

                     55                     56                     57
                      A                      A                      A
 Frequencies --   1544.9186              1552.8888              1561.2183
 Red. masses --      1.0509                 1.0561                 1.0545
 Frc consts  --      1.4778                 1.5005                 1.5143
 IR Inten    --      7.7257                16.5140                 5.4014

                     58                     59                     60
                      A                      A                      A
 Frequencies --   1682.9278              1804.6381              3048.2428
 Red. masses --      6.8721                 9.2883                 1.0372
 Frc consts  --     11.4676                17.8224                 5.6781
 IR Inten    --     22.7182               340.0633                28.4986

                     61                     62                     63
                      A                      A                      A
 Frequencies --   3051.0994              3053.9076              3056.3859
 Red. masses --      1.0429                 1.0504                 1.0430
 Frc consts  --      5.7203                 5.7718                 5.7404
 IR Inten    --      3.0496                12.7380                34.1622

                     64                     65                     66
                      A                      A                      A
 Frequencies --   3063.7201              3100.3934              3109.5748
 Red. masses --      1.0411                 1.0979                 1.1019
 Frc consts  --      5.7577                 6.2177                 6.2778
 IR Inten    --     44.0977                10.6968                21.0824

                     67                     68                     69
                      A                      A                      A
 Frequencies --   3112.7611              3122.4970              3133.2893
 Red. masses --      1.1019                 1.1015                 1.0883
 Frc consts  --      6.2908                 6.3275                 6.2948
 IR Inten    --      4.6634                65.3751                10.6034

                     70                     71                     72
                      A                      A                      A
 Frequencies --   3138.3541              3141.4482              3175.2297
 Red. masses --      1.0976                 1.1002                 1.0994
 Frc consts  --      6.3694                 6.3968                 6.5309
 IR Inten    --     26.7570                36.8137                11.0136

                     73                     74                     75
                      A                      A                      A
 Frequencies --   3190.9771              3205.1842              3676.7890
 Red. masses --      1.0929                 1.0931                 1.0638
 Frc consts  --      6.5563                 6.6161                 8.4730
 IR Inten    --     20.5071                10.9655                50.6114

 - Thermochemistry -
 -------------------
 Temperature   298.150 Kelvin.  Pressure   1.00000 Atm.
 Atom     1 has atomic number  6 and mass  12.00000

 Molecular mass:   156.11503 amu.
 Principal axes and moments of inertia in atomic units:
                           1         2         3
     Eigenvalues --   999.288522508.311062963.66175
           X            1.00000  -0.00015  -0.00217
           Y            0.00010   0.99973  -0.02320
           Z            0.00217   0.02320   0.99973
 This molecule is an asymmetric top.
 Rotational symmetry number  1.
 Warning -- assumption of classical behavior for rotation
           may cause significant error
 Rotational temperatures (Kelvin)      0.08668     0.03453     0.02923
 Rotational constants (GHZ):           1.80603     0.71950     0.60896
 Zero-point vibrational energy     626217.7 (Joules/Mol)
                                  149.66961 (Kcal/Mol)
 Warning -- explicit consideration of  21 degrees of freedom as
           vibrations may cause significant error
 Vibrational temperatures:     55.77    92.17   117.39   234.86   286.47
          (Kelvin)            331.57   338.99   353.92   376.53   412.89
                              441.92   460.50   473.92   515.05   568.48
                              627.24   637.27   715.45   784.32   844.16
                              880.53   927.00   974.09  1120.58  1137.52
                             1274.45  1352.72  1361.21  1401.20  1429.10
                             1494.51  1517.75  1549.15  1554.38  1583.50
                             1629.80  1680.34  1769.19  1785.53  1805.22
                             1867.50  1991.69  2050.00  2056.75  2069.03
                             2080.98  2107.65  2166.98  2169.07  2183.32
                             2184.63  2194.09  2198.52  2209.99  2222.79
                             2234.26  2246.24  2421.36  2596.47  4385.74
                             4389.85  4393.89  4397.46  4408.01  4460.77
                             4473.98  4478.57  4492.58  4508.10  4515.39
                             4519.84  4568.45  4591.10  4611.55  5290.08

 Zero-point correction=                           0.238514 (Hartree/Particle)
 Thermal correction to Energy=                    0.251503
 Thermal correction to Enthalpy=                  0.252447
 Thermal correction to Gibbs Free Energy=         0.199911
 Sum of electronic and zero-point Energies=           -502.843350
 Sum of electronic and thermal Energies=              -502.830360
 Sum of electronic and thermal Enthalpies=            -502.829416
 Sum of electronic and thermal Free Energies=         -502.881952

                     E (Thermal)             CV                S
                      KCal/Mol        Cal/Mol-Kelvin    Cal/Mol-Kelvin
 Total                  157.821             48.969            110.572
 Electronic               0.000              0.000              0.000
 Translational            0.889              2.981             41.046
 Rotational               0.889              2.981             30.386
 Vibrational            156.043             43.007             39.140
 Vibration     1          0.594              1.981              5.321
 Vibration     2          0.597              1.971              4.328
 Vibration     3          0.600              1.962              3.852
 Vibration     4          0.623              1.888              2.512
 Vibration     5          0.637              1.841              2.141
 Vibration     6          0.652              1.794              1.875
 Vibration     7          0.655              1.786              1.836
 Vibration     8          0.660              1.769              1.759
 Vibration     9          0.669              1.743              1.650
 Vibration    10          0.684              1.698              1.492
 Vibration    11          0.697              1.660              1.378
 Vibration    12          0.706              1.635              1.310
 Vibration    13          0.712              1.617              1.263
 Vibration    14          0.733              1.559              1.131
 Vibration    15          0.762              1.481              0.981
 Vibration    16          0.796              1.392              0.839
 Vibration    17          0.803              1.376              0.817
 Vibration    18          0.853              1.256              0.665
 Vibration    19          0.900              1.150              0.554
 Vibration    20          0.944              1.060              0.473
 Vibration    21          0.971              1.006              0.429

 Optimization completed.
    -- Stationary point found.

 1\1\GINC-NODE128\Freq\RB3LYP\6-31G(d)\C9H16O2\VSC10255\08-Dec-2020\0\\
 #N Geom=AllCheck Guess=TCheck SCRF=Check GenChk RB3LYP/6-31G(d) Freq\\
 CID_88160827_JID_1074_neutraal\\0,1\C,1.1011244104,-0.0411356557,0.101
 468425\C,0.5619888546,-0.5865384982,-1.2070493615\C,-0.159170254,-1.71
 98979886,-1.3889550486\C,-0.3797122056,-2.303708516,-2.7679576713\C,-0
 .7106777435,-2.5828615688,-0.2261502462\C,0.4257717812,-3.4687062096,0
 .3319887203\C,-1.3424727462,-1.7304409586,0.8977732304\C,-1.8404439639
 ,-3.52413842,-0.710018071\C,1.0013603625,0.2792533403,-2.3468165479\O,

 Normal termination of Gaussian 16 at Tue Dec  8 19:23:40 2020.

 ----------------------------------------------------------------------
 # B3LYP/6-311++G(d,p) empiricaldispersion=gd3bj scf=xqc pop=npa geom=c
 heck
 ----------------------------------------------------------------------

 --------------------------------------
 CID_88160827_JID_1074_Energie_neutraal
 --------------------------------------
 Structure from the checkpoint file:  "JID_1074.chk"
 Charge =  0 Multiplicity = 1

 SCF Done:  E(RB3LYP) =  -503.235180957     A.U. after   14 cycles
 Normal termination of Gaussian 16 at Tue Dec  8 19:26:30 2020.

 ----------------------------------------------------------------------
 # B3LYP/6-311++G(d,p) empiricaldispersion=gd3bj scf=xqc pop=npa geom=c
 heck
 ----------------------------------------------------------------------

 ------------------------------------
 CID_88160827_JID_1074_Energie_kation
 ------------------------------------
 Structure from the checkpoint file:  "JID_1074.chk"
 Charge =  1 Multiplicity = 2

 SCF Done:  E(UB3LYP) =  -502.913872386     A.U. after   22 cycles
 Normal termination of Gaussian 16 at Tue Dec  8 19:32:39 2020.
 Gaussian 16:  ES64L-G16RevA.03 25-Dec-2016

 -----------------------------------
 CID_88160827_JID_1074_Energie_anion
 -----------------------------------
 Structure from the checkpoint file:  "JID_1074.chk"
 Charge = -1 Multiplicity = 2

                         Standard orientation:
 ---------------------------------------------------------------------
 Center     Atomic      Atomic             Coordinates (Angstroms)
 Number     Number       Type             X           Y           Z
 ---------------------------------------------------------------------
      1          6           0        0.781741    1.954299   -0.074479
      2          6           0        0.822917    0.439527   -0.010280
      3          6           0       -0.231556   -0.406950    0.085776
      4          6           0       -0.043698   -1.866817    0.438791
      5          6           0       -1.709208    0.045564   -0.027177
      6          6           0       -2.156918    0.658117    1.318963
      7          6           0       -1.937584    1.043207   -1.185427
      8          6           0       -2.643429   -1.151587   -0.328115
      9          6           0        2.241980   -0.037609    0.007413
     10          8           0        3.166103    0.558684    0.527436
     11          8           0        2.465255   -1.178835   -0.700720
     12          1           0       -0.095923    2.376519    0.412358
     13          1           0        0.809160    2.322155   -1.107990
     14          1           0        1.668842    2.340691    0.432233
     15          1           0       -0.672778   -2.112235    1.303085
     16          1           0       -0.353326   -2.530457   -0.376094
     17          1           0        0.983164   -2.113650    0.693615
     18          1           0       -1.569884    1.540867    1.586020
     19          1           0       -3.211563    0.954375    1.268203
     20          1           0       -2.051434   -0.070071    2.131166
     21          1           0       -1.526499    0.646531   -2.120273
     22          1           0       -3.013621    1.193252   -1.328853
     23          1           0       -1.496036    2.023230   -1.013790
     24          1           0       -2.379163   -1.641184   -1.271880
     25          1           0       -2.639750   -1.906481    0.461858
     26          1           0       -3.670844   -0.784585   -0.422041
     27          1           0        3.423335   -1.344249   -0.614126
 ---------------------------------------------------------------------

 SCF Done:  E(UB3LYP) =  -503.222658102     A.U. after   33 cycles
 SCF Done:  E(UB3LYP) =  -503.222658102     a.u. after    1 cycles

 The electronic state is 2-A.
 Alpha  occ. eigenvalues --  -19.04114 -18.97437 -10.15932 -10.07130 -10.05108
 Alpha  occ. eigenvalues --  -10.04685 -10.04554 -10.04288 -10.03709 -10.03707
 Alpha  occ. eigenvalues --  -10.03707  -0.97902  -0.88465  -0.71848  -0.66226
 Alpha  occ. eigenvalues --   -0.61220  -0.57263  -0.56238  -0.54328  -0.50991
 Alpha  occ. eigenvalues --   -0.44600  -0.40471  -0.36482  -0.35391  -0.33704
 Alpha  occ. eigenvalues --   -0.32976  -0.32720  -0.30976  -0.30088  -0.28796
 Alpha  occ. eigenvalues --   -0.28304  -0.27113  -0.26782  -0.26209  -0.25195
 Alpha  occ. eigenvalues --   -0.24895  -0.24291  -0.22056  -0.20274  -0.19960
 Alpha  occ. eigenvalues --   -0.19535  -0.15312  -0.11785   0.05267
 Alpha virt. eigenvalues --    0.07455   0.08287   0.08688   0.09467   0.09932
 Alpha virt. eigenvalues --    0.10927   0.11423   0.11781   0.12217   0.13129
 Alpha virt. eigenvalues --    0.13876   0.14820   0.15074   0.15309   0.15546

  Beta  occ. eigenvalues --  -19.04073 -18.97267 -10.15739 -10.07146 -10.04833
  Beta  occ. eigenvalues --  -10.04664 -10.04528 -10.04278 -10.03710 -10.03663
  Beta  occ. eigenvalues --  -10.03662  -0.97706  -0.88216  -0.71628  -0.66053
  Beta  occ. eigenvalues --   -0.61063  -0.57184  -0.56150  -0.54125  -0.50704
  Beta  occ. eigenvalues --   -0.44491  -0.40273  -0.36303  -0.35220  -0.33504
  Beta  occ. eigenvalues --   -0.32740  -0.32448  -0.30761  -0.29951  -0.28613
  Beta  occ. eigenvalues --   -0.28206  -0.27023  -0.26700  -0.26083  -0.25115
  Beta  occ. eigenvalues --   -0.24813  -0.24188  -0.21933  -0.20111  -0.19814
  Beta  occ. eigenvalues --   -0.19008  -0.15129  -0.10912
  Beta virt. eigenvalues --    0.07750   0.08461   0.09222   0.09468   0.10199
  Beta virt. eigenvalues --    0.10383   0.11361   0.11773   0.12135   0.12512
  Beta virt. eigenvalues --    0.13323   0.14196   0.15066   0.15234   0.15385

 Mulliken charges and spin densities:
               1          2
     1  C    0.064709  -0.675550
     2  C    1.061900  -0.917404
     3  C    1.050052  -0.799143
     4  C    1.407058  -2.043701
     5  C   -4.171869   4.996888
     6  C   -0.111185  -0.547156
     7  C    0.879524  -1.517189
     8  C    0.928092  -1.536737
     9  C   -0.607420   0.540337
    10  O   -0.360068   0.061614
    11  O   -0.174147   0.016985
    12  H    0.172873  -0.049181
    13  H    0.046919   0.104766
    14  H    0.181760  -0.007585
    15  H   -0.174570   0.331073
    16  H    0.105627   0.059867
    17  H    0.072835   0.099011
    18  H    0.091708   0.015565
    19  H   -0.036477   0.180278
    20  H   -0.089272   0.248751
    21  H   -0.112124   0.260077
    22  H   -0.329047   0.481491
    23  H   -0.067468   0.181641
    24  H   -0.139861   0.280657
    25  H   -0.202259   0.335129
    26  H   -0.715234   0.869693
    27  H    0.227946   0.029823
 Sum of Mulliken charges =  -1.00000   1.00000

 Dipole moment (field-independent basis, Debye):
    X=              4.6428    Y=              0.7666    Z=              0.3985  Tot=              4.7225
 Quadrupole moment (field-independent basis, Debye-Ang):
   XX=           -131.5868   YY=            -95.8853   ZZ=            -95.9723
   XY=             -9.7499   XZ=             -8.1443   YZ=              4.6655

 Summary of Natural Population Analysis:

                                       Natural Population
                Natural  -----------------------------------------------
    Atom  No    Charge         Core      Valence    Rydberg      Total
 -----------------------------------------------------------------------
      C    1   -0.29313      0.99963     2.28878    0.00472     3.29313
      C    2   -0.08520      0.99938     2.07603    0.00979     3.08520
      C    3    0.08593      0.99943     1.90265    0.01199     2.91407
      C    4   -0.30264      0.99962     2.29658    0.00644     3.30264
      C    5   -0.06113      0.99956     2.04897    0.01260     3.06113
      C    6   -0.27581      0.99962     2.26958    0.00661     3.27581
      C    7   -0.28159      0.99963     2.27452    0.00744     3.28159
      C    8   -0.28418      0.99964     2.27674    0.00780     3.28418
      C    9    0.42006      0.99964     1.55501    0.02529     2.57994
      O   10   -0.31554      0.99987     3.30979    0.00588     4.31554
      O   11   -0.34979      0.99988     3.34286    0.00705     4.34979
      H   12    0.09590      0.00000     0.40313    0.00097     0.40410
      H   13    0.09826      0.00000     0.40049    0.00125     0.40174
      H   14    0.11181      0.00000     0.38698    0.00121     0.38819
      H   15    0.10332      0.00000     0.39516    0.00153     0.39668
      H   16    0.10264      0.00000     0.39631    0.00104     0.39736
      H   17    0.10625      0.00000     0.39235    0.00140     0.39375
      H   18    0.09622      0.00000     0.40294    0.00084     0.40378
      H   19    0.09632      0.00000     0.40278    0.00090     0.40368
      H   20    0.09978      0.00000     0.39925    0.00097     0.40022
      H   21    0.10187      0.00000     0.39712    0.00101     0.39813
      H   22    0.09872      0.00000     0.39987    0.00141     0.40128
      H   23    0.09922      0.00000     0.39975    0.00103     0.40078
      H   24    0.09970      0.00000     0.39914    0.00116     0.40030
      H   25    0.10124      0.00000     0.39732    0.00144     0.39876
      H   26    0.10086      0.00000     0.39713    0.00201     0.39914
      H   27    0.23092      0.00000     0.26540    0.00369     0.26908
 =======================================================================
   * Total *    0.00000     10.99591    31.87662    0.12748    43.00000

 Normal termination of Gaussian 16 at Tue Dec  8 19:42:11 2020.
