 Gaussian 16, Revision A.03,

 -----------------------------------------------------------
 # opt freq B3LYP/6-31G(d) empiricaldispersion=gd3bj scf=xqc
 -----------------------------------------------------------

 -------------------------------
 CID_147263605_JID_4036_neutraal
 -------------------------------
 Symbolic Z-matrix:
 Charge =  0 Multiplicity = 1

 SCF Done:  E(RB3LYP) =  -544.389940195     A.U. after   14 cycles
 SCF Done:  E(RB3LYP) =  -544.392255554     A.U. after   11 cycles
 SCF Done:  E(RB3LYP) =  -544.392614811     A.U. after   11 cycles
 SCF Done:  E(RB3LYP) =  -544.392695734     A.U. after   10 cycles
 SCF Done:  E(RB3LYP) =  -544.392708872     A.U. after    9 cycles
 SCF Done:  E(RB3LYP) =  -544.392710634     A.U. after    8 cycles
 SCF Done:  E(RB3LYP) =  -544.392711297     A.U. after    7 cycles
 Optimization completed.
    -- Stationary point found.
 Normal termination of Gaussian 16 at Thu Dec 10 09:12:30 2020.

 --------------------------------------------------------------------
 #N Geom=AllCheck Guess=TCheck SCRF=Check GenChk RB3LYP/6-31G(d) Freq
 --------------------------------------------------------------------

 Structure from the checkpoint file:  "JID_4036.chk"
 -------------------------------
 CID_147263605_JID_4036_neutraal
 -------------------------------
 Charge =  0 Multiplicity = 1

 SCF Done:  E(RB3LYP) =  -544.392711297     A.U. after    1 cycles

  Exact polarizability: 187.745 -13.130 148.227  -6.227 -12.645  95.779
 Approx polarizability: 261.483 -25.507 232.032 -12.924 -30.321 153.044

                      1                      2                      3
                      A                      A                      A
 Frequencies --     28.5483                73.4409                93.2252
 Red. masses --      1.0146                 3.0643                 3.0990
 Frc consts  --      0.0005                 0.0097                 0.0159
 IR Inten    --      0.2576                 0.2028                 0.2393

                      4                      5                      6
                      A                      A                      A
 Frequencies --    131.6803               135.9615               173.1542
 Red. masses --      2.5451                 2.0498                 2.7427
 Frc consts  --      0.0260                 0.0223                 0.0485
 IR Inten    --      0.0035                 0.2110                 0.1915

                      7                      8                      9
                      A                      A                      A
 Frequencies --    217.6587               244.9672               256.1167
 Red. masses --      2.4368                 1.5960                 2.7760
 Frc consts  --      0.0680                 0.0564                 0.1073
 IR Inten    --      1.1845                 0.4689                 0.1356

                     10                     11                     12
                      A                      A                      A
 Frequencies --    283.7160               322.5737               347.8812
 Red. masses --      1.9423                 3.7327                 3.1839
 Frc consts  --      0.0921                 0.2288                 0.2270
 IR Inten    --      0.4040                 0.5435                 0.1496

                     13                     14                     15
                      A                      A                      A
 Frequencies --    380.8651               413.6773               428.0365
 Red. masses --      3.2980                 2.7972                 3.4966
 Frc consts  --      0.2819                 0.2820                 0.3774
 IR Inten    --      0.0429                 1.0077                 0.9304

                     16                     17                     18
                      A                      A                      A
 Frequencies --    479.3129               525.6373               537.8030
 Red. masses --      3.4332                 3.5224                 2.8062
 Frc consts  --      0.4647                 0.5734                 0.4782
 IR Inten    --      1.3416                 2.7912                 5.2129

                     19                     20                     21
                      A                      A                      A
 Frequencies --    552.3097               625.7883               693.7470
 Red. masses --      3.0638                 3.4842                 2.5827
 Frc consts  --      0.5507                 0.8039                 0.7324
 IR Inten    --      1.8449                 1.3068                 1.7768

                     22                     23                     24
                      A                      A                      A
 Frequencies --    697.9308               749.9588               767.5990
 Red. masses --      3.1557                 1.9592                 3.2026
 Frc consts  --      0.9057                 0.6492                 1.1118
 IR Inten    --      2.7225                12.6569                 0.0726

                     25                     26                     27
                      A                      A                      A
 Frequencies --    788.9629               808.2563               837.1523
 Red. masses --      2.1541                 1.4290                 1.3798
 Frc consts  --      0.7900                 0.5500                 0.5698
 IR Inten    --      7.8105                 3.1490                20.0439

                     28                     29                     30
                      A                      A                      A
 Frequencies --    880.0405               892.6814               911.3060
 Red. masses --      2.2539                 2.1500                 1.5581
 Frc consts  --      1.0285                 1.0095                 0.7624
 IR Inten    --      0.0919                 1.9786                 5.7040

                     31                     32                     33
                      A                      A                      A
 Frequencies --    942.3384               956.4240               960.5622
 Red. masses --      1.7639                 1.3239                 3.0011
 Frc consts  --      0.9229                 0.7135                 1.6315
 IR Inten    --      1.2408                 0.2790                 3.6204

                     34                     35                     36
                      A                      A                      A
 Frequencies --    980.6152               990.5806              1032.6417
 Red. masses --      1.2931                 1.9196                 1.5122
 Frc consts  --      0.7326                 1.1098                 0.9501
 IR Inten    --      0.7323                 0.1584                 0.8391

                     37                     38                     39
                      A                      A                      A
 Frequencies --   1045.2234              1069.9915              1075.5312
 Red. masses --      2.2071                 2.0089                 1.5296
 Frc consts  --      1.4206                 1.3551                 1.0425
 IR Inten    --      0.7490                 0.0794                 9.6583

                     40                     41                     42
                      A                      A                      A
 Frequencies --   1086.2255              1116.9927              1139.8551
 Red. masses --      2.4145                 2.0905                 2.1020
 Frc consts  --      1.6785                 1.5367                 1.6091
 IR Inten    --      2.2683                 1.0318                 0.7100

                     43                     44                     45
                      A                      A                      A
 Frequencies --   1154.7602              1197.2994              1210.6567
 Red. masses --      1.9087                 1.4346                 1.2031
 Frc consts  --      1.4996                 1.2117                 1.0390
 IR Inten    --      0.7791                 1.5217                 0.9751

                     46                     47                     48
                      A                      A                      A
 Frequencies --   1234.8548              1242.8546              1272.1971
 Red. masses --      1.6293                 1.5090                 1.9152
 Frc consts  --      1.4638                 1.3733                 1.8264
 IR Inten    --      1.4108                 0.2409                 4.6346

                     49                     50                     51
                      A                      A                      A
 Frequencies --   1288.8664              1313.1850              1321.8897
 Red. masses --      1.7840                 1.4601                 1.3877
 Frc consts  --      1.7460                 1.4835                 1.4287
 IR Inten    --      0.9002                 1.7062                 0.1354

                     52                     53                     54
                      A                      A                      A
 Frequencies --   1337.8384              1359.3198              1368.1102
 Red. masses --      1.9333                 1.3662                 1.5728
 Frc consts  --      2.0387                 1.4873                 1.7344
 IR Inten    --      1.1243                 0.0665                 0.7087

                     55                     56                     57
                      A                      A                      A
 Frequencies --   1370.8249              1393.0659              1416.6273
 Red. masses --      1.3401                 1.3984                 1.5389
 Frc consts  --      1.4838                 1.5989                 1.8196
 IR Inten    --      7.6554                 0.4325                 3.1873

                     58                     59                     60
                      A                      A                      A
 Frequencies --   1426.4806              1442.1534              1442.6483
 Red. masses --      1.7194                 1.2467                 1.2514
 Frc consts  --      2.0614                 1.5277                 1.5345
 IR Inten    --      0.8761                 0.3925                 1.5728

                     61                     62                     63
                      A                      A                      A
 Frequencies --   1464.7842              1514.2347              1518.5769
 Red. masses --      2.3737                 1.0873                 1.0493
 Frc consts  --      3.0007                 1.4688                 1.4256
 IR Inten    --      2.9089                 1.0470                 5.5168

                     64                     65                     66
                      A                      A                      A
 Frequencies --   1522.4262              1524.5568              1525.4301
 Red. masses --      1.0883                 1.1206                 1.1238
 Frc consts  --      1.4861                 1.5345                 1.5407
 IR Inten    --      4.3932                 8.2567                 2.5240

                     67                     68                     69
                      A                      A                      A
 Frequencies --   1532.4752              1540.6271              1544.5826
 Red. masses --      1.0705                 1.0836                 2.4002
 Frc consts  --      1.4813                 1.5154                 3.3738
 IR Inten    --      4.1240                 3.7065                13.9827

                     70                     71                     72
                      A                      A                      A
 Frequencies --   1622.2999              1670.1181              1704.5125
 Red. masses --      5.2395                 5.8110                 6.6971
 Frc consts  --      8.1246                 9.5498                11.4641
 IR Inten    --      3.9898                 4.0312                 0.1287

                     73                     74                     75
                      A                      A                      A
 Frequencies --   3016.7184              3028.7126              3034.6578
 Red. masses --      1.0798                 1.0630                 1.0637
 Frc consts  --      5.7897                 5.7450                 5.7716
 IR Inten    --      3.9982                31.1501                27.5885

                     76                     77                     78
                      A                      A                      A
 Frequencies --   3039.4681              3040.3277              3047.0335
 Red. masses --      1.0640                 1.0410                 1.0378
 Frc consts  --      5.7916                 5.6693                 5.6770
 IR Inten    --     38.2766                36.3477                29.8183

                     79                     80                     81
                      A                      A                      A
 Frequencies --   3070.4638              3078.7418              3093.9824
 Red. masses --      1.1003                 1.0981                 1.1007
 Frc consts  --      6.1117                 6.1323                 6.2081
 IR Inten    --      6.5760                53.3612                49.4086

                     82                     83                     84
                      A                      A                      A
 Frequencies --   3097.0997              3110.5175              3122.7111
 Red. masses --      1.0956                 1.1015                 1.1014
 Frc consts  --      6.1919                 6.2791                 6.3281
 IR Inten    --     22.7486                42.6795                42.2624

                     85                     86                     87
                      A                      A                      A
 Frequencies --   3123.8423              3152.7846              3167.9429
 Red. masses --      1.1026                 1.0852                 1.0896
 Frc consts  --      6.3395                 6.3555                 6.4427
 IR Inten    --     16.6493                 5.2289                19.8573

                     88                     89                     90
                      A                      A                      A
 Frequencies --   3176.4068              3180.0915              3211.9593
 Red. masses --      1.0886                 1.0954                 1.0912
 Frc consts  --      6.4714                 6.5270                 6.6328
 IR Inten    --     20.0183                44.6545                17.8602

 - Thermochemistry -
 -------------------
 Temperature   298.150 Kelvin.  Pressure   1.00000 Atm.
 Atom     1 has atomic number  6 and mass  12.00000

 Molecular mass:   186.14085 amu.
 Principal axes and moments of inertia in atomic units:
                           1         2         3
     Eigenvalues --  1633.893143624.031184771.68124
           X            0.99992   0.01242   0.00043
           Y           -0.01242   0.99992   0.00199
           Z           -0.00040  -0.00199   1.00000
 This molecule is an asymmetric top.
 Rotational symmetry number  1.
 Warning -- assumption of classical behavior for rotation
           may cause significant error
 Rotational temperatures (Kelvin)      0.05301     0.02390     0.01815
 Rotational constants (GHZ):           1.10457     0.49799     0.37822
 Zero-point vibrational energy     747359.1 (Joules/Mol)
                                  178.62312 (Kcal/Mol)
 Warning -- explicit consideration of  19 degrees of freedom as
           vibrations may cause significant error
 Vibrational temperatures:     41.07   105.67   134.13   189.46   195.62
          (Kelvin)            249.13   313.16   352.45   368.49   408.20
                              464.11   500.52   547.98   595.19   615.85
                              689.62   756.27   773.78   794.65   900.37
                              998.15  1004.17  1079.02  1104.40  1135.14
                             1162.90  1204.48  1266.18  1284.37  1311.17
                             1355.81  1376.08  1382.03  1410.89  1425.22
                             1485.74  1503.84  1539.48  1547.45  1562.84
                             1607.10  1640.00  1661.44  1722.65  1741.86
                             1776.68  1788.19  1830.41  1854.39  1889.38
                             1901.90  1924.85  1955.76  1968.41  1972.31
                             2004.31  2038.21  2052.39  2074.94  2075.65
                             2107.50  2178.65  2184.89  2190.43  2193.50
                             2194.75  2204.89  2216.62  2222.31  2334.13
                             2402.93  2452.41  4340.38  4357.64  4366.20
                             4373.12  4374.35  4384.00  4417.71  4429.62
                             4451.55  4456.04  4475.34  4492.88  4494.51
                             4536.15  4557.96  4570.14  4575.44  4621.29

 Zero-point correction=                           0.284654 (Hartree/Particle)
 Thermal correction to Energy=                    0.297884
 Thermal correction to Enthalpy=                  0.298828
 Thermal correction to Gibbs Free Energy=         0.244738
 Sum of electronic and zero-point Energies=           -544.108057
 Sum of electronic and thermal Energies=              -544.094827
 Sum of electronic and thermal Enthalpies=            -544.093883
 Sum of electronic and thermal Free Energies=         -544.147973

                     E (Thermal)             CV                S
                      KCal/Mol        Cal/Mol-Kelvin    Cal/Mol-Kelvin
 Total                  186.925             51.995            113.843
 Electronic               0.000              0.000              0.000
 Translational            0.889              2.981             41.570
 Rotational               0.889              2.981             31.713
 Vibrational            185.148             46.033             40.559
 Vibration     1          0.593              1.984              5.928
 Vibration     2          0.599              1.967              4.059
 Vibration     3          0.602              1.954              3.591
 Vibration     4          0.612              1.922              2.921
 Vibration     5          0.614              1.917              2.860
 Vibration     6          0.627              1.876              2.401
 Vibration     7          0.646              1.814              1.978
 Vibration     8          0.660              1.771              1.767
 Vibration     9          0.666              1.752              1.688
 Vibration    10          0.682              1.704              1.511
 Vibration    11          0.708              1.630              1.297
 Vibration    12          0.726              1.580              1.176
 Vibration    13          0.751              1.511              1.036
 Vibration    14          0.777              1.441              0.914
 Vibration    15          0.790              1.409              0.865
 Vibration    16          0.836              1.296              0.712
 Vibration    17          0.881              1.193              0.597
 Vibration    18          0.893              1.166              0.570
 Vibration    19          0.908              1.135              0.539

                           ! Non-Optimized Parameters !
 Normal termination of Gaussian 16 at Thu Dec 10 09:21:52 2020.

 ----------------------------------------------------------------------
 # B3LYP/6-311++G(d,p) empiricaldispersion=gd3bj scf=xqc pop=npa geom=c
 heck
 ----------------------------------------------------------------------

 ---------------------------------------
 CID_147263605_JID_4036_Energie_neutraal
 ---------------------------------------
 Structure from the checkpoint file:  "JID_4036.chk"
 Charge =  0 Multiplicity = 1

 SCF Done:  E(RB3LYP) =  -544.531943351     A.U. after   14 cycles
 Normal termination of Gaussian 16 at Thu Dec 10 09:25:48 2020.

 ----------------------------------------------------------------------
 # B3LYP/6-311++G(d,p) empiricaldispersion=gd3bj scf=xqc pop=npa geom=c
 heck
 ----------------------------------------------------------------------

 -------------------------------------
 CID_147263605_JID_4036_Energie_kation
 -------------------------------------
 Structure from the checkpoint file:  "JID_4036.chk"
 Charge =  1 Multiplicity = 2

 SCF Done:  E(UB3LYP) =  -544.244722134     A.U. after   22 cycles
 Normal termination of Gaussian 16 at Thu Dec 10 09:34:37 2020.
 Gaussian 16:  ES64L-G16RevA.03 25-Dec-2016

 ----------------------------------------------------------------------
 # B3LYP/6-311++G(d,p) empiricaldispersion=gd3bj scf=xqc pop=npa geom=c
 heck
 ----------------------------------------------------------------------

 ------------------------------------
 CID_147263605_JID_4036_Energie_anion
 ------------------------------------
 Structure from the checkpoint file:  "JID_4036.chk"
 Charge = -1 Multiplicity = 2

                         Standard orientation:
 ---------------------------------------------------------------------
 Center     Atomic      Atomic             Coordinates (Angstroms)
 Number     Number       Type             X           Y           Z
 ---------------------------------------------------------------------
      1          6           0       -3.608300   -1.747220   -0.648371
      2          6           0       -2.138476   -1.739042   -0.217312
      3          6           0       -1.510417   -0.334747   -0.190562
      4          6           0       -2.230361    0.583363    0.823179
      5          6           0       -1.495347    1.916160    1.066392
      6          6           0       -0.936726    2.552265   -0.183434
      7          6           0        0.110442    2.031597   -0.842050
      8          6           0        0.765350    0.775634   -0.432939
      9          6           0        0.005137   -0.347488   -0.021828
     10          6           0        0.698425   -1.468352    0.445398
     11          6           0        2.091488   -1.504439    0.483731
     12          6           0        2.850829   -0.421949    0.028762
     13          6           0        2.164997    0.705467   -0.426460
     14          6           0        4.359005   -0.478215    0.010398
     15          1           0       -4.250546   -1.231755    0.073199
     16          1           0       -3.979459   -2.773508   -0.744444
     17          1           0       -3.735762   -1.253966   -1.619913
     18          1           0       -2.053788   -2.203380    0.774798
     19          1           0       -1.561473   -2.370120   -0.904625
     20          1           0       -1.689498    0.114200   -1.177950
     21          1           0       -2.340047    0.063292    1.785154
     22          1           0       -3.243060    0.779814    0.451839
     23          1           0       -0.657121    1.716776    1.747119
     24          1           0       -2.164001    2.612901    1.583537
     25          1           0       -1.371625    3.488238   -0.527997
     26          1           0        0.545013    2.570592   -1.682951
     27          1           0        0.146707   -2.341070    0.778418
     28          1           0        2.594225   -2.393060    0.858659
     29          1           0        2.730210    1.570784   -0.767627
     30          1           0        4.746523   -1.081478    0.838416
     31          1           0        4.729177   -0.928442   -0.920304
     32          1           0        4.798247    0.521982    0.085249
 ---------------------------------------------------------------------

 SCF Done:  E(UB3LYP) =  -544.517155777     A.U. after   33 cycles
 SCF Done:  E(UB3LYP) =  -544.517155777     a.u. after    1 cycles

 The electronic state is 2-A.
 Alpha  occ. eigenvalues --  -10.06864 -10.06676 -10.06455 -10.06294 -10.06108
 Alpha  occ. eigenvalues --  -10.06052 -10.05634 -10.05626 -10.05602 -10.05505
 Alpha  occ. eigenvalues --  -10.05266 -10.05252 -10.05042 -10.04922  -0.75492
 Alpha  occ. eigenvalues --   -0.71331  -0.68344  -0.65828  -0.64081  -0.61306
 Alpha  occ. eigenvalues --   -0.59054  -0.54782  -0.52297  -0.49599  -0.48259
 Alpha  occ. eigenvalues --   -0.44137  -0.41919  -0.37886  -0.37282  -0.35850
 Alpha  occ. eigenvalues --   -0.34587  -0.33810  -0.32563  -0.31899  -0.31552
 Alpha  occ. eigenvalues --   -0.29773  -0.29559  -0.28418  -0.27795  -0.26466
 Alpha  occ. eigenvalues --   -0.25562  -0.24983  -0.24709  -0.24145  -0.21514
 Alpha  occ. eigenvalues --   -0.21195  -0.20905  -0.20485  -0.16343  -0.12993
 Alpha  occ. eigenvalues --   -0.11314   0.04775
 Alpha virt. eigenvalues --    0.06574   0.06994   0.07666   0.08157   0.08756
 Alpha virt. eigenvalues --    0.09116   0.09237   0.10207   0.10540   0.10874
 Alpha virt. eigenvalues --    0.11183   0.11235   0.11971   0.12857   0.13181

  Beta  occ. eigenvalues --  -10.06891 -10.06656 -10.06455 -10.06274 -10.06062
  Beta  occ. eigenvalues --  -10.06038 -10.05614 -10.05600 -10.05592 -10.05484
  Beta  occ. eigenvalues --  -10.05193 -10.05152 -10.04940 -10.04859  -0.75390
  Beta  occ. eigenvalues --   -0.71261  -0.68213  -0.65764  -0.63972  -0.61178
  Beta  occ. eigenvalues --   -0.58973  -0.54702  -0.52147  -0.49534  -0.48114
  Beta  occ. eigenvalues --   -0.44071  -0.41798  -0.37813  -0.37198  -0.35783
  Beta  occ. eigenvalues --   -0.34517  -0.33754  -0.32512  -0.31853  -0.31495
  Beta  occ. eigenvalues --   -0.29701  -0.29508  -0.28358  -0.27732  -0.26400
  Beta  occ. eigenvalues --   -0.25498  -0.24880  -0.24587  -0.24048  -0.21420
  Beta  occ. eigenvalues --   -0.21137  -0.20812  -0.20433  -0.15921  -0.12711
  Beta  occ. eigenvalues --   -0.10826
  Beta virt. eigenvalues --    0.06805   0.07207   0.07820   0.08266   0.08653
  Beta virt. eigenvalues --    0.08983   0.09285   0.09552   0.10606   0.10726
  Beta virt. eigenvalues --    0.11154   0.11313   0.11418   0.12126   0.13039

 Mulliken charges and spin densities:
               1          2
     1  C    0.979284  -1.657705
     2  C   -1.152638   1.053083
     3  C    0.591690  -0.165548
     4  C   -0.010489  -0.581118
     5  C    0.113400  -0.809999
     6  C    0.263627  -0.170663
     7  C   -1.165381   0.270802
     8  C    0.552301  -0.239777
     9  C    0.965379  -0.099903
    10  C   -0.330969   0.053716
    11  C   -1.072313   0.140101
    12  C    0.125397   0.647913
    13  C   -0.590375   0.167874
    14  C    1.026085  -1.485600
    15  H   -0.199276   0.355068
    16  H   -0.355773   0.494627
    17  H   -0.102704   0.238590
    18  H    0.137352  -0.019761
    19  H    0.034576   0.112669
    20  H    0.219845  -0.027238
    21  H   -0.158648   0.314650
    22  H   -0.016276   0.117161
    23  H    0.163526  -0.037170
    24  H   -0.204403   0.375033
    25  H   -0.292520   0.444861
    26  H   -0.078973   0.249855
    27  H   -0.107570   0.245494
    28  H   -0.127060   0.254011
    29  H   -0.043211   0.171043
    30  H   -0.209592   0.347169
    31  H    0.108359   0.042566
    32  H   -0.062649   0.198196
 Sum of Mulliken charges =  -1.00000   1.00000

 Dipole moment (field-independent basis, Debye):
    X=              2.3917    Y=             -0.6246    Z=             -0.2766  Tot=              2.4873
 Quadrupole moment (field-independent basis, Debye-Ang):
   XX=           -158.5985   YY=           -129.3729   ZZ=           -113.5498
   XY=              0.1401   XZ=             -2.5700   YZ=              1.3897

 Summary of Natural Population Analysis:

                                       Natural Population
                Natural  -----------------------------------------------
    Atom  No    Charge         Core      Valence    Rydberg      Total
 -----------------------------------------------------------------------
      C    1   -0.28412      0.99967     2.27969    0.00477     3.28412
      C    2   -0.18705      0.99963     2.17750    0.00991     3.18705
      C    3   -0.12072      0.99955     2.11107    0.01010     3.12072
      C    4   -0.17511      0.99961     2.16698    0.00853     3.17511
      C    5   -0.21440      0.99962     2.20522    0.00956     3.21440
      C    6   -0.06018      0.99954     2.05072    0.00993     3.06018
      C    7   -0.10324      0.99951     2.09316    0.01057     3.10324
      C    8   -0.02514      0.99947     2.01544    0.01024     3.02514
      C    9   -0.00114      0.99947     1.99189    0.00978     3.00114
      C   10   -0.10072      0.99952     2.09158    0.00963     3.10072
      C   11   -0.08629      0.99952     2.07727    0.00950     3.08629
      C   12   -0.02750      0.99951     2.01968    0.00831     3.02750
      C   13   -0.08162      0.99948     2.07346    0.00868     3.08162
      C   14   -0.28899      0.99964     2.28438    0.00498     3.28899
      H   15    0.09776      0.00000     0.40112    0.00112     0.40224
      H   16    0.09734      0.00000     0.40173    0.00093     0.40266
      H   17    0.09541      0.00000     0.40358    0.00101     0.40459
      H   18    0.09251      0.00000     0.40621    0.00128     0.40749
      H   19    0.09796      0.00000     0.40092    0.00112     0.40204
      H   20    0.10355      0.00000     0.39448    0.00196     0.39645
      H   21    0.09382      0.00000     0.40490    0.00128     0.40618
      H   22    0.09651      0.00000     0.40206    0.00143     0.40349
      H   23    0.10315      0.00000     0.39559    0.00126     0.39685
      H   24    0.10118      0.00000     0.39769    0.00113     0.39882
      H   25    0.09346      0.00000     0.40548    0.00106     0.40654
      H   26    0.09670      0.00000     0.40180    0.00150     0.40330
      H   27    0.09794      0.00000     0.40047    0.00158     0.40206
      H   28    0.09407      0.00000     0.40501    0.00092     0.40593
      H   29    0.09457      0.00000     0.40409    0.00133     0.40543
      H   30    0.10100      0.00000     0.39762    0.00138     0.39900
      H   31    0.09967      0.00000     0.39901    0.00132     0.40033
      H   32    0.09963      0.00000     0.39928    0.00109     0.40037
 =======================================================================
   * Total *   -0.00000     13.99372    36.85906    0.14722    51.00000

 Normal termination of Gaussian 16 at Thu Dec 10 09:47:24 2020.
