 Gaussian 16, Revision A.03,

 -----------------------------------------------------------
 # opt freq B3LYP/6-31G(d) empiricaldispersion=gd3bj scf=xqc
 -----------------------------------------------------------

 ------------------------------
 CID_21119065_JID_5382_neutraal
 ------------------------------
 Symbolic Z-matrix:
 Charge =  0 Multiplicity = 1

 SCF Done:  E(RB3LYP) =  -1031.45270783     A.U. after   15 cycles
 SCF Done:  E(RB3LYP) =  -1031.44871161     A.U. after   15 cycles
 SCF Done:  E(RB3LYP) =  -1031.45702854     A.U. after   12 cycles
 SCF Done:  E(RB3LYP) =  -1031.45109995     A.U. after   14 cycles
 SCF Done:  E(RB3LYP) =  -1031.45819966     A.U. after   13 cycles
 SCF Done:  E(RB3LYP) =  -1031.45613752     A.U. after   13 cycles
 SCF Done:  E(RB3LYP) =  -1031.45968598     A.U. after   12 cycles
 SCF Done:  E(RB3LYP) =  -1031.46094064     A.U. after   13 cycles
 SCF Done:  E(RB3LYP) =  -1031.46057608     A.U. after   13 cycles
 SCF Done:  E(RB3LYP) =  -1031.46150084     A.U. after   12 cycles
 SCF Done:  E(RB3LYP) =  -1031.46166157     A.U. after   10 cycles
 SCF Done:  E(RB3LYP) =  -1031.46166328     A.U. after   10 cycles
 SCF Done:  E(RB3LYP) =  -1031.46166417     A.U. after    9 cycles
 SCF Done:  E(RB3LYP) =  -1031.46166430     A.U. after    7 cycles
 SCF Done:  E(RB3LYP) =  -1031.46166445     A.U. after    7 cycles
 SCF Done:  E(RB3LYP) =  -1031.46166444     A.U. after    7 cycles
 Optimization completed.
    -- Stationary point found.
 Normal termination of Gaussian 16 at Thu Dec 10 16:02:13 2020.

 --------------------------------------------------------------------
 #N Geom=AllCheck Guess=TCheck SCRF=Check GenChk RB3LYP/6-31G(d) Freq
 --------------------------------------------------------------------

 Structure from the checkpoint file:  "JID_5382.chk"
 ------------------------------
 CID_21119065_JID_5382_neutraal
 ------------------------------
 Charge =  0 Multiplicity = 1

 SCF Done:  E(RB3LYP) =  -1031.46166444     A.U. after    1 cycles

  Exact polarizability: 195.493  16.630 139.741  -5.836   8.512 118.283
 Approx polarizability: 244.671  22.109 213.560 -12.772  23.991 181.591

                      1                      2                      3
                      A                      A                      A
 Frequencies --     19.2344                23.0462                45.3674
 Red. masses --      4.3150                 4.2047                 3.4918
 Frc consts  --      0.0009                 0.0013                 0.0042
 IR Inten    --      1.2195                 0.8975                 1.2439

                      4                      5                      6
                      A                      A                      A
 Frequencies --     62.0854                72.2528                98.7060
 Red. masses --      3.4826                 3.8066                 2.9584
 Frc consts  --      0.0079                 0.0117                 0.0170
 IR Inten    --      0.2191                 0.1606                 0.6631

                      7                      8                      9
                      A                      A                      A
 Frequencies --    117.1536               128.4289               156.7940
 Red. masses --      4.5445                 3.0617                 4.1901
 Frc consts  --      0.0367                 0.0298                 0.0607
 IR Inten    --      2.2733                 5.8216                 0.6531

                     10                     11                     12
                      A                      A                      A
 Frequencies --    175.2061               196.7007               221.8843
 Red. masses --      4.3509                 2.1934                 2.3593
 Frc consts  --      0.0787                 0.0500                 0.0684
 IR Inten    --      4.1656                 2.3838                 2.9547

                     13                     14                     15
                      A                      A                      A
 Frequencies --    257.4061               266.8422               280.1370
 Red. masses --      2.1946                 2.7725                 2.2499
 Frc consts  --      0.0857                 0.1163                 0.1040
 IR Inten    --      4.2967                 4.6381                 1.6487

                     16                     17                     18
                      A                      A                      A
 Frequencies --    301.3845               328.0286               344.0748
 Red. masses --      1.9556                 1.4181                 3.7669
 Frc consts  --      0.1047                 0.0899                 0.2628
 IR Inten    --      2.8128                63.1922                 3.6275

                     19                     20                     21
                      A                      A                      A
 Frequencies --    363.9392               421.7304               431.1812
 Red. masses --      2.3732                 2.3515                 2.3121
 Frc consts  --      0.1852                 0.2464                 0.2533
 IR Inten    --      3.7258                 1.0961                 0.0956

                     22                     23                     24
                      A                      A                      A
 Frequencies --    477.0661               492.0953               523.4441
 Red. masses --      3.3621                 2.3678                 2.4596
 Frc consts  --      0.4508                 0.3378                 0.3971
 IR Inten    --      8.0153                 7.0843                 1.4977

                     25                     26                     27
                      A                      A                      A
 Frequencies --    593.6385               646.3742               665.7364
 Red. masses --      5.3050                 4.1743                 4.4290
 Frc consts  --      1.1015                 1.0275                 1.1565
 IR Inten    --     41.6898                 1.6302                 1.4415

                     28                     29                     30
                      A                      A                      A
 Frequencies --    722.9142               737.1224               768.1222
 Red. masses --      1.3382                 2.1040                 1.7719
 Frc consts  --      0.4120                 0.6736                 0.6159
 IR Inten    --     22.1720                11.0860                34.1283

                     31                     32                     33
                      A                      A                      A
 Frequencies --    770.7012               803.1173               826.6234
 Red. masses --      1.4102                 2.5638                 1.5387
 Frc consts  --      0.4935                 0.9743                 0.6195
 IR Inten    --    213.8577                32.9840                 4.4047

                     34                     35                     36
                      A                      A                      A
 Frequencies --    838.9491               849.8581               871.4089
 Red. masses --      1.7059                 1.4527                 2.2974
 Frc consts  --      0.7074                 0.6182                 1.0278
 IR Inten    --      1.6065                 1.8636                10.0528

                     37                     38                     39
                      A                      A                      A
 Frequencies --    911.1983               924.8743               928.1409
 Red. masses --      2.3623                 2.1718                 2.1848
 Frc consts  --      1.1556                 1.0946                 1.1089
 IR Inten    --      4.6544                 3.3548                 3.9936

                     40                     41                     42
                      A                      A                      A
 Frequencies --    954.5903               963.0284              1005.5328
 Red. masses --      1.2949                 2.0341                 1.7190
 Frc consts  --      0.6952                 1.1115                 1.0240
 IR Inten    --     93.2064                 0.5017                 0.2332

                     43                     44                     45
                      A                      A                      A
 Frequencies --   1033.5246              1047.6952              1053.2819
 Red. masses --      1.5975                 1.8932                 1.7378
 Frc consts  --      1.0054                 1.2244                 1.1359
 IR Inten    --      0.3385                43.9479                 1.8862

                     46                     47                     48
                      A                      A                      A
 Frequencies --   1097.6216              1115.7527              1118.0689
 Red. masses --      1.8393                 1.8247                 1.7411
 Frc consts  --      1.3056                 1.3384                 1.2823
 IR Inten    --      1.8929                 8.2189                14.1068

                     49                     50                     51
                      A                      A                      A
 Frequencies --   1142.2712              1164.0783              1175.5814
 Red. masses --      2.0192                 1.8111                 1.3583
 Frc consts  --      1.5523                 1.4459                 1.1060
 IR Inten    --      2.2177                 8.8563                 1.9853

                     52                     53                     54
                      A                      A                      A
 Frequencies --   1210.8231              1214.0812              1244.5436
 Red. masses --      1.4443                 1.3342                 1.2271
 Frc consts  --      1.2476                 1.1587                 1.1198
 IR Inten    --     34.9116                15.7313                 4.0405

                     55                     56                     57
                      A                      A                      A
 Frequencies --   1273.6587              1308.0648              1311.2101
 Red. masses --      1.4381                 1.8135                 1.2780
 Frc consts  --      1.3745                 1.8282                 1.2946
 IR Inten    --     61.3509               199.9817                 9.0486

                     58                     59                     60
                      A                      A                      A
 Frequencies --   1326.4800              1345.7570              1366.5640
 Red. masses --      1.4124                 1.1351                 1.5960
 Frc consts  --      1.4642                 1.2112                 1.7561
 IR Inten    --     53.6246                11.8284                24.4323

                     61                     62                     63
                      A                      A                      A
 Frequencies --   1373.4514              1380.5420              1386.2135
 Red. masses --      1.3656                 1.6210                 1.4381
 Frc consts  --      1.5178                 1.8203                 1.6281
 IR Inten    --     14.1261                54.9426                26.5464

                     64                     65                     66
                      A                      A                      A
 Frequencies --   1404.5859              1419.6786              1420.1922
 Red. masses --      1.7306                 1.3735                 1.4591
 Frc consts  --      2.0116                 1.6310                 1.7339
 IR Inten    --    102.7435                 4.3065                 7.2568

                     67                     68                     69
                      A                      A                      A
 Frequencies --   1435.2413              1442.9807              1487.9666
 Red. masses --      1.3936                 1.2774                 1.1067
 Frc consts  --      1.6914                 1.5671                 1.4437
 IR Inten    --     13.8680                 1.8189                30.0073

                     70                     71                     72
                      A                      A                      A
 Frequencies --   1505.0773              1514.9244              1521.6532
 Red. masses --      1.0876                 1.1012                 1.0698
 Frc consts  --      1.4516                 1.4891                 1.4595
 IR Inten    --      1.7838                11.2640                 5.5683

                     73                     74                     75
                      A                      A                      A
 Frequencies --   1526.4992              1529.3336              1531.6190
 Red. masses --      1.0924                 1.0642                 1.0779
 Frc consts  --      1.4998                 1.4664                 1.4898
 IR Inten    --      9.4388                14.8553                 7.9262

                     76                     77                     78
                      A                      A                      A
 Frequencies --   1539.4312              1543.5404              1553.3688
 Red. masses --      1.0727                 1.1057                 2.1442
 Frc consts  --      1.4978                 1.5521                 3.0484
 IR Inten    --      5.1070                51.1251               698.3623

                     79                     80                     81
                      A                      A                      A
 Frequencies --   1670.0612              1689.5832              1701.6518
 Red. masses --      2.3029                 1.0900                 3.4680
 Frc consts  --      3.7844                 1.8333                 5.9166
 IR Inten    --    461.6554                43.9679                81.5655

                     82                     83                     84
                      A                      A                      A
 Frequencies --   3015.3338              3023.0519              3035.4145
 Red. masses --      1.0679                 1.0687                 1.0603
 Frc consts  --      5.7209                 5.7544                 5.7559
 IR Inten    --     63.8639                15.3455                44.2714

                     85                     86                     87
                      A                      A                      A
 Frequencies --   3037.7049              3043.2957              3047.9113
 Red. masses --      1.0575                 1.0419                 1.0680
 Frc consts  --      5.7493                 5.6852                 5.8454
 IR Inten    --     18.4999                29.9121                 6.4871

                     88                     89                     90
                      A                      A                      A
 Frequencies --   3065.1349              3065.8015              3072.3535
 Red. masses --      1.0970                 1.0955                 1.0648
 Frc consts  --      6.0723                 6.0666                 5.9217
 IR Inten    --     43.7138                40.3757                27.3640

                     91                     92                     93
                      A                      A                      A
 Frequencies --   3078.7198              3088.8187              3089.3692
 Red. masses --      1.0825                 1.0991                 1.0735
 Frc consts  --      6.0455                 6.1784                 6.0368
 IR Inten    --      9.7967                29.9029                33.3439

                     94                     95                     96
                      A                      A                      A
 Frequencies --   3091.2939              3106.1588              3113.8621
 Red. masses --      1.1001                 1.1015                 1.1018
 Frc consts  --      6.1939                 6.2617                 6.2943
 IR Inten    --     54.9950                52.7523                51.5536

                     97                     98                     99
                      A                      A                      A
 Frequencies --   3136.5757              3141.2353              3314.6425
 Red. masses --      1.0999                 1.1063                 1.0512
 Frc consts  --      6.3757                 6.4319                 6.8049
 IR Inten    --     21.6043                 5.4152               271.4901

                    100                    101                    102
                      A                      A                      A
 Frequencies --   3447.8632              3479.7862              3565.3697
 Red. masses --      1.1049                 1.0516                 1.0920
 Frc consts  --      7.7389                 7.5027                 8.1787
 IR Inten    --    448.3847                 2.7133                 2.2522

 - Thermochemistry -
 -------------------
 Temperature   298.150 Kelvin.  Pressure   1.00000 Atm.
 Atom     1 has atomic number  6 and mass  12.00000

 Molecular mass:   231.14053 amu.
 Principal axes and moments of inertia in atomic units:
                           1         2         3
     Eigenvalues --  2132.326927653.343728593.16334
           X            0.99996  -0.00840  -0.00421
           Y            0.00832   0.99982  -0.01707
           Z            0.00435   0.01704   0.99985
 This molecule is an asymmetric top.
 Rotational symmetry number  1.
 Warning -- assumption of classical behavior for rotation
           may cause significant error
 Rotational temperatures (Kelvin)      0.04062     0.01132     0.01008
 Rotational constants (GHZ):           0.84637     0.23581     0.21002
 Zero-point vibrational energy     836025.0 (Joules/Mol)
                                  199.81478 (Kcal/Mol)
 Warning -- explicit consideration of  25 degrees of freedom as
           vibrations may cause significant error
 Vibrational temperatures:     27.67    33.16    65.27    89.33   103.96
          (Kelvin)            142.02   168.56   184.78   225.59   252.08
                              283.01   319.24   370.35   383.93   403.05
                              433.63   471.96   495.05   523.63   606.78
                              620.37   686.39   708.02   753.12   854.11
                              929.99   957.85  1040.11  1060.55  1105.16
                             1108.87  1155.51  1189.33  1207.06  1222.76
                             1253.76  1311.01  1330.69  1335.39  1373.44
                             1385.58  1446.74  1487.01  1507.40  1515.44
                             1579.23  1605.32  1608.65  1643.47  1674.85
                             1691.40  1742.10  1746.79  1790.62  1832.51
                             1882.01  1886.54  1908.51  1936.24  1966.18
                             1976.09  1986.29  1994.45  2020.89  2042.60
                             2043.34  2064.99  2076.13  2140.85  2165.47
                             2179.64  2189.32  2196.29  2200.37  2203.66
                             2214.90  2220.81  2234.95  2402.85  2430.93
                             2448.30  4338.39  4349.50  4367.28  4370.58
                             4378.62  4385.26  4410.05  4411.00  4420.43
                             4429.59  4444.12  4444.91  4447.68  4469.07
                             4480.15  4512.83  4519.54  4769.03  4960.71
                             5006.64  5129.77

 Zero-point correction=                           0.318425 (Hartree/Particle)
 Thermal correction to Energy=                    0.335952
 Thermal correction to Enthalpy=                  0.336896
 Thermal correction to Gibbs Free Energy=         0.270772
 Sum of electronic and zero-point Energies=          -1031.143239
 Sum of electronic and thermal Energies=             -1031.125713
 Sum of electronic and thermal Enthalpies=           -1031.124769
 Sum of electronic and thermal Free Energies=        -1031.190892

                     E (Thermal)             CV                S
                      KCal/Mol        Cal/Mol-Kelvin    Cal/Mol-Kelvin
 Total                  210.813             64.244            139.169
 Electronic               0.000              0.000              0.000
 Translational            0.889              2.981             42.215
 Rotational               0.889              2.981             33.305
 Vibrational            209.035             58.283             63.648
 Vibration     1          0.593              1.986              6.712
 Vibration     2          0.593              1.985              6.353
 Vibration     3          0.595              1.979              5.010
 Vibration     4          0.597              1.972              4.390
 Vibration     5          0.598              1.967              4.091
 Vibration     6          0.604              1.950              3.480
 Vibration     7          0.608              1.935              3.147
 Vibration     8          0.611              1.925              2.969
 Vibration     9          0.620              1.895              2.588
 Vibration    10          0.627              1.873              2.379
 Vibration    11          0.636              1.844              2.164
 Vibration    12          0.648              1.808              1.944
 Vibration    13          0.667              1.750              1.679
 Vibration    14          0.672              1.734              1.617
 Vibration    15          0.680              1.710              1.533
 Vibration    16          0.693              1.671              1.409
 Vibration    17          0.711              1.619              1.270
 Vibration    18          0.723              1.587              1.193
 Vibration    19          0.737              1.546              1.105
 Vibration    20          0.784              1.423              0.886
 Vibration    21          0.792              1.402              0.855
 Vibration    22          0.834              1.301              0.718
 Vibration    23          0.848              1.268              0.678
 Vibration    24          0.878              1.198              0.602
 Vibration    25          0.951              1.045              0.461

 Optimization completed.
    -- Stationary point found.
 Normal termination of Gaussian 16 at Thu Dec 10 16:13:08 2020.

 ----------------------------------------------------------------------
 # B3LYP/6-311++G(d,p) empiricaldispersion=gd3bj scf=xqc pop=npa geom=c
 heck
 ----------------------------------------------------------------------

 --------------------------------------
 CID_21119065_JID_5382_Energie_neutraal
 --------------------------------------
 Structure from the checkpoint file:  "JID_5382.chk"
 Charge =  0 Multiplicity = 1

 SCF Done:  E(RB3LYP) =  -1031.68232723     A.U. after   14 cycles
 Normal termination of Gaussian 16 at Thu Dec 10 16:18:46 2020.

 ----------------------------------------------------------------------
 # B3LYP/6-311++G(d,p) empiricaldispersion=gd3bj scf=xqc pop=npa geom=c
 heck
 ----------------------------------------------------------------------

 ------------------------------------
 CID_21119065_JID_5382_Energie_kation
 ------------------------------------
 Structure from the checkpoint file:  "JID_5382.chk"
 Charge =  1 Multiplicity = 2

 SCF Done:  E(UB3LYP) =  -1031.37163689     A.U. after   30 cycles
 Normal termination of Gaussian 16 at Thu Dec 10 16:38:22 2020.
 Gaussian 16:  ES64L-G16RevA.03 25-Dec-2016

 ----------------------------------------------------------------------
 # B3LYP/6-311++G(d,p) empiricaldispersion=gd3bj scf=xqc pop=npa geom=c
 heck
 ----------------------------------------------------------------------

 -----------------------------------
 CID_21119065_JID_5382_Energie_anion
 -----------------------------------
 Structure from the checkpoint file:  "JID_5382.chk"
 Charge = -1 Multiplicity = 2

                         Standard orientation:
 ---------------------------------------------------------------------
 Center     Atomic      Atomic             Coordinates (Angstroms)
 Number     Number       Type             X           Y           Z
 ---------------------------------------------------------------------
      1          6           0        5.074398   -1.811411    0.375330
      2          6           0        3.875726   -1.569012   -0.546965
      3          6           0        2.561204   -1.290483    0.196589
      4          6           0        2.581714   -0.059560    1.117291
      5          6           0        2.972100    1.260879    0.435664
      6          6           0        2.100692    1.630518   -0.782169
      7          6           0        0.639015    1.720285   -0.386921
      8          8           0        0.253051    2.649905    0.337743
      9          7           0       -0.140530    0.683951   -0.870225
     10          6           0       -1.363375    0.536892   -0.418326
     11          7           0       -2.035829    1.344839    0.412391
     12         16           0       -2.149217   -0.950483   -1.031736
     13          6           0       -3.944865   -0.635419   -0.772432
     14          6           0       -4.509438   -1.156540    0.549105
     15          7           0       -3.798082   -0.569253    1.695142
     16          1           0        5.312003   -0.923792    0.972408
     17          1           0        5.971236   -2.072311   -0.197999
     18          1           0        4.872833   -2.633722    1.073429
     19          1           0        4.101989   -0.735820   -1.225655
     20          1           0        3.732282   -2.447455   -1.189948
     21          1           0        1.749784   -1.174629   -0.531337
     22          1           0        2.305670   -2.171143    0.803472
     23          1           0        1.585216    0.053208    1.564956
     24          1           0        3.269022   -0.231464    1.955912
     25          1           0        2.897307    2.073280    1.167854
     26          1           0        4.019872    1.222338    0.112732
     27          1           0        2.413771    2.612043   -1.155680
     28          1           0        2.216827    0.899517   -1.585444
     29          1           0       -2.811271    0.967828    0.968683
     30          1           0       -1.476242    2.142137    0.727609
     31          1           0       -4.111441    0.440541   -0.870985
     32          1           0       -4.443322   -1.131532   -1.610961
     33          1           0       -5.560943   -0.851625    0.609308
     34          1           0       -4.488834   -2.256634    0.551213
     35          1           0       -4.355755   -0.653305    2.541977
     36          1           0       -2.938883   -1.092613    1.860119
 ---------------------------------------------------------------------

 SCF Done:  E(UB3LYP) =  -1031.68009808     A.U. after   30 cycles

 The electronic state is 2-A.
 Alpha  occ. eigenvalues --  -88.74883 -18.97320 -14.21008 -14.20284 -14.17072
 Alpha  occ. eigenvalues --  -10.15630 -10.13956 -10.10128 -10.09989 -10.07863
 Alpha  occ. eigenvalues --  -10.07804 -10.06876 -10.06557 -10.06387 -10.05972
 Alpha  occ. eigenvalues --   -7.83485  -5.79863  -5.79460  -5.78916  -0.91857
 Alpha  occ. eigenvalues --   -0.84185  -0.79391  -0.75556  -0.71624  -0.68911
 Alpha  occ. eigenvalues --   -0.67583  -0.62337  -0.60666  -0.57175  -0.53303
 Alpha  occ. eigenvalues --   -0.50901  -0.47521  -0.45332  -0.43532  -0.42886
 Alpha  occ. eigenvalues --   -0.40546  -0.38914  -0.37778  -0.37761  -0.35811
 Alpha  occ. eigenvalues --   -0.34269  -0.32997  -0.32585  -0.31802  -0.30876
 Alpha  occ. eigenvalues --   -0.30453  -0.29528  -0.28987  -0.28480  -0.27451
 Alpha  occ. eigenvalues --   -0.26656  -0.26088  -0.25651  -0.23731  -0.22454
 Alpha  occ. eigenvalues --   -0.21881  -0.21826  -0.21494  -0.17786  -0.16099
 Alpha  occ. eigenvalues --   -0.14975  -0.13263  -0.12812   0.03911
 Alpha virt. eigenvalues --    0.05707   0.06307   0.07572   0.08061   0.08088
 Alpha virt. eigenvalues --    0.08581   0.09106   0.09728   0.10466   0.11030
 Alpha virt. eigenvalues --    0.11228   0.11403   0.11730   0.12149   0.12804

  Beta  occ. eigenvalues --  -88.74890 -18.97165 -14.20923 -14.20224 -14.17140
  Beta  occ. eigenvalues --  -10.15392 -10.13802 -10.10108 -10.09936 -10.07855
  Beta  occ. eigenvalues --  -10.07802 -10.06857 -10.06552 -10.06385 -10.05985
  Beta  occ. eigenvalues --   -7.83491  -5.79871  -5.79469  -5.78927  -0.91579
  Beta  occ. eigenvalues --   -0.83937  -0.79296  -0.75453  -0.71609  -0.68834
  Beta  occ. eigenvalues --   -0.67550  -0.62257  -0.60540  -0.57116  -0.53130
  Beta  occ. eigenvalues --   -0.50801  -0.47404  -0.45228  -0.43441  -0.42802
  Beta  occ. eigenvalues --   -0.40463  -0.38872  -0.37713  -0.37666  -0.35718
  Beta  occ. eigenvalues --   -0.34185  -0.32859  -0.32433  -0.31618  -0.30715
  Beta  occ. eigenvalues --   -0.30389  -0.29365  -0.28906  -0.28311  -0.27379
  Beta  occ. eigenvalues --   -0.26544  -0.25945  -0.25604  -0.23310  -0.22432
  Beta  occ. eigenvalues --   -0.21799  -0.21776  -0.21257  -0.17700  -0.15982
  Beta  occ. eigenvalues --   -0.14736  -0.13145  -0.12734
  Beta virt. eigenvalues --    0.05774   0.06970   0.07615   0.07892   0.08306
  Beta virt. eigenvalues --    0.08557   0.08888   0.09616   0.10114   0.10387
  Beta virt. eigenvalues --    0.10946   0.11338   0.11555   0.11826   0.12182

 Mulliken charges and spin densities:
               1          2
     1  C   -0.446181  -0.185688
     2  C   -0.296485   0.062709
     3  C   -0.206843  -0.121571
     4  C    0.000409   0.117417
     5  C   -0.191455  -0.241422
     6  C   -0.193117  -0.002304
     7  C   -0.360032   0.108007
     8  O   -0.317755   0.054235
     9  N    0.140910  -0.019022
    10  C   -0.367404   0.063370
    11  N   -0.388077   0.053215
    12  S    0.248087  -0.055509
    13  C   -0.841778   0.487850
    14  C    1.925407  -2.322112
    15  N   -0.674827   0.125422
    16  H    0.094947   0.040080
    17  H    0.062583   0.059830
    18  H    0.103762   0.028301
    19  H    0.116745   0.013294
    20  H    0.103579   0.034204
    21  H    0.169162  -0.008415
    22  H    0.057557   0.063791
    23  H    0.124575   0.044101
    24  H    0.117069   0.049132
    25  H    0.185551  -0.014270
    26  H    0.052416   0.079862
    27  H    0.108105   0.062300
    28  H    0.172981  -0.011607
    29  H    0.432542  -0.063748
    30  H    0.311721   0.013847
    31  H    0.211574  -0.012391
    32  H   -0.168181   0.377613
    33  H   -0.693605   0.848500
    34  H   -0.383941   0.528373
    35  H   -0.310390   0.591746
    36  H    0.100387   0.150860
 Sum of Mulliken charges =  -1.00000   1.00000

 Dipole moment (field-independent basis, Debye):
    X=              8.5089    Y=              0.4931    Z=             -2.3431  Tot=              8.8393
 Quadrupole moment (field-independent basis, Debye-Ang):
   XX=           -193.2653   YY=           -138.6600   ZZ=           -131.0070
   XY=            -15.4778   XZ=             14.4591   YZ=              1.9293

 Summary of Natural Population Analysis:

                                       Natural Population
                Natural  -----------------------------------------------
    Atom  No    Charge         Core      Valence    Rydberg      Total
 -----------------------------------------------------------------------
      C    1   -0.28788      0.99967     2.28360    0.00461     3.28788
      C    2   -0.19250      0.99964     2.18555    0.00730     3.19250
      C    3   -0.19781      0.99963     2.18984    0.00835     3.19781
      C    4   -0.19289      0.99963     2.18564    0.00762     3.19289
      C    5   -0.18526      0.99963     2.17793    0.00770     3.18526
      C    6   -0.22792      0.99959     2.21949    0.00884     3.22792
      C    7    0.35730      0.99967     1.61831    0.02471     2.64270
      O    8   -0.33117      0.99987     3.32548    0.00583     4.33117
      N    9   -0.35383      0.99962     2.84382    0.01039     3.85383
      C   10    0.21719      0.99961     1.76136    0.02183     2.78281
      N   11   -0.39723      0.99965     2.88892    0.00866     3.89723
      S   12    0.11623      4.99954     2.86559    0.01865     7.88377
      C   13   -0.25986      0.99958     2.24874    0.01153     3.25986
      C   14   -0.09327      0.99962     2.08032    0.01333     3.09327
      N   15   -0.43738      0.99977     2.92484    0.01277     3.93738
      H   16    0.09597      0.00000     0.40276    0.00127     0.40403
      H   17    0.09449      0.00000     0.40442    0.00109     0.40551
      H   18    0.09379      0.00000     0.40503    0.00118     0.40621
      H   19    0.09325      0.00000     0.40530    0.00145     0.40675
      H   20    0.09352      0.00000     0.40521    0.00127     0.40648
      H   21    0.11244      0.00000     0.38610    0.00147     0.38756
      H   22    0.09276      0.00000     0.40607    0.00116     0.40724
      H   23    0.10292      0.00000     0.39585    0.00123     0.39708
      H   24    0.09173      0.00000     0.40715    0.00111     0.40827
      H   25    0.10148      0.00000     0.39709    0.00144     0.39852
      H   26    0.09030      0.00000     0.40820    0.00150     0.40970
      H   27    0.10393      0.00000     0.39466    0.00142     0.39607
      H   28    0.10227      0.00000     0.39644    0.00129     0.39773
      H   29    0.21291      0.00000     0.28492    0.00217     0.28709
      H   30    0.21425      0.00000     0.28378    0.00197     0.28575
      H   31    0.10790      0.00000     0.39063    0.00147     0.39210
      H   32    0.10859      0.00000     0.39030    0.00112     0.39141
      H   33    0.09727      0.00000     0.39929    0.00344     0.40273
      H   34    0.08620      0.00000     0.41100    0.00279     0.41380
      H   35    0.18846      0.00000     0.30576    0.00578     0.31154
      H   36    0.18185      0.00000     0.31590    0.00225     0.31815
 =======================================================================
   * Total *   -0.00000     18.99472    43.79527    0.21001    63.00000

 Normal termination of Gaussian 16 at Thu Dec 10 16:56:46 2020.
