 Gaussian 16, Revision A.03,

 -----------------------------------------------------------
 # opt freq B3LYP/6-31G(d) empiricaldispersion=gd3bj scf=xqc
 -----------------------------------------------------------

 -------------------------------
 CID_151821924_JID_8113_neutraal
 -------------------------------
 Symbolic Z-matrix:
 Charge =  0 Multiplicity = 1

 SCF Done:  E(RB3LYP) =  -805.759066175     A.U. after   15 cycles
 SCF Done:  E(RB3LYP) =  -805.765134628     A.U. after   12 cycles
 SCF Done:  E(RB3LYP) =  -805.765153969     A.U. after   12 cycles
 SCF Done:  E(RB3LYP) =  -805.765161680     A.U. after   12 cycles
 SCF Done:  E(RB3LYP) =  -805.765691371     A.U. after   12 cycles
 SCF Done:  E(RB3LYP) =  -805.765750805     A.U. after   10 cycles
 SCF Done:  E(RB3LYP) =  -805.765921917     A.U. after   12 cycles
 SCF Done:  E(RB3LYP) =  -805.766020814     A.U. after   11 cycles
 SCF Done:  E(RB3LYP) =  -805.766092393     A.U. after   11 cycles
 SCF Done:  E(RB3LYP) =  -805.766097429     A.U. after    9 cycles
 SCF Done:  E(RB3LYP) =  -805.766098675     A.U. after    9 cycles
 SCF Done:  E(RB3LYP) =  -805.766099104     A.U. after    8 cycles
 SCF Done:  E(RB3LYP) =  -805.766099143     A.U. after    7 cycles
 Optimization completed.
    -- Stationary point found.
 Normal termination of Gaussian 16 at Fri Dec 11 18:44:00 2020.

 --------------------------------------------------------------------
 #N Geom=AllCheck Guess=TCheck SCRF=Check GenChk RB3LYP/6-31G(d) Freq
 --------------------------------------------------------------------

 Structure from the checkpoint file:  "JID_8113.chk"
 -------------------------------
 CID_151821924_JID_8113_neutraal
 -------------------------------
 Charge =  0 Multiplicity = 1

 SCF Done:  E(RB3LYP) =  -805.766099143     A.U. after    1 cycles

  Exact polarizability: 218.820   7.659 201.354  -7.663   7.824  89.050
 Approx polarizability: 310.184  13.799 347.720 -17.044  23.965 149.478

                      1                      2                      3
                      A                      A                      A
 Frequencies --     16.2615                38.0575                60.7116
 Red. masses --      4.8681                 4.6436                 4.0784
 Frc consts  --      0.0008                 0.0040                 0.0089
 IR Inten    --      0.5177                 1.1655                 0.6968

                      4                      5                      6
                      A                      A                      A
 Frequencies --     66.2095                90.1201               105.4180
 Red. masses --      4.9355                 1.2061                 2.5853
 Frc consts  --      0.0127                 0.0058                 0.0169
 IR Inten    --      0.8846                 0.8745                 0.6126

                      7                      8                      9
                      A                      A                      A
 Frequencies --    158.0047               168.9730               177.9963
 Red. masses --      4.0875                 1.0617                 4.4598
 Frc consts  --      0.0601                 0.0179                 0.0833
 IR Inten    --      2.8980                 0.6415                 0.7676

                     10                     11                     12
                      A                      A                      A
 Frequencies --    205.8995               226.7529               281.5740
 Red. masses --      4.7203                 5.1583                 3.9008
 Frc consts  --      0.1179                 0.1563                 0.1822
 IR Inten    --      4.1168                 0.6125                 1.8780

                     13                     14                     15
                      A                      A                      A
 Frequencies --    293.6829               331.3098               355.5430
 Red. masses --      4.5888                 3.7869                 1.1985
 Frc consts  --      0.2332                 0.2449                 0.0893
 IR Inten    --      1.9703                 8.0342               104.8757

                     16                     17                     18
                      A                      A                      A
 Frequencies --    361.0883               376.6383               405.8792
 Red. masses --      3.4709                 3.7719                 5.2394
 Frc consts  --      0.2666                 0.3152                 0.5085
 IR Inten    --      7.6955                 5.7813                 3.1794

                     19                     20                     21
                      A                      A                      A
 Frequencies --    434.3142               443.1647               465.8990
 Red. masses --      3.1781                 3.3775                 4.7390
 Frc consts  --      0.3532                 0.3908                 0.6061
 IR Inten    --      0.4411                 8.0369                 1.2885

                     22                     23                     24
                      A                      A                      A
 Frequencies --    507.1338               535.5527               555.5118
 Red. masses --      3.4634                 6.1750                 6.6615
 Frc consts  --      0.5248                 1.0435                 1.2112
 IR Inten    --      2.5061                 4.9771                 2.0436

                     25                     26                     27
                      A                      A                      A
 Frequencies --    564.5819               608.1605               641.1243
 Red. masses --      4.1032                 3.8758                 3.8593
 Frc consts  --      0.7706                 0.8446                 0.9346
 IR Inten    --      3.0789                 1.2498                 0.5725

                     28                     29                     30
                      A                      A                      A
 Frequencies --    648.1291               655.3264               713.3935
 Red. masses --      1.4400                 3.9679                 5.1787
 Frc consts  --      0.3564                 1.0040                 1.5529
 IR Inten    --      7.9578                 1.3564                 2.8709

                     31                     32                     33
                      A                      A                      A
 Frequencies --    742.5352               775.4197               785.7685
 Red. masses --      6.0813                 4.6258                 5.1420
 Frc consts  --      1.9755                 1.6388                 1.8706
 IR Inten    --      3.1306                 6.0591                 8.8357

                     34                     35                     36
                      A                      A                      A
 Frequencies --    805.5796               821.5652               836.9484
 Red. masses --      1.5716                 2.3567                 1.5147
 Frc consts  --      0.6009                 0.9372                 0.6251
 IR Inten    --     27.4401                 8.3395                29.1805

                     37                     38                     39
                      A                      A                      A
 Frequencies --    874.4790               906.4835               914.3037
 Red. masses --      3.0319                 1.6586                 1.4291
 Frc consts  --      1.3661                 0.8030                 0.7039
 IR Inten    --      1.8111                 4.7594                 1.3489

                     40                     41                     42
                      A                      A                      A
 Frequencies --    929.9162               962.9463               973.8392
 Red. masses --      3.7546                 2.1944                 1.3277
 Frc consts  --      1.9130                 1.1989                 0.7418
 IR Inten    --      3.1862                 4.5147                26.4585

                     43                     44                     45
                      A                      A                      A
 Frequencies --    977.3173              1028.8478              1034.1725
 Red. masses --      1.2919                 1.5456                 1.4718
 Frc consts  --      0.7270                 0.9639                 0.9274
 IR Inten    --      4.2723                15.0421                11.8200

                     46                     47                     48
                      A                      A                      A
 Frequencies --   1066.9024              1078.2126              1080.6306
 Red. masses --      2.3263                 1.5169                 3.4382
 Frc consts  --      1.5602                 1.0390                 2.3656
 IR Inten    --     16.0631                 4.5473                63.4829

                     49                     50                     51
                      A                      A                      A
 Frequencies --   1087.4430              1164.2734              1189.9611
 Red. masses --      1.4631                 2.8676                 1.4559
 Frc consts  --      1.0193                 2.2902                 1.2146
 IR Inten    --      0.5178               437.2461               108.3527

                     52                     53                     54
                      A                      A                      A
 Frequencies --   1196.3432              1211.4120              1247.3858
 Red. masses --      1.6912                 1.5062                 2.6267
 Frc consts  --      1.4261                 1.3023                 2.4081
 IR Inten    --    130.6090                53.3802                17.5178

                     55                     56                     57
                      A                      A                      A
 Frequencies --   1278.2911              1289.9803              1315.8646
 Red. masses --      2.0862                 1.9811                 2.2598
 Frc consts  --      2.0085                 1.9423                 2.3054
 IR Inten    --    248.1775                 4.3653                65.0598

                     58                     59                     60
                      A                      A                      A
 Frequencies --   1352.1736              1403.0933              1418.2309
 Red. masses --      3.7204                 4.4901                 2.6178
 Frc consts  --      4.0077                 5.2081                 3.1022
 IR Inten    --    123.7104                32.6123                30.7338

                     61                     62                     63
                      A                      A                      A
 Frequencies --   1437.0225              1440.8225              1443.2752
 Red. masses --      5.6794                 1.2596                 1.2665
 Frc consts  --      6.9100                 1.5406                 1.5544
 IR Inten    --     25.9696                 4.8287                 0.2476

                     64                     65                     66
                      A                      A                      A
 Frequencies --   1462.8748              1481.7576              1503.2317
 Red. masses --      1.2576                 2.7047                 1.0440
 Frc consts  --      1.5857                 3.4989                 1.3900
 IR Inten    --     17.8914                48.7181                 6.7959

                     67                     68                     69
                      A                      A                      A
 Frequencies --   1513.7077              1518.4144              1519.1690
 Red. masses --      1.0444                 1.2753                 1.0551
 Frc consts  --      1.4100                 1.7324                 1.4346
 IR Inten    --      5.6760                13.8952                16.5237

                     70                     71                     72
                      A                      A                      A
 Frequencies --   1536.5053              1569.4006              1641.3177
 Red. masses --      2.3834                 3.4790                 7.2668
 Frc consts  --      3.3153                 5.0486                11.5340
 IR Inten    --     23.1637                 1.0284                27.0691

                     73                     74                     75
                      A                      A                      A
 Frequencies --   1668.6458              1696.2571              1719.7651
 Red. masses --      5.8721                 6.6170                 5.0956
 Frc consts  --      9.6333                11.2174                 8.8795
 IR Inten    --     75.6307                 5.0728                13.5140

                     76                     77                     78
                      A                      A                      A
 Frequencies --   1814.4665              3041.0557              3059.6685
 Red. masses --     12.5405                 1.0379                 1.0357
 Frc consts  --     24.3256                 5.6554                 5.7125
 IR Inten    --    205.5971                41.9748                16.3604

                     79                     80                     81
                      A                      A                      A
 Frequencies --   3090.9658              3116.1081              3129.6274
 Red. masses --      1.1007                 1.1003                 1.1003
 Frc consts  --      6.1960                 6.2949                 6.3498
 IR Inten    --     21.4308                11.3617                16.2196

                     82                     83                     84
                      A                      A                      A
 Frequencies --   3143.5114              3176.8444              3178.4448
 Red. masses --      1.1038                 1.0900                 1.0622
 Frc consts  --      6.4264                 6.4811                 6.3226
 IR Inten    --     16.8798                28.3108                 8.6456

                     85                     86                     87
                      A                      A                      A
 Frequencies --   3179.4923              3217.5742              3223.7474
 Red. masses --      1.0888                 1.0902                 1.0924
 Frc consts  --      6.4849                 6.6497                 6.6887
 IR Inten    --     15.3566                 6.6822                 8.1292

                     88                     89                     90
                      A                      A                      A
 Frequencies --   3240.5305              3272.0275              3756.2735
 Red. masses --      1.0927                 1.1144                 1.0659
 Frc consts  --      6.7609                 7.0296                 8.8611
 IR Inten    --      4.3825                 7.0871                54.2315

 - Thermochemistry -
 -------------------
 Temperature   298.150 Kelvin.  Pressure   1.00000 Atm.
 Atom     1 has atomic number  6 and mass  12.00000

 Molecular mass:   242.09429 amu.
 Principal axes and moments of inertia in atomic units:
                           1         2         3
     Eigenvalues --  2474.052607094.037009078.29532
           X            0.99998   0.00648  -0.00142
           Y           -0.00648   0.99998  -0.00195
           Z            0.00141   0.00196   1.00000
 This molecule is an asymmetric top.
 Rotational symmetry number  1.
 Warning -- assumption of classical behavior for rotation
           may cause significant error
 Rotational temperatures (Kelvin)      0.03501     0.01221     0.00954
 Rotational constants (GHZ):           0.72947     0.25440     0.19880
 Zero-point vibrational energy     670119.5 (Joules/Mol)
                                  160.16241 (Kcal/Mol)
 Warning -- explicit consideration of  26 degrees of freedom as
           vibrations may cause significant error
 Vibrational temperatures:     23.40    54.76    87.35    95.26   129.66
          (Kelvin)            151.67   227.33   243.11   256.10   296.24
                              326.25   405.12   422.54   476.68   511.55
                              519.53   541.90   583.97   624.88   637.62
                              670.32   729.65   770.54   799.26   812.31
                              875.01   922.43   932.51   942.87  1026.41
                             1068.34  1115.66  1130.55  1159.05  1182.05
                             1204.18  1258.18  1304.23  1315.48  1337.94
                             1385.46  1401.14  1406.14  1480.28  1487.94
                             1535.03  1551.31  1554.79  1564.59  1675.13
                             1712.09  1721.27  1742.95  1794.71  1839.18
                             1855.99  1893.24  1945.48  2018.74  2040.52
                             2067.55  2073.02  2076.55  2104.75  2131.92
                             2162.82  2177.89  2184.66  2185.75  2210.69
                             2258.02  2361.49  2400.81  2440.54  2474.36
                             2610.61  4375.40  4402.18  4447.21  4483.38
                             4502.84  4522.81  4570.77  4573.07  4574.58
                             4629.37  4638.25  4662.40  4707.72  5404.44

 Zero-point correction=                           0.255235 (Hartree/Particle)
 Thermal correction to Energy=                    0.271882
 Thermal correction to Enthalpy=                  0.272826
 Thermal correction to Gibbs Free Energy=         0.209472
 Sum of electronic and zero-point Energies=           -805.510864
 Sum of electronic and thermal Energies=              -805.494218
 Sum of electronic and thermal Enthalpies=            -805.493273
 Sum of electronic and thermal Free Energies=         -805.556627

                     E (Thermal)             CV                S
                      KCal/Mol        Cal/Mol-Kelvin    Cal/Mol-Kelvin
 Total                  170.608             63.386            133.339
 Electronic               0.000              0.000              0.000
 Translational            0.889              2.981             42.354
 Rotational               0.889              2.981             33.432
 Vibrational            168.831             57.424             57.553
 Vibration     1          0.593              1.986              7.045
 Vibration     2          0.594              1.982              5.358
 Vibration     3          0.597              1.973              4.434
 Vibration     4          0.598              1.970              4.263
 Vibration     5          0.602              1.956              3.657
 Vibration     6          0.605              1.945              3.352
 Vibration     7          0.621              1.894              2.574
 Vibration     8          0.625              1.881              2.447
 Vibration     9          0.628              1.869              2.349
 Vibration    10          0.640              1.831              2.080
 Vibration    11          0.650              1.800              1.905
 Vibration    12          0.681              1.708              1.524
 Vibration    13          0.688              1.686              1.453
 Vibration    14          0.714              1.613              1.254
 Vibration    15          0.731              1.564              1.142
 Vibration    16          0.735              1.552              1.117
 Vibration    17          0.747              1.520              1.053
 Vibration    18          0.771              1.457              0.941
 Vibration    19          0.795              1.395              0.845
 Vibration    20          0.803              1.376              0.817
 Vibration    21          0.823              1.326              0.749
 Vibration    22          0.862              1.234              0.641
 Vibration    23          0.891              1.171              0.575
 Vibration    24          0.911              1.128              0.533
 Vibration    25          0.920              1.108              0.515
 Vibration    26          0.967              1.015              0.436

                           ! Non-Optimized Parameters !
 Normal termination of Gaussian 16 at Fri Dec 11 18:56:17 2020.

 ----------------------------------------------------------------------
 # B3LYP/6-311++G(d,p) empiricaldispersion=gd3bj scf=xqc pop=npa geom=c
 heck
 ----------------------------------------------------------------------

 ---------------------------------------
 CID_151821924_JID_8113_Energie_neutraal
 ---------------------------------------
 Structure from the checkpoint file:  "JID_8113.chk"
 Charge =  0 Multiplicity = 1

 SCF Done:  E(RB3LYP) =  -805.989204102     A.U. after   15 cycles
 Normal termination of Gaussian 16 at Fri Dec 11 19:02:13 2020.

 ----------------------------------------------------------------------
 # B3LYP/6-311++G(d,p) empiricaldispersion=gd3bj scf=xqc pop=npa geom=c
 heck
 ----------------------------------------------------------------------

 -------------------------------------
 CID_151821924_JID_8113_Energie_kation
 -------------------------------------
 Structure from the checkpoint file:  "JID_8113.chk"
 Charge =  1 Multiplicity = 2

 SCF Done:  E(UB3LYP) =  -805.719085120     A.U. after   20 cycles
 Normal termination of Gaussian 16 at Fri Dec 11 19:13:31 2020.
 Gaussian 16:  ES64L-G16RevA.03 25-Dec-2016

 ----------------------------------------------------------------------
 # B3LYP/6-311++G(d,p) empiricaldispersion=gd3bj scf=xqc pop=npa geom=c
 heck
 ----------------------------------------------------------------------

 ------------------------------------
 CID_151821924_JID_8113_Energie_anion
 ------------------------------------
 Structure from the checkpoint file:  "JID_8113.chk"
 Charge = -1 Multiplicity = 2

                         Standard orientation:
 ---------------------------------------------------------------------
 Center     Atomic      Atomic             Coordinates (Angstroms)
 Number     Number       Type             X           Y           Z
 ---------------------------------------------------------------------
      1          6           0       -4.286356   -2.512002    0.371128
      2          6           0       -3.049829   -1.671024    0.177831
      3          6           0       -3.113272   -0.293784    0.135769
      4          6           0       -1.949854    0.495324   -0.045115
      5          6           0       -2.002034    1.919599   -0.080654
      6          6           0       -0.853039    2.661599   -0.256186
      7          6           0        0.398028    2.024618   -0.407167
      8          6           0        0.473179    0.655342   -0.374158
      9          6           0       -0.682695   -0.148192   -0.190293
     10          6           0       -0.634606   -1.565424   -0.143679
     11          6           0       -1.782962   -2.298548    0.035820
     12          8           0        1.672765   -0.025788   -0.585491
     13          6           0        2.740499    0.206978    0.238717
     14          8           0        2.742789    1.027243    1.128801
     15          6           0        3.904702   -0.665969   -0.086846
     16          6           0        3.863650   -1.532627   -1.106304
     17          6           0        5.096404   -0.478437    0.812006
     18          8           0       -3.238525    2.486708    0.067480
     19          1           0       -5.180747   -1.889410    0.467012
     20          1           0       -4.208714   -3.132122    1.273051
     21          1           0       -4.439593   -3.194688   -0.474208
     22          1           0       -4.066603    0.212171    0.243921
     23          1           0       -0.904056    3.747853   -0.278751
     24          1           0        1.295675    2.615624   -0.539657
     25          1           0        0.325737   -2.057401   -0.250206
     26          1           0       -1.726651   -3.384090    0.071269
     27          1           0        4.718646   -2.161799   -1.338113
     28          1           0        2.985463   -1.632572   -1.733274
     29          1           0        5.452853    0.556747    0.774256
     30          1           0        4.831241   -0.675824    1.856471
     31          1           0        5.912478   -1.145403    0.521484
     32          1           0       -3.142853    3.450882    0.035205
 ---------------------------------------------------------------------

 SCF Done:  E(UB3LYP) =  -805.996774987     A.U. after   26 cycles

 The electronic state is 2-A.
 Alpha  occ. eigenvalues --  -19.04441 -19.02326 -18.94899 -10.13391 -10.10342
 Alpha  occ. eigenvalues --  -10.09024 -10.06747 -10.05940 -10.05747 -10.05608
 Alpha  occ. eigenvalues --  -10.05132 -10.04459 -10.04426 -10.04350 -10.04122
 Alpha  occ. eigenvalues --  -10.04022 -10.03959 -10.01985  -0.95937  -0.95391
 Alpha  occ. eigenvalues --   -0.87298  -0.74784  -0.70481  -0.67006  -0.65122
 Alpha  occ. eigenvalues --   -0.63731  -0.60398  -0.57336  -0.56161  -0.52496
 Alpha  occ. eigenvalues --   -0.50630  -0.48605  -0.46466  -0.42819  -0.41375
 Alpha  occ. eigenvalues --   -0.39319  -0.37123  -0.35300  -0.34235  -0.33294
 Alpha  occ. eigenvalues --   -0.32981  -0.31949  -0.31620  -0.30337  -0.30208
 Alpha  occ. eigenvalues --   -0.29745  -0.29354  -0.28480  -0.27951  -0.27583
 Alpha  occ. eigenvalues --   -0.26667  -0.25916  -0.24500  -0.23330  -0.23145
 Alpha  occ. eigenvalues --   -0.22215  -0.21427  -0.19446  -0.17292  -0.14515
 Alpha  occ. eigenvalues --   -0.13483  -0.13192  -0.12048  -0.08060   0.04461
 Alpha virt. eigenvalues --    0.07137   0.07610   0.07661   0.08734   0.09720
 Alpha virt. eigenvalues --    0.09904   0.10327   0.10997   0.11422   0.11641
 Alpha virt. eigenvalues --    0.12633   0.12987   0.13506   0.14236   0.14568

  Beta  occ. eigenvalues --  -19.04415 -19.02346 -18.94623 -10.13143 -10.10154
  Beta  occ. eigenvalues --  -10.08896 -10.06746 -10.05936 -10.05788 -10.05633
  Beta  occ. eigenvalues --  -10.05133 -10.04418 -10.04357 -10.04343 -10.03973
  Beta  occ. eigenvalues --  -10.03968 -10.03823 -10.01667  -0.95742  -0.95297
  Beta  occ. eigenvalues --   -0.86899  -0.74640  -0.70305  -0.66651  -0.64988
  Beta  occ. eigenvalues --   -0.63539  -0.60216  -0.57175  -0.55889  -0.52112
  Beta  occ. eigenvalues --   -0.50428  -0.48383  -0.46155  -0.42619  -0.41230
  Beta  occ. eigenvalues --   -0.39186  -0.36961  -0.35119  -0.34100  -0.33140
  Beta  occ. eigenvalues --   -0.32734  -0.31847  -0.31198  -0.30175  -0.29903
  Beta  occ. eigenvalues --   -0.29517  -0.29233  -0.28303  -0.27817  -0.27537
  Beta  occ. eigenvalues --   -0.26448  -0.25728  -0.24118  -0.23143  -0.22912
  Beta  occ. eigenvalues --   -0.22036  -0.21286  -0.18945  -0.16655  -0.13816
  Beta  occ. eigenvalues --   -0.12902  -0.11963  -0.11729  -0.07268
  Beta virt. eigenvalues --    0.07097   0.07611   0.08616   0.08689   0.09726
  Beta virt. eigenvalues --    0.09817   0.09985   0.10441   0.10956   0.11354
  Beta virt. eigenvalues --    0.11658   0.12700   0.13032   0.13449   0.14185

 Mulliken charges and spin densities:
               1          2
     1  C   -0.517815  -0.006732
     2  C    0.607431  -0.008478
     3  C   -0.358816   0.142679
     4  C    0.185141  -0.052170
     5  C   -0.353489   0.098540
     6  C   -0.093476   0.023854
     7  C   -0.134477   0.057384
     8  C   -0.217334   0.045514
     9  C    0.502045   0.020827
    10  C   -0.230041   0.093713
    11  C   -0.539246   0.026910
    12  O   -0.011721  -0.019547
    13  C   -0.337097   0.152884
    14  O   -0.298243   0.098856
    15  C    0.672725  -0.035873
    16  C   -0.765959   0.348597
    17  C   -0.727734   0.026725
    18  O   -0.246845   0.009125
    19  H    0.136107   0.000580
    20  H    0.132766  -0.000556
    21  H    0.130424   0.000035
    22  H    0.115602  -0.008167
    23  H    0.088808   0.001436
    24  H    0.164727  -0.004082
    25  H    0.080821   0.004976
    26  H    0.132789   0.002937
    27  H    0.090626  -0.017663
    28  H    0.152621  -0.013315
    29  H    0.143242   0.006110
    30  H    0.151566   0.003808
    31  H    0.104843  -0.000768
    32  H    0.240008   0.001863
 Sum of Mulliken charges =  -1.00000   1.00000

 Dipole moment (field-independent basis, Debye):
    X=             -4.3758    Y=              0.8798    Z=             -0.5598  Tot=              4.4983
 Quadrupole moment (field-independent basis, Debye-Ang):
   XX=           -154.6647   YY=           -113.3313   ZZ=           -121.4128
   XY=             -1.9313   XZ=             -1.6107   YZ=             -3.9783

 Summary of Natural Population Analysis:

                                       Natural Population
                Natural  -----------------------------------------------
    Atom  No    Charge         Core      Valence    Rydberg      Total
 -----------------------------------------------------------------------
      C    1   -0.28907      0.99964     2.28484    0.00458     3.28907
      C    2   -0.02929      0.99953     2.02121    0.00855     3.02929
      C    3   -0.07067      0.99949     2.06182    0.00937     3.07067
      C    4   -0.06713      0.99951     2.05260    0.01502     3.06713
      C    5    0.23836      0.99926     1.75300    0.00939     2.76164
      C    6   -0.16958      0.99959     2.15309    0.01689     3.16958
      C    7   -0.10315      0.99952     2.09451    0.00912     3.10315
      C    8    0.17408      0.99930     1.81456    0.01206     2.82592
      C    9   -0.04008      0.99946     2.03275    0.00787     3.04008
      C   10   -0.06853      0.99956     2.05960    0.00937     3.06853
      C   11   -0.08479      0.99943     2.07599    0.00937     3.08479
      O   12   -0.28908      0.99984     3.27858    0.01066     4.28908
      C   13    0.42175      0.99960     1.55542    0.02323     2.57825
      O   14   -0.28779      0.99987     3.28243    0.00549     4.28779
      C   15   -0.06264      0.99949     2.05396    0.00919     3.06264
      C   16   -0.10715      0.99954     2.09998    0.00763     3.10715
      C   17   -0.29268      0.99964     2.28764    0.00540     3.29268
      O   18   -0.35137      0.99988     3.34262    0.00887     4.35137
      H   19    0.09737      0.00000     0.40169    0.00094     0.40263
      H   20    0.09714      0.00000     0.40176    0.00109     0.40286
      H   21    0.09682      0.00000     0.40208    0.00110     0.40318
      H   22    0.09931      0.00000     0.39948    0.00120     0.40069
      H   23    0.08989      0.00000     0.40892    0.00119     0.41011
      H   24    0.10533      0.00000     0.39299    0.00168     0.39467
      H   25    0.10585      0.00000     0.39252    0.00163     0.39415
      H   26    0.08956      0.00000     0.40876    0.00168     0.41044
      H   27    0.07812      0.00000     0.42076    0.00111     0.42188
      H   28    0.09690      0.00000     0.40225    0.00085     0.40310
      H   29    0.10161      0.00000     0.39719    0.00120     0.39839
      H   30    0.10215      0.00000     0.39669    0.00116     0.39785
      H   31    0.09092      0.00000     0.40812    0.00097     0.40908
      H   32    0.22810      0.00000     0.26948    0.00242     0.27190
 =======================================================================
   * Total *    0.00026     17.99216    45.80730    0.20027    63.99974

 Normal termination of Gaussian 16 at Fri Dec 11 19:28:18 2020.
