 Gaussian 16, Revision A.03,

 -----------------------------------------------------------
 # opt freq B3LYP/6-31G(d) empiricaldispersion=gd3bj scf=xqc
 -----------------------------------------------------------

 -------------------------------
 CID_103387564_JID_7871_neutraal
 -------------------------------
 Symbolic Z-matrix:
 Charge =  0 Multiplicity = 1

 SCF Done:  E(RB3LYP) =  -746.376747419     A.U. after   15 cycles
 SCF Done:  E(RB3LYP) =  -746.384277220     A.U. after   12 cycles
 SCF Done:  E(RB3LYP) =  -746.385380119     A.U. after   12 cycles
 SCF Done:  E(RB3LYP) =  -746.385930563     A.U. after   12 cycles
 SCF Done:  E(RB3LYP) =  -746.386265164     A.U. after   12 cycles
 SCF Done:  E(RB3LYP) =  -746.386354025     A.U. after   11 cycles
 SCF Done:  E(RB3LYP) =  -746.386388712     A.U. after   11 cycles
 SCF Done:  E(RB3LYP) =  -746.386410549     A.U. after   10 cycles
 SCF Done:  E(RB3LYP) =  -746.386422795     A.U. after   10 cycles
 SCF Done:  E(RB3LYP) =  -746.386427348     A.U. after   10 cycles
 SCF Done:  E(RB3LYP) =  -746.386431109     A.U. after   10 cycles
 SCF Done:  E(RB3LYP) =  -746.386432754     A.U. after    8 cycles
 SCF Done:  E(RB3LYP) =  -746.386432988     A.U. after    8 cycles
 Optimization completed.
    -- Stationary point found.
 Normal termination of Gaussian 16 at Fri Dec 11 13:22:27 2020.

 --------------------------------------------------------------------
 #N Geom=AllCheck Guess=TCheck SCRF=Check GenChk RB3LYP/6-31G(d) Freq
 --------------------------------------------------------------------

 Structure from the checkpoint file:  "JID_7871.chk"
 -------------------------------
 CID_103387564_JID_7871_neutraal
 -------------------------------
 Charge =  0 Multiplicity = 1

 SCF Done:  E(RB3LYP) =  -746.386432987     A.U. after    1 cycles

  Exact polarizability: 226.586  -1.882 158.485   8.135  10.907 100.180
 Approx polarizability: 296.778   8.438 255.966  18.075  27.638 151.863

                      1                      2                      3
                      A                      A                      A
 Frequencies --     18.1484                30.5734                51.4280
 Red. masses --      3.7885                 4.8919                 4.0594
 Frc consts  --      0.0007                 0.0027                 0.0063
 IR Inten    --      1.1329                 1.8132                 0.8667

                      4                      5                      6
                      A                      A                      A
 Frequencies --     80.5136               103.0009               137.0713
 Red. masses --      3.4682                 3.8300                 2.7733
 Frc consts  --      0.0132                 0.0239                 0.0307
 IR Inten    --      0.5031                 2.8432                 2.0065

                      7                      8                      9
                      A                      A                      A
 Frequencies --    151.8131               195.3889               206.4516
 Red. masses --      2.7100                 3.1167                 2.3194
 Frc consts  --      0.0368                 0.0701                 0.0582
 IR Inten    --      1.1827                 2.6878                 1.1017

                     10                     11                     12
                      A                      A                      A
 Frequencies --    218.8018               234.2385               248.2037
 Red. masses --      2.6617                 1.2387                 3.9642
 Frc consts  --      0.0751                 0.0400                 0.1439
 IR Inten    --      2.3895                20.3913                 7.4052

                     13                     14                     15
                      A                      A                      A
 Frequencies --    276.6545               281.2534               290.8227
 Red. masses --      2.0485                 1.3511                 4.0868
 Frc consts  --      0.0924                 0.0630                 0.2037
 IR Inten    --      4.4483                14.7627                 0.6413

                     16                     17                     18
                      A                      A                      A
 Frequencies --    340.9282               364.5661               404.2881
 Red. masses --      3.0878                 4.2396                 2.7824
 Frc consts  --      0.2115                 0.3320                 0.2679
 IR Inten    --      3.8479                 1.1662                 1.9223

                     19                     20                     21
                      A                      A                      A
 Frequencies --    459.5120               471.8433               539.7820
 Red. masses --      3.1202                 3.6819                 3.6181
 Frc consts  --      0.3882                 0.4830                 0.6211
 IR Inten    --      7.3680                 1.5718                 3.7118

                     22                     23                     24
                      A                      A                      A
 Frequencies --    559.1739               588.7944               621.1791
 Red. masses --      2.9815                 3.7598                 2.1939
 Frc consts  --      0.5493                 0.7680                 0.4988
 IR Inten    --     10.1314                34.4462                18.8409

                     25                     26                     27
                      A                      A                      A
 Frequencies --    641.2526               651.7066               674.8575
 Red. masses --      4.1974                 3.6715                 5.8235
 Frc consts  --      1.0169                 0.9188                 1.5626
 IR Inten    --     12.8501                 0.6105                17.9682

                     28                     29                     30
                      A                      A                      A
 Frequencies --    699.0527               712.7319               744.0711
 Red. masses --      1.9511                 3.1307                 2.9976
 Frc consts  --      0.5617                 0.9370                 0.9778
 IR Inten    --     10.4548                49.7726                10.5595

                     31                     32                     33
                      A                      A                      A
 Frequencies --    782.2575               835.4671               839.8753
 Red. masses --      1.3483                 2.0812                 2.1147
 Frc consts  --      0.4861                 0.8559                 0.8789
 IR Inten    --     25.1957                12.4007                39.1399

                     34                     35                     36
                      A                      A                      A
 Frequencies --    854.5842               862.4909               869.8421
 Red. masses --      1.8736                 1.4172                 1.4084
 Frc consts  --      0.8062                 0.6212                 0.6278
 IR Inten    --     51.6629                67.1574                 1.2457

                     37                     38                     39
                      A                      A                      A
 Frequencies --    881.4730               925.9390               951.4273
 Red. masses --      2.2155                 1.4498                 2.1529
 Frc consts  --      1.0142                 0.7324                 1.1482
 IR Inten    --      4.8934                 5.1364                 0.6424

                     40                     41                     42
                      A                      A                      A
 Frequencies --    957.4334               963.6154               969.8394
 Red. masses --      2.0414                 2.1253                 1.2520
 Frc consts  --      1.1026                 1.1627                 0.6939
 IR Inten    --     28.2367                 8.5921                 1.2087

                     43                     44                     45
                      A                      A                      A
 Frequencies --   1014.7809              1030.2992              1041.1035
 Red. masses --      5.8130                 1.9052                 1.7450
 Frc consts  --      3.5269                 1.1915                 1.1144
 IR Inten    --      0.6115                16.7178                 4.8352

                     46                     47                     48
                      A                      A                      A
 Frequencies --   1043.1741              1086.2426              1104.4881
 Red. masses --      1.9239                 1.6454                 1.7451
 Frc consts  --      1.2335                 1.1439                 1.2543
 IR Inten    --      8.8536                 2.0632                 3.6470

                     49                     50                     51
                      A                      A                      A
 Frequencies --   1115.1910              1124.5654              1144.9112
 Red. masses --      2.1156                 2.4658                 2.0378
 Frc consts  --      1.5502                 1.8373                 1.5738
 IR Inten    --     16.5108                 6.8628                17.8177

                     52                     53                     54
                      A                      A                      A
 Frequencies --   1194.5863              1197.7769              1213.6035
 Red. masses --      1.8106                 1.4604                 1.1591
 Frc consts  --      1.5223                 1.2344                 1.0059
 IR Inten    --     21.7252                15.6327                 6.0334

                     55                     56                     57
                      A                      A                      A
 Frequencies --   1233.6751              1244.1410              1252.1069
 Red. masses --      1.6773                 1.4870                 2.1512
 Frc consts  --      1.5040                 1.3561                 1.9871
 IR Inten    --     29.3568                40.1416                 7.5893

                     58                     59                     60
                      A                      A                      A
 Frequencies --   1267.9459              1297.6919              1319.9867
 Red. masses --      1.2646                 2.2721                 1.4502
 Frc consts  --      1.1978                 2.2544                 1.4888
 IR Inten    --     50.5604               248.2150                52.3156

                     61                     62                     63
                      A                      A                      A
 Frequencies --   1326.7500              1345.1251              1366.9330
 Red. masses --      1.4805                 2.1667                 1.6853
 Frc consts  --      1.5355                 2.3098                 1.8553
 IR Inten    --     12.4490                67.2743                 4.8189

                     64                     65                     66
                      A                      A                      A
 Frequencies --   1369.1701              1372.9867              1377.9886
 Red. masses --      1.6729                 2.0560                 1.4053
 Frc consts  --      1.8477                 2.2835                 1.5723
 IR Inten    --      7.4522                24.4989                 9.8994

                     67                     68                     69
                      A                      A                      A
 Frequencies --   1391.1811              1422.3092              1427.0371
 Red. masses --      1.6093                 1.3376                 1.9883
 Frc consts  --      1.8351                 1.5943                 2.3856
 IR Inten    --     46.2610                 7.6284               116.2079

                     70                     71                     72
                      A                      A                      A
 Frequencies --   1442.7686              1480.4014              1501.0993
 Red. masses --      1.3481                 2.2904                 1.0875
 Frc consts  --      1.6533                 2.9575                 1.4437
 IR Inten    --      3.2389                87.8395                 1.9863

                     73                     74                     75
                      A                      A                      A
 Frequencies --   1518.7352              1527.0390              1528.5726
 Red. masses --      1.0723                 1.1028                 1.1035
 Frc consts  --      1.4572                 1.5151                 1.5191
 IR Inten    --     10.1973                 2.9209                13.6894

                     76                     77                     78
                      A                      A                      A
 Frequencies --   1539.8005              1547.7885              1560.3016
 Red. masses --      1.0589                 2.2169                 1.1395
 Frc consts  --      1.4792                 3.1291                 1.6344
 IR Inten    --      6.7327               170.6715                10.9848

                     79                     80                     81
                      A                      A                      A
 Frequencies --   1576.6048              1647.7855              1668.7189
 Red. masses --      1.6353                 4.5101                 5.5520
 Frc consts  --      2.3949                 7.2151                 9.1088
 IR Inten    --     29.8205                31.6672               286.2455

                     82                     83                     84
                      A                      A                      A
 Frequencies --   1699.8216              1807.6154              2977.5519
 Red. masses --      1.0882                12.0692                 1.0725
 Frc consts  --      1.8525                23.2349                 5.6022
 IR Inten    --     33.1940               308.1661                87.5328

                     85                     86                     87
                      A                      A                      A
 Frequencies --   3023.1406              3050.2628              3057.7453
 Red. masses --      1.0700                 1.0369                 1.0704
 Frc consts  --      5.7619                 5.6839                 5.8965
 IR Inten    --     36.2566                30.4783                14.6487

                     88                     89                     90
                      A                      A                      A
 Frequencies --   3075.8520              3086.9385              3097.9769
 Red. masses --      1.0647                 1.0862                 1.0904
 Frc consts  --      5.9346                 6.0985                 6.1658
 IR Inten    --     24.3029                 7.2086                24.3442

                     91                     92                     93
                      A                      A                      A
 Frequencies --   3101.6975              3115.3765              3127.5832
 Red. masses --      1.0928                 1.1006                 1.1014
 Frc consts  --      6.1944                 6.2938                 6.3477
 IR Inten    --     26.1752                42.4565                29.6918

                     94                     95                     96
                      A                      A                      A
 Frequencies --   3138.7770              3139.1045              3186.4914
 Red. masses --      1.1012                 1.0977                 1.0884
 Frc consts  --      6.3921                 6.3731                 6.5115
 IR Inten    --     23.0313                18.7593                21.3210

                     97                     98                     99
                      A                      A                      A
 Frequencies --   3209.5020              3218.4377              3288.7908
 Red. masses --      1.0886                 1.0916                 1.0919
 Frc consts  --      6.6066                 6.6619                 6.9585
 IR Inten    --      9.7657                21.6618                 6.3464

                    100                    101                    102
                      A                      A                      A
 Frequencies --   3488.7458              3530.5100              3571.5211
 Red. masses --      1.0502                 1.0735                 1.0928
 Frc consts  --      7.5312                 7.8837                 8.2127
 IR Inten    --      0.4790                11.2007                 0.0972

 - Thermochemistry -
 -------------------
 Temperature   298.150 Kelvin.  Pressure   1.00000 Atm.
 Atom     1 has atomic number  6 and mass  12.00000

 Molecular mass:   233.15281 amu.
 Principal axes and moments of inertia in atomic units:
                           1         2         3
     Eigenvalues --  1819.914308241.253369325.00102
           X            0.99997  -0.00770  -0.00093
           Y            0.00770   0.99995   0.00650
           Z            0.00088  -0.00651   0.99998
 This molecule is an asymmetric top.
 Rotational symmetry number  1.
 Warning -- assumption of classical behavior for rotation
           may cause significant error
 Rotational temperatures (Kelvin)      0.04759     0.01051     0.00929
 Rotational constants (GHZ):           0.99166     0.21899     0.19354
 Zero-point vibrational energy     822738.6 (Joules/Mol)
                                  196.63925 (Kcal/Mol)
 Warning -- explicit consideration of  23 degrees of freedom as
           vibrations may cause significant error
 Vibrational temperatures:     26.11    43.99    73.99   115.84   148.20
          (Kelvin)            197.22   218.43   281.12   297.04   314.81
                              337.02   357.11   398.04   404.66   418.43
                              490.52   524.53   581.68   661.14   678.88
                              776.63   804.53   847.14   893.74   922.62
                              937.66   970.97  1005.78  1025.46  1070.55
                             1125.49  1202.05  1208.39  1229.56  1240.93
                             1251.51  1268.24  1332.22  1368.89  1377.53
                             1386.43  1395.38  1460.04  1482.37  1497.92
                             1500.89  1562.86  1589.11  1604.51  1618.00
                             1647.27  1718.74  1723.33  1746.10  1774.98
                             1790.04  1801.50  1824.29  1867.09  1899.17
                             1908.90  1935.34  1966.71  1969.93  1975.42
                             1982.62  2001.60  2046.39  2053.19  2075.82
                             2129.97  2159.75  2185.12  2197.07  2199.27
                             2215.43  2226.92  2244.93  2268.38  2370.80
                             2400.91  2445.66  2600.76  4284.03  4349.63
                             4388.65  4399.41  4425.47  4441.42  4457.30
                             4462.65  4482.33  4499.89  4516.00  4516.47
                             4584.65  4617.76  4630.61  4731.84  5019.53
                             5079.62  5138.62

 Zero-point correction=                           0.313365 (Hartree/Particle)
 Thermal correction to Energy=                    0.329710
 Thermal correction to Enthalpy=                  0.330654
 Thermal correction to Gibbs Free Energy=         0.268053
 Sum of electronic and zero-point Energies=           -746.073068
 Sum of electronic and thermal Energies=              -746.056723
 Sum of electronic and thermal Enthalpies=            -746.055779
 Sum of electronic and thermal Free Energies=         -746.118380

                     E (Thermal)             CV                S
                      KCal/Mol        Cal/Mol-Kelvin    Cal/Mol-Kelvin
 Total                  206.896             62.895            131.754
 Electronic               0.000              0.000              0.000
 Translational            0.889              2.981             42.241
 Rotational               0.889              2.981             33.303
 Vibrational            205.118             56.934             56.210
 Vibration     1          0.593              1.986              6.827
 Vibration     2          0.594              1.984              5.792
 Vibration     3          0.596              1.977              4.762
 Vibration     4          0.600              1.962              3.878
 Vibration     5          0.605              1.947              3.397
 Vibration     6          0.614              1.916              2.844
 Vibration     7          0.619              1.901              2.649
 Vibration     8          0.636              1.846              2.176
 Vibration     9          0.641              1.831              2.075
 Vibration    10          0.647              1.812              1.969
 Vibration    11          0.654              1.788              1.846
 Vibration    12          0.662              1.766              1.743
 Vibration    13          0.678              1.717              1.554
 Vibration    14          0.681              1.708              1.526
 Vibration    15          0.687              1.691              1.469
 Vibration    16          0.720              1.594              1.208
 Vibration    17          0.738              1.545              1.103
 Vibration    18          0.769              1.461              0.947
 Vibration    19          0.817              1.340              0.768
 Vibration    20          0.829              1.313              0.732
 Vibration    21          0.895              1.162              0.566
 Vibration    22          0.915              1.120              0.525
 Vibration    23          0.946              1.056              0.469

                           ! Non-Optimized Parameters !
 Normal termination of Gaussian 16 at Fri Dec 11 13:34:03 2020.

 ----------------------------------------------------------------------
 # B3LYP/6-311++G(d,p) empiricaldispersion=gd3bj scf=xqc pop=npa geom=c
 heck
 ----------------------------------------------------------------------

 ---------------------------------------
 CID_103387564_JID_7871_Energie_neutraal
 ---------------------------------------
 Structure from the checkpoint file:  "JID_7871.chk"
 Charge =  0 Multiplicity = 1

 SCF Done:  E(RB3LYP) =  -746.600015156     A.U. after   15 cycles
 Normal termination of Gaussian 16 at Fri Dec 11 13:39:21 2020.

 ----------------------------------------------------------------------
 # B3LYP/6-311++G(d,p) empiricaldispersion=gd3bj scf=xqc pop=npa geom=c
 heck
 ----------------------------------------------------------------------

 -------------------------------------
 CID_103387564_JID_7871_Energie_kation
 -------------------------------------
 Structure from the checkpoint file:  "JID_7871.chk"
 Charge =  1 Multiplicity = 2

 SCF Done:  E(UB3LYP) =  -746.339581733     A.U. after   22 cycles
 Normal termination of Gaussian 16 at Fri Dec 11 13:49:54 2020.
 Gaussian 16:  ES64L-G16RevA.03 25-Dec-2016

 ----------------------------------------------------------------------
 # B3LYP/6-311++G(d,p) empiricaldispersion=gd3bj scf=xqc pop=npa geom=c
 heck
 ----------------------------------------------------------------------

 ------------------------------------
 CID_103387564_JID_7871_Energie_anion
 ------------------------------------
 Structure from the checkpoint file:  "JID_7871.chk"
 Charge = -1 Multiplicity = 2

                         Standard orientation:
 ---------------------------------------------------------------------
 Center     Atomic      Atomic             Coordinates (Angstroms)
 Number     Number       Type             X           Y           Z
 ---------------------------------------------------------------------
      1          6           0       -4.781380   -0.531336   -1.217085
      2          6           0       -3.728287    0.142423   -0.335416
      3          6           0       -3.856873   -0.267964    1.144693
      4          7           0       -3.636956   -1.714515    1.286119
      5          7           0       -2.400308   -0.178915   -0.858906
      6          6           0       -1.271308    0.516397   -0.409182
      7          6           0       -0.033698   -0.150533   -0.400826
      8          6           0        1.146548    0.501048   -0.025347
      9          6           0        1.101583    1.852253    0.361453
     10          6           0       -0.126967    2.503426    0.354594
     11          6           0       -1.308010    1.864100   -0.018237
     12          7           0        2.358525   -0.229609   -0.021626
     13          6           0        2.370809   -1.682380   -0.215105
     14          6           0        3.803215   -2.094218    0.158217
     15          6           0        4.624306   -0.846846   -0.174022
     16          6           0        3.639515    0.307092   -0.000314
     17          8           0        3.940394    1.482790    0.113035
     18          1           0       -4.653576   -1.620396   -1.212682
     19          1           0       -4.688505   -0.188200   -2.251169
     20          1           0       -5.792633   -0.304625   -0.860107
     21          1           0       -3.872589    1.224861   -0.403999
     22          1           0       -3.073496    0.249929    1.707682
     23          1           0       -4.827230    0.076806    1.541308
     24          1           0       -3.360635   -1.934853    2.239460
     25          1           0       -4.503731   -2.220132    1.117345
     26          1           0       -2.259709   -1.183073   -0.788877
     27          1           0       -0.014873   -1.188344   -0.714387
     28          1           0        2.008066    2.363584    0.645143
     29          1           0       -0.166692    3.547473    0.654135
     30          1           0       -2.240977    2.415812   -0.014640
     31          1           0        2.134285   -1.933066   -1.259174
     32          1           0        1.617695   -2.154596    0.422243
     33          1           0        4.123844   -2.991780   -0.376720
     34          1           0        3.856503   -2.303712    1.231794
     35          1           0        4.963415   -0.845429   -1.218315
     36          1           0        5.502143   -0.692079    0.457039
 ---------------------------------------------------------------------

 SCF Done:  E(UB3LYP) =  -746.592174294     A.U. after   32 cycles

 The electronic state is 2-A.
 Alpha  occ. eigenvalues --  -19.00633 -14.26740 -14.21978 -14.19758 -10.18690
 Alpha  occ. eigenvalues --  -10.12782 -10.12425 -10.12038 -10.11258 -10.09653
 Alpha  occ. eigenvalues --  -10.09477 -10.09350 -10.08224 -10.07513 -10.07202
 Alpha  occ. eigenvalues --  -10.06941 -10.06629  -0.95724  -0.87254  -0.84382
 Alpha  occ. eigenvalues --   -0.78477  -0.75588  -0.71305  -0.67630  -0.64785
 Alpha  occ. eigenvalues --   -0.63475  -0.62136  -0.58141  -0.54602  -0.53640
 Alpha  occ. eigenvalues --   -0.50513  -0.49429  -0.45778  -0.42669  -0.41752
 Alpha  occ. eigenvalues --   -0.41142  -0.39876  -0.39663  -0.38426  -0.35712
 Alpha  occ. eigenvalues --   -0.35526  -0.34375  -0.34136  -0.33418  -0.32834
 Alpha  occ. eigenvalues --   -0.32657  -0.32310  -0.31250  -0.30793  -0.29389
 Alpha  occ. eigenvalues --   -0.28237  -0.27644  -0.27011  -0.26291  -0.25488
 Alpha  occ. eigenvalues --   -0.25322  -0.24994  -0.22075  -0.19093  -0.16865
 Alpha  occ. eigenvalues --   -0.15489  -0.13578  -0.10962   0.03744
 Alpha virt. eigenvalues --    0.05219   0.06762   0.06977   0.07391   0.07760
 Alpha virt. eigenvalues --    0.08036   0.08307   0.09081   0.09187   0.09674
 Alpha virt. eigenvalues --    0.10335   0.10558   0.11246   0.11298   0.12062

  Beta  occ. eigenvalues --  -19.00625 -14.26741 -14.21970 -14.19698 -10.18681
  Beta  occ. eigenvalues --  -10.12772 -10.12403 -10.12039 -10.11256 -10.09632
  Beta  occ. eigenvalues --  -10.09465 -10.09316 -10.08220 -10.07503 -10.07194
  Beta  occ. eigenvalues --  -10.06910 -10.06630  -0.95708  -0.87241  -0.84367
  Beta  occ. eigenvalues --   -0.78397  -0.75566  -0.71277  -0.67600  -0.64756
  Beta  occ. eigenvalues --   -0.63437  -0.62107  -0.58061  -0.54559  -0.53603
  Beta  occ. eigenvalues --   -0.50475  -0.49385  -0.45753  -0.42636  -0.41718
  Beta  occ. eigenvalues --   -0.41106  -0.39848  -0.39628  -0.38387  -0.35665
  Beta  occ. eigenvalues --   -0.35501  -0.34345  -0.34105  -0.33370  -0.32804
  Beta  occ. eigenvalues --   -0.32627  -0.32278  -0.31215  -0.30746  -0.29364
  Beta  occ. eigenvalues --   -0.28204  -0.27607  -0.26984  -0.26269  -0.25456
  Beta  occ. eigenvalues --   -0.25289  -0.24968  -0.22043  -0.19069  -0.16852
  Beta  occ. eigenvalues --   -0.15426  -0.13540  -0.10943
  Beta virt. eigenvalues --    0.05990   0.06315   0.06869   0.07374   0.07808
  Beta virt. eigenvalues --    0.08062   0.08444   0.08651   0.09156   0.09621
  Beta virt. eigenvalues --    0.10062   0.10530   0.10814   0.11447   0.11632

 Mulliken charges and spin densities:
               1          2
     1  C    0.491201  -1.022147
     2  C   -1.496027   1.334268
     3  C    1.119525  -1.655337
     4  N   -0.406095   0.038207
     5  N    0.322926  -0.049047
     6  C    0.150346  -0.062900
     7  C   -0.308733  -0.062492
     8  C   -0.031667  -0.073138
     9  C    0.012325   0.016690
    10  C   -0.421237   0.125398
    11  C   -0.225937   0.024669
    12  N    0.092068   0.116327
    13  C   -0.013830  -0.213593
    14  C    0.895103  -1.370422
    15  C   -0.315331  -0.256107
    16  C    0.255163   0.055291
    17  O   -0.359903   0.010392
    18  H   -0.066093   0.204874
    19  H   -0.012371   0.171416
    20  H   -0.260183   0.405217
    21  H    0.145592  -0.009529
    22  H    0.012356   0.151862
    23  H   -0.167817   0.308325
    24  H   -0.137866   0.382516
    25  H   -0.228709   0.461126
    26  H    0.427504  -0.214429
    27  H   -0.289455   0.469495
    28  H    0.217675  -0.002746
    29  H    0.152196   0.014273
    30  H    0.010213   0.082329
    31  H    0.020183   0.155720
    32  H   -0.109804   0.290128
    33  H   -0.547682   0.732327
    34  H    0.007779   0.150209
    35  H    0.005211   0.170813
    36  H    0.061376   0.120013
 Sum of Mulliken charges =  -1.00000   1.00000

 Dipole moment (field-independent basis, Debye):
    X=              2.2524    Y=              4.6410    Z=             -0.9638  Tot=              5.2480
 Quadrupole moment (field-independent basis, Debye-Ang):
   XX=           -209.4463   YY=           -150.3318   ZZ=           -135.5372
   XY=            -11.9589   XZ=             10.4563   YZ=              3.9523

 Summary of Natural Population Analysis:

                                       Natural Population
                Natural  -----------------------------------------------
    Atom  No    Charge         Core      Valence    Rydberg      Total
 -----------------------------------------------------------------------
      C    1   -0.28939      0.99964     2.28331    0.00644     3.28939
      C    2   -0.01295      0.99960     2.00110    0.01225     3.01295
      C    3   -0.09625      0.99961     2.08500    0.01164     3.09625
      N    4   -0.43125      0.99977     2.91996    0.01152     3.93125
      N    5   -0.31843      0.99968     2.80807    0.01068     3.81843
      C    6    0.09945      0.99950     1.88989    0.01117     2.90055
      C    7   -0.13710      0.99950     2.12933    0.00827     3.13710
      C    8    0.09355      0.99949     1.89551    0.01145     2.90645
      C    9   -0.13512      0.99953     2.12720    0.00839     3.13512
      C   10   -0.08650      0.99958     2.07795    0.00897     3.08650
      C   11   -0.14046      0.99952     2.13367    0.00727     3.14046
      N   12   -0.24443      0.99960     2.73614    0.00868     3.74443
      C   13   -0.08085      0.99963     2.07078    0.01043     3.08085
      C   14   -0.19361      0.99964     2.18563    0.00834     3.19361
      C   15   -0.23032      0.99961     2.22191    0.00881     3.23032
      C   16    0.35129      0.99966     1.62531    0.02374     2.64871
      O   17   -0.31513      0.99987     3.30970    0.00555     4.31513
      H   18    0.10089      0.00000     0.39794    0.00116     0.39911
      H   19    0.10259      0.00000     0.39647    0.00095     0.39741
      H   20    0.10043      0.00000     0.39853    0.00104     0.39957
      H   21    0.09247      0.00000     0.40546    0.00207     0.40753
      H   22    0.09622      0.00000     0.40236    0.00142     0.40378
      H   23    0.08259      0.00000     0.41586    0.00155     0.41741
      H   24    0.18178      0.00000     0.31525    0.00297     0.31822
      H   25    0.17828      0.00000     0.31725    0.00447     0.32172
      H   26    0.18819      0.00000     0.30832    0.00349     0.31181
      H   27    0.10305      0.00000     0.39514    0.00181     0.39695
      H   28    0.12050      0.00000     0.37841    0.00109     0.37950
      H   29    0.09712      0.00000     0.40214    0.00075     0.40288
      H   30    0.09925      0.00000     0.39944    0.00131     0.40075
      H   31    0.09368      0.00000     0.40488    0.00144     0.40632
      H   32    0.10395      0.00000     0.39442    0.00163     0.39605
      H   33    0.10737      0.00000     0.39005    0.00258     0.39263
      H   34    0.09947      0.00000     0.39930    0.00123     0.40053
      H   35    0.11012      0.00000     0.38874    0.00114     0.38988
      H   36    0.10955      0.00000     0.38947    0.00098     0.39045
 =======================================================================
   * Total *   -0.00000     16.99342    45.79985    0.20672    63.00000

 Normal termination of Gaussian 16 at Fri Dec 11 14:05:00 2020.
