 Gaussian 16, Revision A.03,

 -----------------------------------------------------------
 # opt freq B3LYP/6-31G(d) empiricaldispersion=gd3bj scf=xqc
 -----------------------------------------------------------

 ------------------------------
 CID_8533674_JID_10967_neutraal
 ------------------------------
 Symbolic Z-matrix:
 Charge =  0 Multiplicity = 1

 SCF Done:  E(RB3LYP) =  -898.984833759     A.U. after   15 cycles
 SCF Done:  E(RB3LYP) =  -898.996539804     A.U. after   13 cycles
 SCF Done:  E(RB3LYP) =  -898.992129134     A.U. after   15 cycles
 SCF Done:  E(RB3LYP) =  -898.996207973     A.U. after   13 cycles
 SCF Done:  E(RB3LYP) =  -898.999317992     A.U. after   11 cycles
 SCF Done:  E(RB3LYP) =  -899.001679085     A.U. after   13 cycles
 SCF Done:  E(RB3LYP) =  -899.002185353     A.U. after   13 cycles
 SCF Done:  E(RB3LYP) =  -899.003946959     A.U. after   13 cycles
 SCF Done:  E(RB3LYP) =  -899.004789900     A.U. after   12 cycles
 SCF Done:  E(RB3LYP) =  -899.004990628     A.U. after   13 cycles
 SCF Done:  E(RB3LYP) =  -899.005735186     A.U. after    9 cycles
 SCF Done:  E(RB3LYP) =  -899.005736621     A.U. after    8 cycles
 SCF Done:  E(RB3LYP) =  -899.005738274     A.U. after    8 cycles
 SCF Done:  E(RB3LYP) =  -899.005739039     A.U. after    8 cycles
 SCF Done:  E(RB3LYP) =  -899.005739262     A.U. after    7 cycles
 Optimization completed.
    -- Stationary point found.
 Normal termination of Gaussian 16 at Mon Dec 14 18:01:24 2020.

 --------------------------------------------------------------------
 #N Geom=AllCheck Guess=TCheck SCRF=Check GenChk RB3LYP/6-31G(d) Freq
 --------------------------------------------------------------------

 Structure from the checkpoint file:  "JID_10967.chk"
 ------------------------------
 CID_8533674_JID_10967_neutraal
 ------------------------------
 Charge =  0 Multiplicity = 1

 SCF Done:  E(RB3LYP) =  -899.005739262     A.U. after    1 cycles

  Exact polarizability: 214.298   5.783 167.466  10.747  13.262 138.231
 Approx polarizability: 275.900   6.311 271.834  25.986  34.715 232.152

                      1                      2                      3
                      A                      A                      A
 Frequencies --     26.9626                41.1739                50.3376
 Red. masses --      5.3963                 4.4000                 4.4315
 Frc consts  --      0.0023                 0.0044                 0.0066
 IR Inten    --      0.8126                 0.1204                 1.8905

                      4                      5                      6
                      A                      A                      A
 Frequencies --     51.4368                70.7144                80.0811
 Red. masses --      3.7556                 6.8956                 3.2354
 Frc consts  --      0.0059                 0.0203                 0.0122
 IR Inten    --      0.1236                 1.2338                 0.1964

                      7                      8                      9
                      A                      A                      A
 Frequencies --     88.6321               100.0308               113.3331
 Red. masses --      6.4972                 3.1596                 2.2217
 Frc consts  --      0.0301                 0.0186                 0.0168
 IR Inten    --      2.9114                 1.7868                 0.1693

                     10                     11                     12
                      A                      A                      A
 Frequencies --    125.1531               147.3561               195.4434
 Red. masses --      4.6394                 3.8061                 4.2577
 Frc consts  --      0.0428                 0.0487                 0.0958
 IR Inten    --      0.1172                 0.4058                 0.9967

                     13                     14                     15
                      A                      A                      A
 Frequencies --    201.5856               247.6410               254.0820
 Red. masses --      3.8380                 2.4503                 1.8736
 Frc consts  --      0.0919                 0.0885                 0.0713
 IR Inten    --      2.2666                 0.5672                 2.7219

                     16                     17                     18
                      A                      A                      A
 Frequencies --    279.6816               303.8634               342.8953
 Red. masses --      2.5870                 2.8897                 3.1305
 Frc consts  --      0.1192                 0.1572                 0.2169
 IR Inten    --      2.7247                 0.2715                 3.3875

                     19                     20                     21
                      A                      A                      A
 Frequencies --    377.6207               400.4612               420.6616
 Red. masses --      3.1444                 4.4746                 2.9951
 Frc consts  --      0.2642                 0.4228                 0.3123
 IR Inten    --      2.5684                 3.1998                 1.2015

                     22                     23                     24
                      A                      A                      A
 Frequencies --    439.6918               461.4144               468.0400
 Red. masses --      2.3418                 2.6719                 3.0335
 Frc consts  --      0.2668                 0.3352                 0.3915
 IR Inten    --      7.2830                 4.6258                21.2581

                     25                     26                     27
                      A                      A                      A
 Frequencies --    473.5682               516.0872               555.2076
 Red. masses --      2.2031                 3.9283                 1.3888
 Frc consts  --      0.2911                 0.6165                 0.2522
 IR Inten    --     39.2429                 3.5149                52.7582

                     28                     29                     30
                      A                      A                      A
 Frequencies --    570.7742               594.9653               633.2016
 Red. masses --      3.8747                 1.6408                 3.7421
 Frc consts  --      0.7437                 0.3422                 0.8840
 IR Inten    --     37.2392               109.0250                 8.8739

                     31                     32                     33
                      A                      A                      A
 Frequencies --    638.3674               653.5529               685.6165
 Red. masses --      6.0028                 4.6551                 2.6744
 Frc consts  --      1.4413                 1.1715                 0.7407
 IR Inten    --      1.3429                 1.8757                93.3798

                     34                     35                     36
                      A                      A                      A
 Frequencies --    721.5405               727.4239               766.5315
 Red. masses --      1.7817                 6.2088                 2.2484
 Frc consts  --      0.5465                 1.9357                 0.7784
 IR Inten    --     30.6382                72.2101                31.8618

                     37                     38                     39
                      A                      A                      A
 Frequencies --    782.1089               820.9075               829.2981
 Red. masses --      1.1600                 1.1952                 2.5163
 Frc consts  --      0.4181                 0.4746                 1.0196
 IR Inten    --      0.9562                 0.8976                 1.5303

                     40                     41                     42
                      A                      A                      A
 Frequencies --    841.9004               848.5032               861.5729
 Red. masses --      3.2999                 2.1886                 1.7528
 Frc consts  --      1.3781                 0.9284                 0.7666
 IR Inten    --     11.5260                27.2755                 6.3153

                     43                     44                     45
                      A                      A                      A
 Frequencies --    870.0845               877.9798               937.9998
 Red. masses --      1.2549                 3.2383                 1.5288
 Frc consts  --      0.5597                 1.4707                 0.7925
 IR Inten    --      0.2429                10.7793                 4.9808

                     46                     47                     48
                      A                      A                      A
 Frequencies --    946.3973               953.6190               976.6715
 Red. masses --      3.0358                 2.2038                 1.3452
 Frc consts  --      1.6020                 1.1808                 0.7560
 IR Inten    --     12.3594                 3.9147                 1.2745

                     49                     50                     51
                      A                      A                      A
 Frequencies --    988.2634              1003.7983              1012.1502
 Red. masses --      1.7581                 1.3043                 3.2302
 Frc consts  --      1.0116                 0.7743                 1.9497
 IR Inten    --      0.7123                 2.8114                16.3009

                     52                     53                     54
                      A                      A                      A
 Frequencies --   1022.7091              1042.6845              1056.5476
 Red. masses --      5.8601                 2.2203                 1.5526
 Frc consts  --      3.6113                 1.4222                 1.0211
 IR Inten    --      0.0727                 6.6656                 3.8859

                     55                     56                     57
                      A                      A                      A
 Frequencies --   1062.4764              1076.4113              1086.5239
 Red. masses --      2.2872                 1.5987                 2.4816
 Frc consts  --      1.5212                 1.0914                 1.7261
 IR Inten    --      3.1138                14.0656                 8.7507

                     58                     59                     60
                      A                      A                      A
 Frequencies --   1089.4866              1118.0324              1127.4422
 Red. masses --      1.3565                 1.7288                 2.0589
 Frc consts  --      0.9486                 1.2732                 1.5420
 IR Inten    --      1.5618                21.8411                18.8951

                     61                     62                     63
                      A                      A                      A
 Frequencies --   1148.8127              1162.2149              1194.2494
 Red. masses --      1.1291                 1.8400                 1.0966
 Frc consts  --      0.8780                 1.4643                 0.9215
 IR Inten    --      4.1972                20.7874                 0.0322

                     64                     65                     66
                      A                      A                      A
 Frequencies --   1205.7161              1208.9431              1209.8786
 Red. masses --      1.9739                 1.8002                 1.4931
 Frc consts  --      1.6907                 1.5502                 1.2877
 IR Inten    --      7.7856                 2.6865                 3.4013

                     67                     68                     69
                      A                      A                      A
 Frequencies --   1221.4425              1233.6553              1260.6407
 Red. masses --      1.2654                 2.4201                 1.6947
 Frc consts  --      1.1123                 2.1700                 1.5869
 IR Inten    --      0.3840                12.1882                81.6378

                     70                     71                     72
                      A                      A                      A
 Frequencies --   1264.2419              1316.3492              1342.9304
 Red. masses --      1.5874                 1.4080                 2.2171
 Frc consts  --      1.4948                 1.4375                 2.3558
 IR Inten    --      8.5645                10.8888               212.7618

                     73                     74                     75
                      A                      A                      A
 Frequencies --   1351.2851              1372.9743              1385.4423
 Red. masses --      2.1412                 2.0876                 1.2877
 Frc consts  --      2.3036                 2.3186                 1.4563
 IR Inten    --     66.8154                 6.2501                 0.4749

                     76                     77                     78
                      A                      A                      A
 Frequencies --   1390.5193              1398.1154              1408.5715
 Red. masses --      1.6333                 1.5389                 1.9071
 Frc consts  --      1.8606                 1.7723                 2.2294
 IR Inten    --     54.9608               101.4051                30.7389

                     79                     80                     81
                      A                      A                      A
 Frequencies --   1421.7414              1431.2911              1438.7027
 Red. masses --      1.2644                 1.7246                 1.5193
 Frc consts  --      1.5058                 2.0816                 1.8529
 IR Inten    --      2.6705                40.3172                48.4774

                     82                     83                     84
                      A                      A                      A
 Frequencies --   1444.2744              1481.5230              1491.8551
 Red. masses --      1.4001                 1.6603                 1.2176
 Frc consts  --      1.7207                 2.1471                 1.5967
 IR Inten    --     22.1638                39.2788                 5.1465

                     85                     86                     87
                      A                      A                      A
 Frequencies --   1503.7915              1509.5458              1521.9920
 Red. masses --      2.0540                 1.1174                 1.0620
 Frc consts  --      2.7367                 1.5002                 1.4495
 IR Inten    --      5.2069                 4.6325                 6.2275

                     88                     89                     90
                      A                      A                      A
 Frequencies --   1524.7697              1528.8365              1531.9640
 Red. masses --      1.0780                 1.1334                 1.2485
 Frc consts  --      1.4767                 1.5609                 1.7263
 IR Inten    --      0.3161                10.7738                 4.0085

                     91                     92                     93
                      A                      A                      A
 Frequencies --   1545.9739              1549.8501              1646.0801
 Red. masses --      1.0916                 2.1054                 5.3839
 Frc consts  --      1.5372                 2.9797                 8.5951
 IR Inten    --      4.2007                 8.1475                 1.2675

                     94                     95                     96
                      A                      A                      A
 Frequencies --   1667.3483              1788.6230              1814.9862
 Red. masses --      5.4443                 8.9600                 8.0671
 Frc consts  --      8.9176                16.8887                15.6572
 IR Inten    --      1.3275               277.1015               424.6581

                     97                     98                     99
                      A                      A                      A
 Frequencies --   2972.4417              3021.7609              3057.4197
 Red. masses --      1.0723                 1.0714                 1.0364
 Frc consts  --      5.5822                 5.7638                 5.7080
 IR Inten    --     54.6513                28.6388                21.4502

                    100                    101                    102
                      A                      A                      A
 Frequencies --   3070.6287              3076.4505              3115.3822
 Red. masses --      1.0683                 1.0818                 1.1021
 Frc consts  --      5.9348                 6.0324                 6.3020
 IR Inten    --      9.5983                23.5568                 2.4279

                    103                    104                    105
                      A                      A                      A
 Frequencies --   3116.9794              3123.7307              3137.5627
 Red. masses --      1.0980                 1.0920                 1.1026
 Frc consts  --      6.2850                 6.2781                 6.3952
 IR Inten    --     34.7485                46.3534                24.8719

                    106                    107                    108
                      A                      A                      A
 Frequencies --   3151.0885              3156.0657              3170.7439
 Red. masses --      1.0821                 1.0571                 1.0588
 Frc consts  --      6.3303                 6.2037                 6.2714
 IR Inten    --     21.3826                14.4735                 5.6043

                    109                    110                    111
                      A                      A                      A
 Frequencies --   3173.2875              3183.8539              3193.2333
 Red. masses --      1.0862                 1.0868                 1.0909
 Frc consts  --      6.4444                 6.4910                 6.5541
 IR Inten    --      8.1944                 2.2063                24.7295

                    112                    113                    114
                      A                      A                      A
 Frequencies --   3201.9451              3210.0428              3237.5958
 Red. masses --      1.0937                 1.0979                 1.1196
 Frc consts  --      6.6066                 6.6655                 6.9146
 IR Inten    --     16.5603                25.8892                 4.9326

                    115                    116                    117
                      A                      A                      A
 Frequencies --   3258.1911              3580.3624              3604.1774
 Red. masses --      1.1161                 1.0751                 1.0756
 Frc consts  --      6.9806                 8.1198                 8.2321
 IR Inten    --      8.3290                45.9588                30.3665

 - Thermochemistry -
 -------------------
 Temperature   298.150 Kelvin.  Pressure   1.00000 Atm.
 Atom     1 has atomic number  6 and mass  12.00000

 Molecular mass:   275.16338 amu.
 Principal axes and moments of inertia in atomic units:
                           1         2         3
     Eigenvalues --  2654.740159194.437219905.94954
           X            0.99997   0.00192  -0.00750
           Y           -0.00209   0.99975  -0.02214
           Z            0.00745   0.02215   0.99973
 This molecule is an asymmetric top.
 Rotational symmetry number  1.
 Warning -- assumption of classical behavior for rotation
           may cause significant error
 Rotational temperatures (Kelvin)      0.03263     0.00942     0.00874
 Rotational constants (GHZ):           0.67982     0.19629     0.18219
 Zero-point vibrational energy     919873.1 (Joules/Mol)
                                  219.85495 (Kcal/Mol)
 Warning -- explicit consideration of  29 degrees of freedom as
           vibrations may cause significant error
 Vibrational temperatures:     38.79    59.24    72.42    74.01   101.74
          (Kelvin)            115.22   127.52   143.92   163.06   180.07
                              212.01   281.20   290.04   356.30   365.57
                              402.40   437.19   493.35   543.31   576.17
                              605.24   632.62   663.87   673.41   681.36
                              742.53   798.82   821.22   856.02   911.04
                              918.47   940.32   986.45  1038.14  1046.60
                             1102.87  1125.28  1181.10  1193.18  1211.31
                             1220.81  1239.61  1251.86  1263.22  1349.57
                             1361.65  1372.05  1405.21  1421.89  1444.24
                             1456.26  1471.45  1500.19  1520.14  1528.67
                             1548.72  1563.27  1567.53  1608.60  1622.14
                             1652.89  1672.17  1718.26  1734.76  1739.40
                             1740.75  1757.38  1774.95  1813.78  1818.96
                             1893.93  1932.18  1944.20  1975.40  1993.34
                             2000.65  2011.58  2026.62  2045.57  2059.31
                             2069.97  2077.99  2131.58  2146.45  2163.62
                             2171.90  2189.81  2193.80  2199.65  2204.15
                             2224.31  2229.89  2368.34  2398.94  2573.43
                             2611.36  4276.68  4347.64  4398.95  4417.95
                             4426.33  4482.34  4484.64  4494.35  4514.25
                             4533.71  4540.87  4561.99  4565.65  4580.86
                             4594.35  4606.88  4618.54  4658.18  4687.81
                             5151.34  5185.61

 Zero-point correction=                           0.350361 (Hartree/Particle)
 Thermal correction to Energy=                    0.369929
 Thermal correction to Enthalpy=                  0.370873
 Thermal correction to Gibbs Free Energy=         0.300919
 Sum of electronic and zero-point Energies=           -898.655378
 Sum of electronic and thermal Energies=              -898.635810
 Sum of electronic and thermal Enthalpies=            -898.634866
 Sum of electronic and thermal Free Energies=         -898.704820

                     E (Thermal)             CV                S
                      KCal/Mol        Cal/Mol-Kelvin    Cal/Mol-Kelvin
 Total                  232.134             74.277            147.232
 Electronic               0.000              0.000              0.000
 Translational            0.889              2.981             42.735
 Rotational               0.889              2.981             33.847
 Vibrational            230.357             68.316             70.650
 Vibration     1          0.593              1.984              6.041
 Vibration     2          0.594              1.981              5.202
 Vibration     3          0.595              1.977              4.804
 Vibration     4          0.596              1.977              4.761
 Vibration     5          0.598              1.968              4.133
 Vibration     6          0.600              1.963              3.889
 Vibration     7          0.601              1.957              3.690
 Vibration     8          0.604              1.949              3.454
 Vibration     9          0.607              1.938              3.211
 Vibration    10          0.610              1.928              3.019
 Vibration    11          0.617              1.906              2.706
 Vibration    12          0.636              1.846              2.176
 Vibration    13          0.638              1.838              2.119
 Vibration    14          0.661              1.767              1.747
 Vibration    15          0.665              1.756              1.702
 Vibration    16          0.680              1.711              1.536
 Vibration    17          0.695              1.666              1.396
 Vibration    18          0.722              1.590              1.199
 Vibration    19          0.748              1.518              1.049
 Vibration    20          0.766              1.469              0.961
 Vibration    21          0.783              1.425              0.890
 Vibration    22          0.800              1.384              0.828
 Vibration    23          0.819              1.336              0.762
 Vibration    24          0.825              1.321              0.743
 Vibration    25          0.830              1.309              0.728
 Vibration    26          0.871              1.214              0.619
 Vibration    27          0.911              1.128              0.533
 Vibration    28          0.927              1.094              0.503
 Vibration    29          0.953              1.042              0.458

 Optimization completed.
    -- Stationary point found.
 Normal termination of Gaussian 16 at Mon Dec 14 18:24:36 2020.

 ----------------------------------------------------------------------
 # B3LYP/6-311++G(d,p) empiricaldispersion=gd3bj scf=xqc pop=npa geom=c
 heck
 ----------------------------------------------------------------------

 --------------------------------------
 CID_8533674_JID_10967_Energie_neutraal
 --------------------------------------
 Structure from the checkpoint file:  "JID_10967.chk"
 Charge =  0 Multiplicity = 1

 SCF Done:  E(RB3LYP) =  -899.261870363     A.U. after   16 cycles
 Normal termination of Gaussian 16 at Mon Dec 14 18:34:16 2020.

 ----------------------------------------------------------------------
 # B3LYP/6-311++G(d,p) empiricaldispersion=gd3bj scf=xqc pop=npa geom=c
 heck
 ----------------------------------------------------------------------

 ------------------------------------
 CID_8533674_JID_10967_Energie_kation
 ------------------------------------
 Structure from the checkpoint file:  "JID_10967.chk"
 Charge =  1 Multiplicity = 2

 SCF Done:  E(UB3LYP) =  -898.968340238     A.U. after   30 cycles
 Normal termination of Gaussian 16 at Mon Dec 14 18:59:12 2020.
 Gaussian 16:  ES64L-G16RevA.03 25-Dec-2016

 ----------------------------------------------------------------------
 # B3LYP/6-311++G(d,p) empiricaldispersion=gd3bj scf=xqc pop=npa geom=c
 heck
 ----------------------------------------------------------------------

 -----------------------------------
 CID_8533674_JID_10967_Energie_anion
 -----------------------------------
 Structure from the checkpoint file:  "JID_10967.chk"
 Charge = -1 Multiplicity = 2

                         Standard orientation:
 ---------------------------------------------------------------------
 Center     Atomic      Atomic             Coordinates (Angstroms)
 Number     Number       Type             X           Y           Z
 ---------------------------------------------------------------------
      1          6           0        0.657888    2.841583   -0.933672
      2          6           0       -0.527262    2.099234   -0.318622
      3          7           0       -0.186761    0.763070    0.177386
      4          6           0       -1.198950    0.237929    1.117573
      5          6           0       -2.580149    0.008947    0.533581
      6          6           0       -3.559218    1.007214    0.610859
      7          6           0       -4.816599    0.825367    0.035449
      8          6           0       -5.113109   -0.365223   -0.629458
      9          6           0       -4.147759   -1.369892   -0.709352
     10          6           0       -2.891902   -1.186271   -0.129979
     11          6           0        0.143312   -0.173320   -0.889263
     12          6           0        0.677017   -1.492641   -0.342537
     13          8           0        0.250481   -2.569885   -0.728764
     14          7           0        1.628626   -1.444943    0.664866
     15          6           0        2.148906   -0.327562    1.386391
     16          8           0        1.973649   -0.226506    2.588376
     17          7           0        2.954870    0.521443    0.680499
     18          6           0        3.437042    0.425155   -0.663833
     19          6           0        4.932447    0.368538   -0.879257
     20          6           0        4.085896   -0.848648   -1.135904
     21          1           0        1.501107    2.861610   -0.236794
     22          1           0        0.370010    3.873337   -1.162301
     23          1           0        0.994498    2.388312   -1.872250
     24          1           0       -0.884309    2.670498    0.545686
     25          1           0       -1.363798    2.069798   -1.038791
     26          1           0       -0.806159   -0.692176    1.539058
     27          1           0       -1.254539    0.952844    1.945046
     28          1           0       -3.335531    1.932877    1.136293
     29          1           0       -5.565205    1.609478    0.110774
     30          1           0       -6.092171   -0.511079   -1.077405
     31          1           0       -4.372810   -2.302296   -1.219840
     32          1           0       -2.146685   -1.973953   -0.198642
     33          1           0       -0.708323   -0.437157   -1.534091
     34          1           0        0.908411    0.274229   -1.528575
     35          1           0        1.640000   -2.296853    1.215516
     36          1           0        3.244195    1.320808    1.229296
     37          1           0        2.874197    0.993684   -1.401132
     38          1           0        5.342631    0.915421   -1.722969
     39          1           0        5.557034    0.363353    0.009167
     40          1           0        4.142948   -1.665290   -0.425765
     41          1           0        3.898964   -1.155766   -2.160286
 ---------------------------------------------------------------------

 SCF Done:  E(UB3LYP) =  -899.252463830     A.U. after   33 cycles
 SCF Done:  E(UB3LYP) =  -899.252463830     a.u. after    1 cycles

 The electronic state is 2-A.
 Alpha  occ. eigenvalues --  -19.02451 -19.01304 -14.26826 -14.26081 -14.22847
 Alpha  occ. eigenvalues --  -10.22894 -10.20804 -10.13579 -10.12087 -10.11258
 Alpha  occ. eigenvalues --  -10.10518 -10.09766 -10.09569 -10.09497 -10.09385
 Alpha  occ. eigenvalues --  -10.09339 -10.09301 -10.09034 -10.08895 -10.06736
 Alpha  occ. eigenvalues --   -0.98483  -0.96739  -0.86503  -0.84937  -0.83276
 Alpha  occ. eigenvalues --   -0.77419  -0.76391  -0.68853  -0.67261  -0.66399
 Alpha  occ. eigenvalues --   -0.63653  -0.58520  -0.57301  -0.54643  -0.53071
 Alpha  occ. eigenvalues --   -0.52579  -0.51529  -0.50675  -0.48779  -0.45217
 Alpha  occ. eigenvalues --   -0.43817  -0.42972  -0.42188  -0.40457  -0.40402
 Alpha  occ. eigenvalues --   -0.38320  -0.37676  -0.37002  -0.36397  -0.35890
 Alpha  occ. eigenvalues --   -0.35032  -0.34004  -0.33773  -0.33241  -0.32839
 Alpha  occ. eigenvalues --   -0.31676  -0.30506  -0.29748  -0.29127  -0.28484
 Alpha  occ. eigenvalues --   -0.27862  -0.27282  -0.26756  -0.25929  -0.25206
 Alpha  occ. eigenvalues --   -0.24492  -0.22820  -0.22070  -0.19452  -0.18118
 Alpha  occ. eigenvalues --   -0.17804  -0.17388  -0.16991  -0.13921   0.03816
 Alpha virt. eigenvalues --    0.05315   0.05924   0.06373   0.06570   0.06669
 Alpha virt. eigenvalues --    0.07154   0.07367   0.07541   0.08496   0.09001
 Alpha virt. eigenvalues --    0.09352   0.09524   0.10018   0.10373   0.11099

  Beta  occ. eigenvalues --  -19.02446 -19.01301 -14.26821 -14.26065 -14.22846
  Beta  occ. eigenvalues --  -10.22894 -10.20797 -10.13564 -10.12077 -10.11254
  Beta  occ. eigenvalues --  -10.10503 -10.09752 -10.09562 -10.09463 -10.09374
  Beta  occ. eigenvalues --  -10.09329 -10.09291 -10.09016 -10.08896 -10.06688
  Beta  occ. eigenvalues --   -0.98474  -0.96730  -0.86485  -0.84922  -0.83260
  Beta  occ. eigenvalues --   -0.77395  -0.76361  -0.68826  -0.67227  -0.66371
  Beta  occ. eigenvalues --   -0.63623  -0.58496  -0.57266  -0.54608  -0.53009
  Beta  occ. eigenvalues --   -0.52544  -0.51477  -0.50640  -0.48747  -0.45184
  Beta  occ. eigenvalues --   -0.43784  -0.42941  -0.42144  -0.40435  -0.40347
  Beta  occ. eigenvalues --   -0.38292  -0.37654  -0.36983  -0.36374  -0.35872
  Beta  occ. eigenvalues --   -0.35010  -0.33982  -0.33753  -0.33212  -0.32811
  Beta  occ. eigenvalues --   -0.31654  -0.30478  -0.29716  -0.29092  -0.28451
  Beta  occ. eigenvalues --   -0.27816  -0.27250  -0.26722  -0.25908  -0.25173
  Beta  occ. eigenvalues --   -0.24463  -0.22792  -0.22057  -0.19440  -0.18107
  Beta  occ. eigenvalues --   -0.17778  -0.17341  -0.16943  -0.13911
  Beta virt. eigenvalues --    0.05708   0.06029   0.06263   0.06531   0.06704
  Beta virt. eigenvalues --    0.07131   0.07629   0.07798   0.07905   0.08860
  Beta virt. eigenvalues --    0.09368   0.09660   0.09898   0.10211   0.10559

 Mulliken charges and spin densities:
               1          2
     1  C    1.471086  -2.126692
     2  C   -1.102388   0.894903
     3  N    0.309873   0.004932
     4  C    0.198653  -0.952940
     5  C    0.101624   0.463590
     6  C    0.186381  -0.144067
     7  C    0.043174  -0.239020
     8  C    0.136655  -0.559047
     9  C   -0.114999  -0.059432
    10  C   -0.761730   0.623851
    11  C   -0.210802  -0.221473
    12  C   -0.200966   0.015028
    13  O   -0.237589   0.001592
    14  N   -0.170141  -0.011927
    15  C    0.512443  -0.413415
    16  O   -0.302567   0.022453
    17  N   -0.296832   0.119692
    18  C   -1.431650   1.290391
    19  C    1.755920  -2.204485
    20  C   -0.192932  -0.092425
    21  H   -0.062445   0.224937
    22  H   -0.656955   0.829002
    23  H   -0.508547   0.659225
    24  H   -0.109067   0.263125
    25  H    0.347590  -0.203861
    26  H    0.213814  -0.006167
    27  H    0.094431   0.135360
    28  H   -0.183247   0.341423
    29  H   -0.385481   0.570068
    30  H   -0.075032   0.217054
    31  H    0.106422   0.066112
    32  H    0.145650   0.061916
    33  H    0.085530   0.128264
    34  H   -0.104548   0.206910
    35  H    0.341249   0.004428
    36  H    0.070349   0.260096
    37  H    0.534735  -0.367771
    38  H   -0.656119   0.830607
    39  H    0.076272   0.061236
    40  H    0.123524   0.036594
    41  H   -0.091336   0.269934
 Sum of Mulliken charges =  -1.00000   1.00000

 Dipole moment (field-independent basis, Debye):
    X=             -2.0294    Y=             -5.6796    Z=              2.4086  Tot=              6.4944
 Quadrupole moment (field-independent basis, Debye-Ang):
   XX=           -212.3717   YY=           -175.3353   ZZ=           -168.1886
   XY=             -5.7567   XZ=             13.5715   YZ=              3.8462

 Summary of Natural Population Analysis:

                                       Natural Population
                Natural  -----------------------------------------------
    Atom  No    Charge         Core      Valence    Rydberg      Total
 -----------------------------------------------------------------------
      C    1   -0.28876      0.99966     2.28356    0.00555     3.28876
      C    2   -0.08289      0.99961     2.07270    0.01058     3.08289
      N    3   -0.27865      0.99972     2.76618    0.01274     3.77865
      C    4   -0.09176      0.99957     2.08004    0.01215     3.09176
      C    5   -0.02704      0.99950     2.01829    0.00925     3.02704
      C    6   -0.09618      0.99951     2.08707    0.00960     3.09618
      C    7   -0.10107      0.99956     2.09149    0.01002     3.10107
      C    8   -0.10521      0.99956     2.09539    0.01025     3.10521
      C    9   -0.09946      0.99957     2.09079    0.00911     3.09946
      C   10   -0.10426      0.99951     2.09658    0.00817     3.10426
      C   11   -0.13455      0.99955     2.12473    0.01026     3.13455
      C   12    0.34839      0.99967     1.62787    0.02406     2.65161
      O   13   -0.30931      0.99987     3.30393    0.00550     4.30931
      N   14   -0.34322      0.99963     2.83501    0.00858     3.84322
      C   15    0.41470      0.99969     1.56120    0.02441     2.58530
      O   16   -0.31752      0.99987     3.31248    0.00517     4.31752
      N   17   -0.31370      0.99965     2.80319    0.01086     3.81370
      C   18   -0.03167      0.99957     2.01852    0.01359     3.03167
      C   19   -0.19234      0.99962     2.18327    0.00946     3.19234
      C   20   -0.19397      0.99961     2.18519    0.00917     3.19397
      H   21    0.10030      0.00000     0.39775    0.00194     0.39970
      H   22    0.10489      0.00000     0.39379    0.00132     0.39511
      H   23    0.09594      0.00000     0.40225    0.00181     0.40406
      H   24    0.09603      0.00000     0.40245    0.00152     0.40397
      H   25    0.08456      0.00000     0.41344    0.00200     0.41544
      H   26    0.10105      0.00000     0.39756    0.00140     0.39895
      H   27    0.10365      0.00000     0.39536    0.00099     0.39635
      H   28    0.10150      0.00000     0.39682    0.00168     0.39850
      H   29    0.10200      0.00000     0.39692    0.00107     0.39800
      H   30    0.10004      0.00000     0.39921    0.00076     0.39996
      H   31    0.09984      0.00000     0.39943    0.00074     0.40016
      H   32    0.11040      0.00000     0.38808    0.00152     0.38960
      H   33    0.10282      0.00000     0.39577    0.00141     0.39718
      H   34    0.11345      0.00000     0.38454    0.00200     0.38655
      H   35    0.20239      0.00000     0.29582    0.00180     0.29761
      H   36    0.19927      0.00000     0.29826    0.00247     0.30073
      H   37    0.10251      0.00000     0.39484    0.00265     0.39749
      H   38    0.10992      0.00000     0.38766    0.00242     0.39008
      H   39    0.10391      0.00000     0.39507    0.00103     0.39609
      H   40    0.10610      0.00000     0.39282    0.00107     0.39390
      H   41    0.10791      0.00000     0.39112    0.00097     0.39209
 =======================================================================
   * Total *    0.00000     19.99252    53.75646    0.25102    74.00000

 Normal termination of Gaussian 16 at Mon Dec 14 19:26:22 2020.
