 Gaussian 16, Revision A.03,

 -----------------------------------------------------------
 # opt freq B3LYP/6-31G(d) empiricaldispersion=gd3bj scf=xqc
 -----------------------------------------------------------

 ------------------------------
 CID_63810125_JID_4955_neutraal
 ------------------------------
 Symbolic Z-matrix:
 Charge =  0 Multiplicity = 1

 SCF Done:  E(RB3LYP) =  -644.396033075     A.U. after   15 cycles
 SCF Done:  E(RB3LYP) =  -644.399246622     A.U. after   12 cycles
 SCF Done:  E(RB3LYP) =  -644.399910518     A.U. after   12 cycles
 SCF Done:  E(RB3LYP) =  -644.400095166     A.U. after   10 cycles
 SCF Done:  E(RB3LYP) =  -644.400149406     A.U. after   11 cycles
 SCF Done:  E(RB3LYP) =  -644.400160749     A.U. after   10 cycles
 SCF Done:  E(RB3LYP) =  -644.400166923     A.U. after    9 cycles
 SCF Done:  E(RB3LYP) =  -644.400169974     A.U. after    9 cycles
 SCF Done:  E(RB3LYP) =  -644.400171728     A.U. after    9 cycles
 SCF Done:  E(RB3LYP) =  -644.400173492     A.U. after    9 cycles
 SCF Done:  E(RB3LYP) =  -644.400176277     A.U. after   10 cycles
 SCF Done:  E(RB3LYP) =  -644.400177479     A.U. after    9 cycles
 SCF Done:  E(RB3LYP) =  -644.400177831     A.U. after    8 cycles
 SCF Done:  E(RB3LYP) =  -644.400177895     A.U. after    7 cycles
 Optimization completed.
    -- Stationary point found.
 Normal termination of Gaussian 16 at Thu Dec 10 10:55:14 2020.

 --------------------------------------------------------------------
 #N Geom=AllCheck Guess=TCheck SCRF=Check GenChk RB3LYP/6-31G(d) Freq
 --------------------------------------------------------------------

 Structure from the checkpoint file:  "JID_4955.chk"
 ------------------------------
 CID_63810125_JID_4955_neutraal
 ------------------------------
 Charge =  0 Multiplicity = 1

 SCF Done:  E(RB3LYP) =  -644.400177895     A.U. after    1 cycles

  Exact polarizability: 138.875   0.027 108.228  11.243   2.351  92.754
 Approx polarizability: 182.318   5.849 172.180  25.332  14.028 157.580

                      1                      2                      3
                      A                      A                      A
 Frequencies --     12.3131                25.5737                35.1385
 Red. masses --      4.3569                 4.4442                 3.4556
 Frc consts  --      0.0004                 0.0017                 0.0025
 IR Inten    --      1.2477                 2.6200                 0.2243

                      4                      5                      6
                      A                      A                      A
 Frequencies --     62.6462                92.4318               122.0241
 Red. masses --      6.1931                 2.9102                 2.3643
 Frc consts  --      0.0143                 0.0146                 0.0207
 IR Inten    --      0.7990                 0.5141                 0.2183

                      7                      8                      9
                      A                      A                      A
 Frequencies --    195.3534               230.9803               255.3638
 Red. masses --      3.4313                 3.9873                 1.4664
 Frc consts  --      0.0772                 0.1253                 0.0563
 IR Inten    --      0.4277                 2.3443                 1.9934

                     10                     11                     12
                      A                      A                      A
 Frequencies --    297.1325               329.8757               365.3253
 Red. masses --      3.7999                 3.9837                 1.9623
 Frc consts  --      0.1977                 0.2554                 0.1543
 IR Inten    --      2.9296                 2.3687                 3.5955

                     13                     14                     15
                      A                      A                      A
 Frequencies --    416.8928               458.0037               617.0420
 Red. masses --      2.8243                 3.4150                 3.7917
 Frc consts  --      0.2892                 0.4221                 0.8506
 IR Inten    --      0.3903                 1.3827                 1.7226

                     16                     17                     18
                      A                      A                      A
 Frequencies --    632.4704               663.1218               669.2835
 Red. masses --      3.8113                 6.2090                 5.8048
 Frc consts  --      0.8983                 1.6086                 1.5320
 IR Inten    --      9.1676                 1.4563                 4.8069

                     19                     20                     21
                      A                      A                      A
 Frequencies --    752.0094               754.0563               756.7112
 Red. masses --      1.2397                 2.7904                 3.1684
 Frc consts  --      0.4131                 0.9348                 1.0689
 IR Inten    --     40.1075                13.7609                35.9413

                     22                     23                     24
                      A                      A                      A
 Frequencies --    807.2062               831.6192               832.3310
 Red. masses --      4.8327                 1.3801                 1.7723
 Frc consts  --      1.8553                 0.5624                 0.7234
 IR Inten    --      7.0106                11.4738                14.6557

                     25                     26                     27
                      A                      A                      A
 Frequencies --    870.9443               887.6600               905.0870
 Red. masses --      2.6729                 1.3105                 2.1626
 Frc consts  --      1.1946                 0.6084                 1.0438
 IR Inten    --      3.6770                 3.2077                 3.0262

                     28                     29                     30
                      A                      A                      A
 Frequencies --    913.2254               941.3939               962.0502
 Red. masses --      2.6717                 5.8894                 2.5389
 Frc consts  --      1.3128                 3.0752                 1.3845
 IR Inten    --     15.8812                 4.6233                 6.2515

                     31                     32                     33
                      A                      A                      A
 Frequencies --    990.3360              1015.3892              1050.8222
 Red. masses --      2.6699                 6.3230                 4.1099
 Frc consts  --      1.5428                 3.8409                 2.6738
 IR Inten    --     17.1740                 0.7475                 2.0846

                     34                     35                     36
                      A                      A                      A
 Frequencies --   1070.5541              1076.4823              1100.7664
 Red. masses --      2.1897                 1.6308                 1.8008
 Frc consts  --      1.4786                 1.1134                 1.2856
 IR Inten    --      4.3664                21.3108                 2.1409

                     37                     38                     39
                      A                      A                      A
 Frequencies --   1117.8307              1132.2245              1181.9900
 Red. masses --      1.8249                 1.6466                 1.6107
 Frc consts  --      1.3435                 1.2437                 1.3259
 IR Inten    --     14.2422                 0.6551                 2.0092

                     40                     41                     42
                      A                      A                      A
 Frequencies --   1249.3021              1253.0460              1307.6066
 Red. masses --      1.5272                 1.5662                 1.2947
 Frc consts  --      1.4044                 1.4488                 1.3043
 IR Inten    --     13.7350                14.0035                 9.2058

                     43                     44                     45
                      A                      A                      A
 Frequencies --   1321.2819              1343.2846              1364.6594
 Red. masses --      4.2478                 2.7372                 1.8479
 Frc consts  --      4.3692                 2.9099                 2.0276
 IR Inten    --     28.3136                11.1474                29.0978

                     46                     47                     48
                      A                      A                      A
 Frequencies --   1382.4883              1389.8650              1400.0209
 Red. masses --      1.6081                 1.4148                 1.8830
 Frc consts  --      1.8109                 1.6103                 2.1745
 IR Inten    --     30.5688                15.7442                19.8749

                     49                     50                     51
                      A                      A                      A
 Frequencies --   1417.2085              1441.8361              1450.5981
 Red. masses --      2.6741                 4.0045                 1.2557
 Frc consts  --      3.1644                 4.9049                 1.5568
 IR Inten    --     29.9644                35.3057                 7.0588

                     52                     53                     54
                      A                      A                      A
 Frequencies --   1481.3912              1496.6363              1503.4326
 Red. masses --      1.3299                 2.4466                 1.1310
 Frc consts  --      1.7195                 3.2288                 1.5062
 IR Inten    --      6.4673                15.2313                 5.6989

                     55                     56                     57
                      A                      A                      A
 Frequencies --   1518.9592              1529.5711              1536.0487
 Red. masses --      1.0767                 1.0464                 1.0775
 Frc consts  --      1.4637                 1.4424                 1.4979
 IR Inten    --      1.4765                 3.8311                 6.4897

                     58                     59                     60
                      A                      A                      A
 Frequencies --   1564.8634              1575.8902              1641.8837
 Red. masses --      6.7685                 4.1547                 9.2587
 Frc consts  --      9.7656                 6.0792                14.7056
 IR Inten    --      7.1131                18.1245                80.1479

                     61                     62                     63
                      A                      A                      A
 Frequencies --   3046.5591              3052.8442              3063.1558
 Red. masses --      1.0606                 1.0385                 1.0666
 Frc consts  --      5.7997                 5.7024                 5.8965
 IR Inten    --     30.7681                22.8364                 6.5571

                     64                     65                     66
                      A                      A                      A
 Frequencies --   3084.2806              3088.1168              3114.8177
 Red. masses --      1.0971                 1.0664                 1.1019
 Frc consts  --      6.1488                 5.9917                 6.2990
 IR Inten    --     28.7294                10.9670                28.0854

                     67                     68                     69
                      A                      A                      A
 Frequencies --   3119.1622              3139.7217              3174.5753
 Red. masses --      1.1028                 1.1011                 1.0990
 Frc consts  --      6.3215                 6.3951                 6.5255
 IR Inten    --     25.6512                30.3060                 0.4730

                     70                     71                     72
                      A                      A                      A
 Frequencies --   3259.7896              3275.2083              3292.5863
 Red. masses --      1.0932                 1.0930                 1.1065
 Frc consts  --      6.8442                 6.9079                 7.0678
 IR Inten    --      5.7515                 1.8328                 1.3385

 - Thermochemistry -
 -------------------
 Temperature   298.150 Kelvin.  Pressure   1.00000 Atm.
 Atom     1 has atomic number  6 and mass  12.00000

 Molecular mass:   192.10111 amu.
 Principal axes and moments of inertia in atomic units:
                           1         2         3
     Eigenvalues --  1264.734974934.643095453.13715
           X            0.99978   0.02082   0.00126
           Y           -0.02078   0.99946  -0.02531
           Z           -0.00178   0.02528   0.99968
 This molecule is an asymmetric top.
 Rotational symmetry number  1.
 Warning -- assumption of classical behavior for rotation
           may cause significant error
 Rotational temperatures (Kelvin)      0.06848     0.01755     0.01588
 Rotational constants (GHZ):           1.42697     0.36573     0.33095
 Zero-point vibrational energy     558131.8 (Joules/Mol)
                                  133.39671 (Kcal/Mol)
 Warning -- explicit consideration of  15 degrees of freedom as
           vibrations may cause significant error
 Vibrational temperatures:     17.72    36.79    50.56    90.13   132.99
          (Kelvin)            175.57   281.07   332.33   367.41   427.51
                              474.62   525.62   599.82   658.97   887.79
                              909.98   954.08   962.95  1081.97  1084.92
                             1088.74  1161.39  1196.51  1197.54  1253.09
                             1277.14  1302.22  1313.93  1354.46  1384.18
                             1424.87  1460.92  1511.90  1540.29  1548.82
                             1583.76  1608.31  1629.02  1700.62  1797.47
                             1802.85  1881.35  1901.03  1932.69  1963.44
                             1989.09  1999.71  2014.32  2039.05  2074.48
                             2087.09  2131.39  2153.33  2163.10  2185.44
                             2200.71  2210.03  2251.49  2267.35  2362.30
                             4383.32  4392.36  4407.20  4437.59  4443.11
                             4481.53  4487.78  4517.36  4567.51  4690.11
                             4712.29  4737.30

 Zero-point correction=                           0.212581 (Hartree/Particle)
 Thermal correction to Energy=                    0.225344
 Thermal correction to Enthalpy=                  0.226288
 Thermal correction to Gibbs Free Energy=         0.169424
 Sum of electronic and zero-point Energies=           -644.187597
 Sum of electronic and thermal Energies=              -644.174834
 Sum of electronic and thermal Enthalpies=            -644.173890
 Sum of electronic and thermal Free Energies=         -644.230754

                     E (Thermal)             CV                S
                      KCal/Mol        Cal/Mol-Kelvin    Cal/Mol-Kelvin
 Total                  141.405             46.234            119.681
 Electronic               0.000              0.000              0.000
 Translational            0.889              2.981             41.664
 Rotational               0.889              2.981             31.898
 Vibrational            139.628             40.273             46.119
 Vibration     1          0.593              1.987              7.598
 Vibration     2          0.593              1.985              6.146
 Vibration     3          0.594              1.982              5.516
 Vibration     4          0.597              1.972              4.372
 Vibration     5          0.602              1.955              3.608
 Vibration     6          0.610              1.931              3.068
 Vibration     7          0.636              1.846              2.176
 Vibration     8          0.653              1.794              1.871
 Vibration     9          0.666              1.754              1.693
 Vibration    10          0.691              1.679              1.433
 Vibration    11          0.713              1.616              1.261
 Vibration    12          0.739              1.544              1.099
 Vibration    13          0.780              1.434              0.903
 Vibration    14          0.816              1.343              0.772
 Vibration    15          0.977              0.996              0.421

                           ! Non-Optimized Parameters !
 Normal termination of Gaussian 16 at Thu Dec 10 11:01:53 2020.

 ----------------------------------------------------------------------
 # B3LYP/6-311++G(d,p) empiricaldispersion=gd3bj scf=xqc pop=npa geom=c
 heck
 ----------------------------------------------------------------------

 --------------------------------------
 CID_63810125_JID_4955_Energie_neutraal
 --------------------------------------
 Structure from the checkpoint file:  "JID_4955.chk"
 Charge =  0 Multiplicity = 1

 SCF Done:  E(RB3LYP) =  -644.572481844     A.U. after   15 cycles
 Normal termination of Gaussian 16 at Thu Dec 10 11:04:53 2020.

 ----------------------------------------------------------------------
 # B3LYP/6-311++G(d,p) empiricaldispersion=gd3bj scf=xqc pop=npa geom=c
 heck
 ----------------------------------------------------------------------

 ------------------------------------
 CID_63810125_JID_4955_Energie_kation
 ------------------------------------
 Structure from the checkpoint file:  "JID_4955.chk"
 Charge =  1 Multiplicity = 2

 SCF Done:  E(UB3LYP) =  -644.236017127     A.U. after   32 cycles
 Normal termination of Gaussian 16 at Thu Dec 10 11:14:04 2020.
 Gaussian 16:  ES64L-G16RevA.03 25-Dec-2016

 ----------------------------------------------------------------------
 # B3LYP/6-311++G(d,p) empiricaldispersion=gd3bj scf=xqc pop=npa geom=c
 heck
 ----------------------------------------------------------------------

 -----------------------------------
 CID_63810125_JID_4955_Energie_anion
 -----------------------------------
 Structure from the checkpoint file:  "JID_4955.chk"
 Charge = -1 Multiplicity = 2

                         Standard orientation:
 ---------------------------------------------------------------------
 Center     Atomic      Atomic             Coordinates (Angstroms)
 Number     Number       Type             X           Y           Z
 ---------------------------------------------------------------------
      1          6           0        3.264861    2.051940    0.229086
      2          6           0        3.713584    0.919472   -0.697204
      3          6           0        3.432186   -0.495738   -0.147082
      4          6           0        1.974143   -0.804407   -0.039355
      5          7           0        1.348968   -1.534334   -0.931558
      6          8           0        0.012292   -1.536897   -0.474787
      7          6           0       -0.005186   -0.796248    0.644067
      8          7           0        1.158235   -0.321661    0.972788
      9          6           0       -1.311926   -0.622463    1.356846
     10          7           0       -2.324553   -0.016046    0.517386
     11          6           0       -3.168403   -0.634671   -0.355066
     12          6           0       -3.845690    0.365770   -1.021621
     13          6           0       -3.323800    1.565732   -0.484675
     14          7           0       -2.395121    1.335711    0.441469
     15          1           0        2.186311    2.023763    0.408554
     16          1           0        3.514671    3.026528   -0.204273
     17          1           0        3.760567    1.979564    1.204516
     18          1           0        3.226950    1.016684   -1.675792
     19          1           0        4.793356    0.995535   -0.876551
     20          1           0        3.888353   -1.242949   -0.803678
     21          1           0        3.881473   -0.601207    0.847437
     22          1           0       -1.680662   -1.593155    1.704000
     23          1           0       -1.147805    0.027217    2.216378
     24          1           0       -3.211713   -1.711567   -0.428943
     25          1           0       -4.609481    0.247391   -1.775862
     26          1           0       -3.591675    2.585357   -0.728069
 ---------------------------------------------------------------------

 SCF Done:  E(UB3LYP) =  -644.565291712     A.U. after   32 cycles

 The electronic state is 2-A.
 Alpha  occ. eigenvalues --  -19.07624 -14.28244 -14.22503 -14.22170 -14.18832
 Alpha  occ. eigenvalues --  -10.13322 -10.11692 -10.10741 -10.09831 -10.08566
 Alpha  occ. eigenvalues --  -10.07262 -10.06864 -10.06181 -10.05383  -1.02829
 Alpha  occ. eigenvalues --   -0.94415  -0.80830  -0.76084  -0.72730  -0.68383
 Alpha  occ. eigenvalues --   -0.68033  -0.61109  -0.59673  -0.51181  -0.50199
 Alpha  occ. eigenvalues --   -0.49721  -0.47260  -0.44922  -0.42594  -0.39536
 Alpha  occ. eigenvalues --   -0.36452  -0.36418  -0.34601  -0.34040  -0.32987
 Alpha  occ. eigenvalues --   -0.31743  -0.31023  -0.30297  -0.29386  -0.28593
 Alpha  occ. eigenvalues --   -0.27887  -0.24834  -0.24145  -0.23310  -0.21229
 Alpha  occ. eigenvalues --   -0.19868  -0.19194  -0.17119  -0.16396  -0.15134
 Alpha  occ. eigenvalues --   -0.14632   0.04800
 Alpha virt. eigenvalues --    0.06501   0.07682   0.08417   0.09133   0.09393
 Alpha virt. eigenvalues --    0.09812   0.10621   0.11021   0.11080   0.11958
 Alpha virt. eigenvalues --    0.12441   0.13174   0.13902   0.14876   0.14981

  Beta  occ. eigenvalues --  -19.07398 -14.28195 -14.22221 -14.22130 -14.18843
  Beta  occ. eigenvalues --  -10.13027 -10.11691 -10.10710 -10.09791 -10.08569
  Beta  occ. eigenvalues --  -10.07264 -10.06844 -10.06163 -10.05372  -1.02439
  Beta  occ. eigenvalues --   -0.94342  -0.80638  -0.75770  -0.72537  -0.68307
  Beta  occ. eigenvalues --   -0.67937  -0.60960  -0.59570  -0.51080  -0.50005
  Beta  occ. eigenvalues --   -0.49547  -0.47123  -0.44774  -0.42433  -0.39234
  Beta  occ. eigenvalues --   -0.36357  -0.35827  -0.34538  -0.33943  -0.32704
  Beta  occ. eigenvalues --   -0.31550  -0.30935  -0.30194  -0.29292  -0.28460
  Beta  occ. eigenvalues --   -0.27753  -0.24722  -0.24107  -0.23261  -0.20930
  Beta  occ. eigenvalues --   -0.19217  -0.19112  -0.16940  -0.15307  -0.14818
  Beta  occ. eigenvalues --   -0.14322
  Beta virt. eigenvalues --    0.07143   0.07490   0.08709   0.09133   0.09515
  Beta virt. eigenvalues --    0.09748   0.10479   0.11103   0.11344   0.11600
  Beta virt. eigenvalues --    0.12210   0.12379   0.13210   0.14053   0.14900

 Mulliken charges and spin densities:
               1          2
     1  C   -0.222565  -0.381523
     2  C    0.113467  -0.136295
     3  C   -0.194222   0.155459
     4  C    0.754302  -0.262148
     5  N   -0.420713   0.129738
     6  O    0.168868   0.070795
     7  C   -0.789593   0.617549
     8  N   -0.012713   0.018133
     9  C    0.112132  -1.205530
    10  N    0.316171   0.002338
    11  C    0.121112  -0.445558
    12  C    0.052207   0.045154
    13  C    0.065075  -0.416985
    14  N   -0.332053   0.220795
    15  H    0.155849   0.025987
    16  H    0.012378   0.100395
    17  H    0.083074   0.035897
    18  H    0.161360  -0.044137
    19  H   -0.444931   0.608433
    20  H    0.093615   0.062832
    21  H    0.122036   0.031487
    22  H   -0.616824   0.862645
    23  H    0.168086   0.021072
    24  H   -0.427325   0.581397
    25  H   -0.138110   0.286061
    26  H    0.099318   0.016011
 Sum of Mulliken charges =  -1.00000   1.00000

 Dipole moment (field-independent basis, Debye):
    X=              0.1886    Y=              2.3388    Z=             -0.3915  Tot=              2.3789
 Quadrupole moment (field-independent basis, Debye-Ang):
   XX=           -146.8391   YY=           -113.8191   ZZ=           -105.3756
   XY=            -11.4023   XZ=              8.3636   YZ=             -0.7510

 Summary of Natural Population Analysis:

                                       Natural Population
                Natural  -----------------------------------------------
    Atom  No    Charge         Core      Valence    Rydberg      Total
 -----------------------------------------------------------------------
      C    1   -0.29011      0.99967     2.28428    0.00617     3.29011
      C    2   -0.18415      0.99964     2.17685    0.00766     3.18415
      C    3   -0.20953      0.99958     2.19944    0.01051     3.20953
      C    4    0.16885      0.99964     1.81201    0.01950     2.83115
      N    5   -0.06429      0.99966     2.55272    0.01191     3.56429
      O    6   -0.15565      0.99985     3.14765    0.00815     4.15565
      C    7    0.31905      0.99962     1.66230    0.01903     2.68095
      N    8   -0.28123      0.99967     2.77370    0.00786     3.78123
      C    9   -0.10999      0.99956     2.09766    0.01278     3.10999
      N   10   -0.10252      0.99966     2.58789    0.01497     3.60252
      C   11    0.00483      0.99955     1.98401    0.01161     2.99517
      C   12   -0.16898      0.99957     2.15991    0.00950     3.16898
      C   13   -0.02065      0.99964     2.00694    0.01406     3.02065
      N   14   -0.14702      0.99973     2.63603    0.01126     3.64702
      H   15    0.10917      0.00000     0.38986    0.00097     0.39083
      H   16    0.09373      0.00000     0.40554    0.00073     0.40627
      H   17    0.09424      0.00000     0.40498    0.00079     0.40576
      H   18    0.09537      0.00000     0.40363    0.00101     0.40463
      H   19    0.09336      0.00000     0.40454    0.00211     0.40664
      H   20    0.10796      0.00000     0.39100    0.00104     0.39204
      H   21    0.10304      0.00000     0.39600    0.00095     0.39696
      H   22    0.11773      0.00000     0.37658    0.00569     0.38227
      H   23    0.11818      0.00000     0.38057    0.00125     0.38182
      H   24    0.10932      0.00000     0.38870    0.00198     0.39068
      H   25    0.10547      0.00000     0.39382    0.00071     0.39453
      H   26    0.09381      0.00000     0.40545    0.00075     0.40619
 =======================================================================
   * Total *    0.00000     13.99504    36.82204    0.18292    51.00000

 Normal termination of Gaussian 16 at Thu Dec 10 11:20:37 2020.
