 Gaussian 16, Revision A.03,

 -----------------------------------------------------------
 # opt freq B3LYP/6-31G(d) empiricaldispersion=gd3bj scf=xqc
 -----------------------------------------------------------

 ------------------------------
 CID_12727642_JID_4380_neutraal
 ------------------------------
 Symbolic Z-matrix:
 Charge =  0 Multiplicity = 1

 SCF Done:  E(RB3LYP) =  -975.093008174     A.U. after   15 cycles
 SCF Done:  E(RB3LYP) =  -975.099792100     A.U. after   15 cycles
 SCF Done:  E(RB3LYP) =  -975.099794171     A.U. after   14 cycles
 SCF Done:  E(RB3LYP) =  -975.098876947     A.U. after   14 cycles
 SCF Done:  E(RB3LYP) =  -975.100512471     A.U. after   12 cycles
 SCF Done:  E(RB3LYP) =  -975.100564215     A.U. after   12 cycles
 SCF Done:  E(RB3LYP) =  -975.100621543     A.U. after   12 cycles
 SCF Done:  E(RB3LYP) =  -975.100645302     A.U. after   11 cycles
 SCF Done:  E(RB3LYP) =  -975.100646848     A.U. after    9 cycles
 SCF Done:  E(RB3LYP) =  -975.100648907     A.U. after    9 cycles
 SCF Done:  E(RB3LYP) =  -975.100649060     A.U. after    7 cycles
 Optimization completed.
    -- Stationary point found.
 Normal termination of Gaussian 16 at Thu Dec 10 09:24:03 2020.

 --------------------------------------------------------------------
 #N Geom=AllCheck Guess=TCheck SCRF=Check GenChk RB3LYP/6-31G(d) Freq
 --------------------------------------------------------------------

 Structure from the checkpoint file:  "JID_4380.chk"
 ------------------------------
 CID_12727642_JID_4380_neutraal
 ------------------------------
 Charge =  0 Multiplicity = 1

 SCF Done:  E(RB3LYP) =  -975.100649060     A.U. after    1 cycles

  Exact polarizability: 141.647  13.017 132.270  17.528  -2.776 104.637
 Approx polarizability: 208.865  21.392 225.220  41.516  -6.436 170.378

                      1                      2                      3
                      A                      A                      A
 Frequencies --     39.7675                60.3695                91.5684
 Red. masses --      5.0503                 5.0812                 4.9212
 Frc consts  --      0.0047                 0.0109                 0.0243
 IR Inten    --      1.5125                 0.5209                 3.5606

                      4                      5                      6
                      A                      A                      A
 Frequencies --    122.7488               145.2613               199.4923
 Red. masses --      7.6917                 2.5474                 3.7420
 Frc consts  --      0.0683                 0.0317                 0.0877
 IR Inten    --      0.3552                 3.4178                 1.6374

                      7                      8                      9
                      A                      A                      A
 Frequencies --    237.1491               244.8546               284.0449
 Red. masses --      1.5541                 2.2897                 4.5443
 Frc consts  --      0.0515                 0.0809                 0.2160
 IR Inten    --      0.5510                 0.4666                 0.7478

                     10                     11                     12
                      A                      A                      A
 Frequencies --    305.4448               380.7396               416.7161
 Red. masses --      3.3311                 8.1639                 6.3175
 Frc consts  --      0.1831                 0.6973                 0.6464
 IR Inten    --      2.0006                 0.2994                 1.4220

                     13                     14                     15
                      A                      A                      A
 Frequencies --    426.4801               465.1440               499.7628
 Red. masses --      3.5253                 3.2305                 3.5543
 Frc consts  --      0.3778                 0.4118                 0.5230
 IR Inten    --      0.3877                 3.6323                 6.7941

                     16                     17                     18
                      A                      A                      A
 Frequencies --    513.5902               543.8581               600.3889
 Red. masses --      4.6557                 3.1067                 4.2559
 Frc consts  --      0.7235                 0.5414                 0.9039
 IR Inten    --      0.7231                 3.8501                 0.2815

                     19                     20                     21
                      A                      A                      A
 Frequencies --    632.2714               686.4875               711.0091
 Red. masses --      6.4187                 5.8188                 2.7598
 Frc consts  --      1.5118                 1.6156                 0.8220
 IR Inten    --      0.0584                35.2091                14.3509

                     22                     23                     24
                      A                      A                      A
 Frequencies --    712.5612               743.0202               771.2358
 Red. masses --      6.0564                 2.5328                 1.9120
 Frc consts  --      1.8118                 0.8238                 0.6701
 IR Inten    --      1.1138                63.1528                 6.6235

                     25                     26                     27
                      A                      A                      A
 Frequencies --    846.1845               865.3938               885.8840
 Red. masses --      3.9430                 1.2399                 2.8666
 Frc consts  --      1.6634                 0.5471                 1.3255
 IR Inten    --     16.5507                 0.4432                 6.8449

                     28                     29                     30
                      A                      A                      A
 Frequencies --    934.3441               939.9835               970.1414
 Red. masses --      1.6517                 1.3457                 1.8112
 Frc consts  --      0.8495                 0.7005                 1.0044
 IR Inten    --      9.6737                 2.3869                14.5030

                     31                     32                     33
                      A                      A                      A
 Frequencies --    984.3263              1004.9276              1020.9788
 Red. masses --      1.3498                 1.2811                 6.0514
 Frc consts  --      0.7706                 0.7623                 3.7166
 IR Inten    --      0.5783                 1.1195                 7.0109

                     34                     35                     36
                      A                      A                      A
 Frequencies --   1035.5523              1054.3989              1074.7091
 Red. masses --      5.9032                 2.9413                 1.9103
 Frc consts  --      3.7297                 1.9266                 1.2999
 IR Inten    --    139.1138                 4.9804                11.5183

                     37                     38                     39
                      A                      A                      A
 Frequencies --   1108.4089              1115.1256              1139.4855
 Red. masses --      1.6095                 2.7492                 2.3702
 Frc consts  --      1.1651                 2.0142                 1.8133
 IR Inten    --      3.6072                 0.7821                18.8896

                     40                     41                     42
                      A                      A                      A
 Frequencies --   1165.3461              1171.4755              1195.2799
 Red. masses --      2.8100                 1.5205                 1.0971
 Frc consts  --      2.2484                 1.2295                 0.9235
 IR Inten    --    105.4764                17.5643                 0.0070

                     43                     44                     45
                      A                      A                      A
 Frequencies --   1200.8385              1214.5870              1295.6374
 Red. masses --      1.7154                 1.1413                 1.4198
 Frc consts  --      1.4574                 0.9920                 1.4042
 IR Inten    --      2.5465                 0.6518                15.1265

                     46                     47                     48
                      A                      A                      A
 Frequencies --   1313.2785              1332.0231              1346.4761
 Red. masses --      1.3689                 2.4751                 1.4057
 Frc consts  --      1.3910                 2.5874                 1.5015
 IR Inten    --      7.1651                 0.8510                29.2391

                     49                     50                     51
                      A                      A                      A
 Frequencies --   1360.2876              1369.6695              1401.9046
 Red. masses --      1.9578                 1.2962                 1.5325
 Frc consts  --      2.1344                 1.4327                 1.7746
 IR Inten    --      1.5352                24.2365                 2.1047

                     52                     53                     54
                      A                      A                      A
 Frequencies --   1445.7451              1487.5287              1497.1311
 Red. masses --      1.2629                 2.1381                 1.0958
 Frc consts  --      1.5552                 2.7875                 1.4471
 IR Inten    --      5.3200                 7.1971                 8.6973

                     55                     56                     57
                      A                      A                      A
 Frequencies --   1521.9019              1527.2905              1529.2119
 Red. masses --      1.0765                 1.4123                 1.3155
 Frc consts  --      1.4691                 1.9410                 1.8125
 IR Inten    --      7.2567                 2.0404                10.3282

                     58                     59                     60
                      A                      A                      A
 Frequencies --   1634.7961              1646.0370              1895.9373
 Red. masses --      5.4113                 5.4201                12.8279
 Frc consts  --      8.5208                 8.6525                27.1677
 IR Inten    --      1.4129                 2.1939               322.6696

                     61                     62                     63
                      A                      A                      A
 Frequencies --   3028.2949              3063.3598              3086.2556
 Red. masses --      1.0842                 1.0380                 1.0636
 Frc consts  --      5.8582                 5.7393                 5.9687
 IR Inten    --     20.7716                25.0662                 3.6314

                     64                     65                     66
                      A                      A                      A
 Frequencies --   3112.9755              3123.5348              3142.0545
 Red. masses --      1.0881                 1.1025                 1.1012
 Frc consts  --      6.2125                 6.3376                 6.4052
 IR Inten    --     15.8171                20.3838                 6.4819

                     67                     68                     69
                      A                      A                      A
 Frequencies --   3157.1278              3189.1903              3200.3160
 Red. masses --      1.0992                 1.0856                 1.0890
 Frc consts  --      6.4550                 6.5053                 6.5716
 IR Inten    --     20.3375                 0.9370                 8.6590

                     70                     71                     72
                      A                      A                      A
 Frequencies --   3210.0454              3216.3783              3235.8862
 Red. masses --      1.0927                 1.0966                 1.0938
 Frc consts  --      6.6340                 6.6839                 6.7478
 IR Inten    --     18.5639                14.6468                 1.2751

 - Thermochemistry -
 -------------------
 Temperature   298.150 Kelvin.  Pressure   1.00000 Atm.
 Atom     1 has atomic number  6 and mass  12.00000

 Molecular mass:   208.05580 amu.
 Principal axes and moments of inertia in atomic units:
                           1         2         3
     Eigenvalues --  2104.659313137.016323787.88933
           X            0.99865   0.05091  -0.01011
           Y           -0.05147   0.99646  -0.06641
           Z            0.00669   0.06684   0.99774
 This molecule is an asymmetric top.
 Rotational symmetry number  1.
 Warning -- assumption of classical behavior for rotation
           may cause significant error
 Rotational temperatures (Kelvin)      0.04115     0.02761     0.02287
 Rotational constants (GHZ):           0.85750     0.57531     0.47645
 Zero-point vibrational energy     551069.4 (Joules/Mol)
                                  131.70875 (Kcal/Mol)
 Warning -- explicit consideration of  18 degrees of freedom as
           vibrations may cause significant error
 Vibrational temperatures:     57.22    86.86   131.75   176.61   209.00
          (Kelvin)            287.02   341.20   352.29   408.68   439.47
                              547.80   599.56   613.61   669.24   719.05
                              738.94   782.49   863.83   909.70   987.70
                             1022.98  1025.22  1069.04  1109.64  1217.47
                             1245.11  1274.59  1344.31  1352.43  1395.82
                             1416.23  1445.87  1468.96  1489.93  1517.04
                             1546.27  1594.75  1604.42  1639.47  1676.67
                             1685.49  1719.74  1727.74  1747.52  1864.13
                             1889.51  1916.48  1937.28  1957.15  1970.65
                             2017.03  2080.10  2140.22  2154.04  2189.68
                             2197.43  2200.19  2352.11  2368.28  2727.83
                             4357.04  4407.49  4440.43  4478.88  4494.07
                             4520.72  4542.40  4588.53  4604.54  4618.54
                             4627.65  4655.72

 Zero-point correction=                           0.209891 (Hartree/Particle)
 Thermal correction to Energy=                    0.222289
 Thermal correction to Enthalpy=                  0.223233
 Thermal correction to Gibbs Free Energy=         0.170559
 Sum of electronic and zero-point Energies=           -974.890758
 Sum of electronic and thermal Energies=              -974.878360
 Sum of electronic and thermal Enthalpies=            -974.877416
 Sum of electronic and thermal Free Energies=         -974.930090

                     E (Thermal)             CV                S
                      KCal/Mol        Cal/Mol-Kelvin    Cal/Mol-Kelvin
 Total                  139.488             48.041            110.861
 Electronic               0.000              0.000              0.000
 Translational            0.889              2.981             41.902
 Rotational               0.889              2.981             31.592
 Vibrational            137.711             42.079             37.367
 Vibration     1          0.594              1.981              5.271
 Vibration     2          0.597              1.973              4.445
 Vibration     3          0.602              1.955              3.626
 Vibration     4          0.610              1.930              3.057
 Vibration     5          0.617              1.908              2.733
 Vibration     6          0.638              1.841              2.138
 Vibration     7          0.656              1.784              1.824
 Vibration     8          0.660              1.771              1.767
 Vibration     9          0.682              1.703              1.509
 Vibration    10          0.696              1.663              1.387
 Vibration    11          0.750              1.511              1.036
 Vibration    12          0.780              1.434              0.903
 Vibration    13          0.788              1.413              0.870
 Vibration    14          0.823              1.327              0.751
 Vibration    15          0.855              1.251              0.659
 Vibration    16          0.869              1.220              0.625
 Vibration    17          0.899              1.153              0.557
 Vibration    18          0.959              1.031              0.449

 Optimization completed.
    -- Stationary point found.
 Normal termination of Gaussian 16 at Thu Dec 10 09:32:45 2020.

 ----------------------------------------------------------------------
 # B3LYP/6-311++G(d,p) empiricaldispersion=gd3bj scf=xqc pop=npa geom=c
 heck
 ----------------------------------------------------------------------

 --------------------------------------
 CID_12727642_JID_4380_Energie_neutraal
 --------------------------------------
 Structure from the checkpoint file:  "JID_4380.chk"
 Charge =  0 Multiplicity = 1

 SCF Done:  E(RB3LYP) =  -975.285778412     A.U. after   15 cycles
 Normal termination of Gaussian 16 at Thu Dec 10 09:36:37 2020.

 ----------------------------------------------------------------------
 # B3LYP/6-311++G(d,p) empiricaldispersion=gd3bj scf=xqc pop=npa geom=c
 heck
 ----------------------------------------------------------------------

 ------------------------------------
 CID_12727642_JID_4380_Energie_kation
 ------------------------------------
 Structure from the checkpoint file:  "JID_4380.chk"
 Charge =  1 Multiplicity = 2

 SCF Done:  E(UB3LYP) =  -974.970734570     A.U. after   26 cycles
 Normal termination of Gaussian 16 at Thu Dec 10 09:46:15 2020.
 Gaussian 16:  ES64L-G16RevA.03 25-Dec-2016

 ----------------------------------------------------------------------
 # B3LYP/6-311++G(d,p) empiricaldispersion=gd3bj scf=xqc pop=npa geom=c
 heck
 ----------------------------------------------------------------------

 -----------------------------------
 CID_12727642_JID_4380_Energie_anion
 -----------------------------------
 Structure from the checkpoint file:  "JID_4380.chk"
 Charge = -1 Multiplicity = 2

                         Standard orientation:
 ---------------------------------------------------------------------
 Center     Atomic      Atomic             Coordinates (Angstroms)
 Number     Number       Type             X           Y           Z
 ---------------------------------------------------------------------
      1          6           0       -1.719029   -1.876199    1.448818
      2          6           0       -2.039435   -0.522009    0.830969
      3          6           0       -1.269173    0.677181    1.391293
      4          6           0       -1.294740    1.678694    0.249892
      5          8           0       -1.061718    2.856355    0.263317
      6          8           0       -1.654915    1.028987   -0.909543
      7          6           0       -1.798137   -0.378210   -0.693944
      8         16           0       -0.406564   -1.322157   -1.460192
      9          6           0        1.022163   -0.608167   -0.648189
     10          6           0        1.418923    0.703762   -0.940303
     11          6           0        2.513041    1.261166   -0.279101
     12          6           0        3.237707    0.505110    0.643742
     13          6           0        2.868779   -0.816020    0.904255
     14          6           0        1.760861   -1.371761    0.264813
     15          1           0       -2.240978   -2.683797    0.925074
     16          1           0       -2.032589   -1.893672    2.498211
     17          1           0       -0.647986   -2.086317    1.408610
     18          1           0       -3.111300   -0.321461    0.967772
     19          1           0       -1.708604    1.118357    2.288698
     20          1           0       -0.224718    0.429959    1.611336
     21          1           0       -2.658369   -0.716190   -1.276431
     22          1           0        0.861658    1.284000   -1.666324
     23          1           0        2.800779    2.286374   -0.491712
     24          1           0        4.092396    0.941251    1.152620
     25          1           0        3.438177   -1.412757    1.611192
     26          1           0        1.463865   -2.395251    0.470365
 ---------------------------------------------------------------------

 SCF Done:  E(UB3LYP) =  -975.277537364     A.U. after   33 cycles
 SCF Done:  E(UB3LYP) =  -975.277537364     a.u. after    1 cycles

 The electronic state is 2-A.
 Alpha  occ. eigenvalues --  -88.73246 -19.06104 -19.00751 -10.19590 -10.14853
 Alpha  occ. eigenvalues --  -10.08513 -10.08261 -10.07899 -10.06809 -10.06660
 Alpha  occ. eigenvalues --  -10.06542 -10.06181 -10.05939 -10.05882  -7.81831
 Alpha  occ. eigenvalues --   -5.78219  -5.77857  -5.77220  -1.00092  -0.92652
 Alpha  occ. eigenvalues --   -0.75257  -0.71672  -0.67705  -0.64002  -0.63549
 Alpha  occ. eigenvalues --   -0.60450  -0.55968  -0.49962  -0.49587  -0.48003
 Alpha  occ. eigenvalues --   -0.44228  -0.41221  -0.40340  -0.38873  -0.35717
 Alpha  occ. eigenvalues --   -0.34772  -0.34413  -0.33405  -0.31985  -0.31516
 Alpha  occ. eigenvalues --   -0.31011  -0.29404  -0.28172  -0.27485  -0.26943
 Alpha  occ. eigenvalues --   -0.25839  -0.24368  -0.23956  -0.22958  -0.21617
 Alpha  occ. eigenvalues --   -0.19551  -0.17235  -0.15214  -0.14993  -0.12308
 Alpha  occ. eigenvalues --    0.04707
 Alpha virt. eigenvalues --    0.06714   0.07303   0.08484   0.08687   0.08839
 Alpha virt. eigenvalues --    0.09675   0.10074   0.10653   0.10913   0.11498
 Alpha virt. eigenvalues --    0.12291   0.12798   0.13310   0.14274   0.14952

  Beta  occ. eigenvalues --  -88.73249 -19.06107 -19.00752 -10.19577 -10.14764
  Beta  occ. eigenvalues --  -10.08488 -10.08086 -10.07891 -10.06814 -10.06606
  Beta  occ. eigenvalues --  -10.06548 -10.06120 -10.05918 -10.05663  -7.81834
  Beta  occ. eigenvalues --   -5.78222  -5.77867  -5.77219  -1.00083  -0.92649
  Beta  occ. eigenvalues --   -0.75018  -0.71600  -0.67486  -0.63829  -0.63353
  Beta  occ. eigenvalues --   -0.60355  -0.55821  -0.49898  -0.49503  -0.47741
  Beta  occ. eigenvalues --   -0.44146  -0.41115  -0.40249  -0.38747  -0.35670
  Beta  occ. eigenvalues --   -0.34653  -0.34291  -0.33361  -0.31919  -0.31475
  Beta  occ. eigenvalues --   -0.30919  -0.29343  -0.28122  -0.27324  -0.26475
  Beta  occ. eigenvalues --   -0.25770  -0.24299  -0.23867  -0.22857  -0.21492
  Beta  occ. eigenvalues --   -0.19316  -0.17223  -0.14722  -0.14371  -0.12001
  Beta virt. eigenvalues --    0.07087   0.07860   0.08391   0.08790   0.08836
  Beta virt. eigenvalues --    0.09592   0.09999   0.10248   0.10813   0.11519
  Beta virt. eigenvalues --    0.11642   0.12321   0.13121   0.13279   0.14306

 Mulliken charges and spin densities:
               1          2
     1  C    0.444012  -1.111462
     2  C    0.169121   0.168596
     3  C   -0.237495  -0.183078
     4  C    0.017039  -0.082057
     5  O   -0.279499   0.004016
     6  O    0.000526   0.000847
     7  C    0.434603  -0.802052
     8  S    0.110460  -0.359096
     9  C    0.918351   0.065918
    10  C   -0.481362   0.134551
    11  C   -0.428603   0.036607
    12  C   -0.126105   0.011942
    13  C   -0.482144   0.117015
    14  C   -0.265479   0.047618
    15  H   -0.161922   0.304518
    16  H   -0.363298   0.496992
    17  H    0.237504  -0.098382
    18  H   -0.445643   0.665044
    19  H   -0.111175   0.340337
    20  H    0.242261  -0.039888
    21  H   -0.702929   1.024010
    22  H    0.176920   0.048809
    23  H    0.124600   0.025308
    24  H    0.096590   0.013947
    25  H    0.023939   0.117154
    26  H    0.089730   0.052786
 Sum of Mulliken charges =  -1.00000   1.00000

 Dipole moment (field-independent basis, Debye):
    X=              5.8348    Y=             -0.0691    Z=              0.5677  Tot=              5.8628
 Quadrupole moment (field-independent basis, Debye-Ang):
   XX=           -143.5806   YY=           -125.1947   ZZ=           -120.3785
   XY=             -3.5877   XZ=              3.7641   YZ=             -1.7613

 Summary of Natural Population Analysis:

                                       Natural Population
                Natural  -----------------------------------------------
    Atom  No    Charge         Core      Valence    Rydberg      Total
 -----------------------------------------------------------------------
      C    1   -0.28470      0.99963     2.27787    0.00720     3.28470
      C    2   -0.12795      0.99957     2.11436    0.01402     3.12795
      C    3   -0.24601      0.99956     2.23799    0.00846     3.24601
      C    4    0.41338      0.99969     1.55874    0.02820     2.58662
      O    5   -0.29318      0.99986     3.28741    0.00591     4.29318
      O    6   -0.28102      0.99986     3.27237    0.00879     4.28102
      C    7    0.01276      0.99953     1.96622    0.02149     2.98724
      S    8    0.10427      4.99953     2.87796    0.01825     7.89573
      C    9   -0.07656      0.99939     2.06348    0.01368     3.07656
      C   10   -0.09413      0.99949     2.08455    0.01008     3.09413
      C   11   -0.10461      0.99956     2.09537    0.00968     3.10461
      C   12   -0.06708      0.99957     2.05737    0.01013     3.06708
      C   13   -0.11033      0.99956     2.10094    0.00982     3.11033
      C   14   -0.09736      0.99949     2.08781    0.01007     3.09736
      H   15    0.10438      0.00000     0.39437    0.00125     0.39562
      H   16    0.10034      0.00000     0.39854    0.00112     0.39966
      H   17    0.10246      0.00000     0.39615    0.00139     0.39754
      H   18    0.10551      0.00000     0.39014    0.00436     0.39449
      H   19    0.11533      0.00000     0.38353    0.00113     0.38467
      H   20    0.12089      0.00000     0.37695    0.00216     0.37911
      H   21    0.10587      0.00000     0.39053    0.00360     0.39413
      H   22    0.10889      0.00000     0.38971    0.00140     0.39111
      H   23    0.09832      0.00000     0.40083    0.00084     0.40168
      H   24    0.09332      0.00000     0.40590    0.00078     0.40668
      H   25    0.09619      0.00000     0.40294    0.00088     0.40381
      H   26    0.10101      0.00000     0.39793    0.00106     0.39899
 =======================================================================
   * Total *   -0.00000     17.99430    36.80996    0.19574    55.00000

 Normal termination of Gaussian 16 at Thu Dec 10 09:58:33 2020.
