 Gaussian 16, Revision A.03,

 -----------------------------------------------------------
 # opt freq B3LYP/6-31G(d) empiricaldispersion=gd3bj scf=xqc
 -----------------------------------------------------------

 ------------------------------
 CID_12219500_JID_6583_neutraal
 ------------------------------
 Symbolic Z-matrix:
 Charge =  0 Multiplicity = 1

 SCF Done:  E(RB3LYP) =  -1063.48378469     A.U. after   17 cycles
 SCF Done:  E(RB3LYP) =  -1063.51302038     A.U. after   14 cycles
 SCF Done:  E(RB3LYP) =  -1063.51060004     A.U. after   15 cycles
 SCF Done:  E(RB3LYP) =  -1063.51520069     A.U. after   14 cycles
 SCF Done:  E(RB3LYP) =  -1063.51629661     A.U. after   16 cycles
 SCF Done:  E(RB3LYP) =  -1063.51828614     A.U. after   14 cycles
 SCF Done:  E(RB3LYP) =  -1063.51872363     A.U. after   13 cycles
 SCF Done:  E(RB3LYP) =  -1063.51908883     A.U. after   12 cycles
 SCF Done:  E(RB3LYP) =  -1063.51926376     A.U. after   12 cycles
 SCF Done:  E(RB3LYP) =  -1063.51934692     A.U. after   13 cycles
 SCF Done:  E(RB3LYP) =  -1063.51939778     A.U. after    9 cycles
 SCF Done:  E(RB3LYP) =  -1063.51939808     A.U. after    9 cycles
 SCF Done:  E(RB3LYP) =  -1063.51939844     A.U. after    8 cycles
 SCF Done:  E(RB3LYP) =  -1063.51939868     A.U. after    9 cycles
 SCF Done:  E(RB3LYP) =  -1063.51939875     A.U. after    8 cycles
 Optimization completed.
    -- Stationary point found.
 Normal termination of Gaussian 16 at Thu Dec 10 23:52:39 2020.

 --------------------------------------------------------------------
 #N Geom=AllCheck Guess=TCheck SCRF=Check GenChk RB3LYP/6-31G(d) Freq
 --------------------------------------------------------------------

 Structure from the checkpoint file:  "JID_6583.chk"
 ------------------------------
 CID_12219500_JID_6583_neutraal
 ------------------------------
 Charge =  0 Multiplicity = 1

 SCF Done:  E(RB3LYP) =  -1063.51939875     A.U. after    1 cycles

  Exact polarizability: 217.803  19.356 133.121  19.026 -12.119 101.346
 Approx polarizability: 335.920  37.654 219.996  45.636 -24.324 166.546

                      1                      2                      3
                      A                      A                      A
 Frequencies --     30.7362                43.2806                46.0060
 Red. masses --      4.8313                 1.5337                 2.0699
 Frc consts  --      0.0027                 0.0017                 0.0026
 IR Inten    --      1.4776                 1.4567                 0.7233

                      4                      5                      6
                      A                      A                      A
 Frequencies --     55.1859                75.4714                86.3837
 Red. masses --      6.5220                 7.6991                 4.9992
 Frc consts  --      0.0117                 0.0258                 0.0220
 IR Inten    --      1.3845                 4.1890                 0.7652

                      7                      8                      9
                      A                      A                      A
 Frequencies --    138.0847               149.4447               169.8036
 Red. masses --      9.8817                 5.9190                 7.6528
 Frc consts  --      0.1110                 0.0779                 0.1300
 IR Inten    --      2.1890                 0.2996                 4.6860

                     10                     11                     12
                      A                      A                      A
 Frequencies --    206.0500               254.2157               314.2679
 Red. masses --      5.4178                 9.1069                 3.3140
 Frc consts  --      0.1355                 0.3468                 0.1928
 IR Inten    --      8.0390                 1.0909                 0.5382

                     13                     14                     15
                      A                      A                      A
 Frequencies --    333.2896               361.7440               392.5201
 Red. masses --      5.2502                 6.9645                 4.6792
 Frc consts  --      0.3436                 0.5370                 0.4248
 IR Inten    --      1.6054                 5.5369                11.7928

                     16                     17                     18
                      A                      A                      A
 Frequencies --    405.7157               419.1969               428.8573
 Red. masses --      1.2416                 3.4170                 3.2242
 Frc consts  --      0.1204                 0.3538                 0.3494
 IR Inten    --    211.7069                17.0032                 1.4535

                     19                     20                     21
                      A                      A                      A
 Frequencies --    448.2726               481.8590               512.7052
 Red. masses --      5.0615                 5.2017                 2.8494
 Frc consts  --      0.5993                 0.7116                 0.4413
 IR Inten    --      1.0735                 1.2340                23.3035

                     22                     23                     24
                      A                      A                      A
 Frequencies --    546.6967               569.9834               581.4214
 Red. masses --      3.1386                 3.4147                 3.5765
 Frc consts  --      0.5527                 0.6536                 0.7123
 IR Inten    --      4.5272                 6.6911                10.1634

                     25                     26                     27
                      A                      A                      A
 Frequencies --    650.3889               655.7661               678.4801
 Red. masses --      2.2567                 3.2187                 2.3832
 Frc consts  --      0.5624                 0.8155                 0.6464
 IR Inten    --     48.2411                 3.9783                10.9619

                     28                     29                     30
                      A                      A                      A
 Frequencies --    682.5494               721.7944               776.1727
 Red. masses --      1.9700                 3.6456                 3.3191
 Frc consts  --      0.5407                 1.1190                 1.1781
 IR Inten    --     20.7627                 2.1536                 7.7369

                     31                     32                     33
                      A                      A                      A
 Frequencies --    829.6930               849.9191               872.1942
 Red. masses --      1.6901                 1.3129                 4.8960
 Frc consts  --      0.6855                 0.5588                 2.1944
 IR Inten    --     25.4485                 2.3195                 5.8490

                     34                     35                     36
                      A                      A                      A
 Frequencies --    878.9166               928.0131               961.9807
 Red. masses --      4.8157                 4.6354                 1.3248
 Frc consts  --      2.1918                 2.3520                 0.7223
 IR Inten    --      7.1419                 1.4325                 0.1302

                     37                     38                     39
                      A                      A                      A
 Frequencies --    972.5877              1022.8020              1029.1734
 Red. masses --      1.3148                 1.5475                 3.8247
 Frc consts  --      0.7328                 0.9538                 2.3869
 IR Inten    --      2.5369                 5.5487                41.1246

                     40                     41                     42
                      A                      A                      A
 Frequencies --   1044.2625              1075.9968              1106.4577
 Red. masses --      2.7356                 1.5372                 2.9378
 Frc consts  --      1.7576                 1.0486                 2.1190
 IR Inten    --      5.3602                12.4691                86.5275

                     43                     44                     45
                      A                      A                      A
 Frequencies --   1142.2314              1152.1352              1212.9653
 Red. masses --      1.8603                 1.2879                 1.1825
 Frc consts  --      1.4301                 1.0073                 1.0251
 IR Inten    --     29.5417                 7.1459                 5.8828

                     46                     47                     48
                      A                      A                      A
 Frequencies --   1238.3751              1245.7390              1261.3212
 Red. masses --      1.7918                 2.9052                 2.1353
 Frc consts  --      1.6190                 2.6563                 2.0015
 IR Inten    --     31.3120                 8.8696                 6.3855

                     49                     50                     51
                      A                      A                      A
 Frequencies --   1314.0474              1344.7793              1353.3880
 Red. masses --      1.7979                 1.6943                 2.8222
 Frc consts  --      1.8291                 1.8052                 3.0456
 IR Inten    --     77.5200                16.7698                10.5729

                     52                     53                     54
                      A                      A                      A
 Frequencies --   1362.8861              1412.8305              1442.9881
 Red. masses --      2.6581                 2.0721                 1.2434
 Frc consts  --      2.9090                 2.4369                 1.5254
 IR Inten    --     39.7564               102.4203                 0.2944

                     55                     56                     57
                      A                      A                      A
 Frequencies --   1460.3216              1517.2274              1521.4043
 Red. masses --      2.6621                 1.0535                 1.1175
 Frc consts  --      3.3448                 1.4288                 1.5240
 IR Inten    --     15.0091                 8.0036                19.5847

                     58                     59                     60
                      A                      A                      A
 Frequencies --   1553.8751              1566.7978              1640.7629
 Red. masses --      2.2634                 2.7746                 4.0539
 Frc consts  --      3.2199                 4.0131                 6.4301
 IR Inten    --    138.7171               256.0520                38.7579

                     61                     62                     63
                      A                      A                      A
 Frequencies --   1644.4846              1673.4620              1831.9409
 Red. masses --      1.3674                 5.8245                10.3077
 Frc consts  --      2.1788                 9.6104                20.3814
 IR Inten    --    105.9999                 5.9979               264.4075

                     64                     65                     66
                      A                      A                      A
 Frequencies --   2380.9547              3048.5682              3082.5836
 Red. masses --     12.6722                 1.0389                 1.0817
 Frc consts  --     42.3258                 5.6885                 6.0561
 IR Inten    --      2.9443                23.5280                 2.0685

                     67                     68                     69
                      A                      A                      A
 Frequencies --   3106.6605              3131.6093              3191.0621
 Red. masses --      1.0977                 1.1029                 1.0883
 Frc consts  --      6.2418                 6.3726                 6.5291
 IR Inten    --     18.0877                14.5812                11.5738

                     70                     71                     72
                      A                      A                      A
 Frequencies --   3197.6723              3211.0864              3231.0810
 Red. masses --      1.0896                 1.0947                 1.0932
 Frc consts  --      6.5643                 6.6506                 6.7242
 IR Inten    --     11.7163                 7.8918                 2.3924

                     73                     74                     75
                      A                      A                      A
 Frequencies --   3541.5282              3548.8216              3685.0160
 Red. masses --      1.0499                 1.0749                 1.1020
 Frc consts  --      7.7586                 7.9758                 8.8165
 IR Inten    --     45.1847                37.6682                92.2069

 - Thermochemistry -
 -------------------
 Temperature   298.150 Kelvin.  Pressure   1.00000 Atm.
 Atom     1 has atomic number  6 and mass  12.00000

 Molecular mass:   233.06228 amu.
 Principal axes and moments of inertia in atomic units:
                           1         2         3
     Eigenvalues --  2217.464885411.466666133.09847
           X            0.99998  -0.00597   0.00143
           Y            0.00603   0.99882  -0.04813
           Z           -0.00114   0.04814   0.99884
 This molecule is an asymmetric top.
 Rotational symmetry number  1.
 Warning -- assumption of classical behavior for rotation
           may cause significant error
 Rotational temperatures (Kelvin)      0.03906     0.01601     0.01412
 Rotational constants (GHZ):           0.81388     0.33350     0.29426
 Zero-point vibrational energy     544533.8 (Joules/Mol)
                                  130.14671 (Kcal/Mol)
 Warning -- explicit consideration of  24 degrees of freedom as
           vibrations may cause significant error
 Vibrational temperatures:     44.22    62.27    66.19    79.40   108.59
          (Kelvin)            124.29   198.67   215.02   244.31   296.46
                              365.76   452.16   479.53   520.47   564.75
                              583.73   603.13   617.03   644.96   693.29
                              737.67   786.57   820.08   836.54   935.76
                              943.50   976.18   982.04  1038.50  1116.74
                             1193.74  1222.84  1254.89  1264.56  1335.20
                             1384.08  1399.34  1471.58  1480.75  1502.46
                             1548.12  1591.95  1643.42  1657.67  1745.19
                             1781.75  1792.34  1814.76  1890.62  1934.84
                             1947.22  1960.89  2032.75  2076.14  2101.08
                             2182.95  2188.96  2235.68  2254.27  2360.69
                             2366.05  2407.74  2635.75  3425.66  4386.21
                             4435.15  4469.79  4505.69  4591.23  4600.74
                             4620.04  4648.80  5095.47  5105.96  5301.92

 Zero-point correction=                           0.207402 (Hartree/Particle)
 Thermal correction to Energy=                    0.223117
 Thermal correction to Enthalpy=                  0.224061
 Thermal correction to Gibbs Free Energy=         0.162462
 Sum of electronic and zero-point Energies=          -1063.311997
 Sum of electronic and thermal Energies=             -1063.296282
 Sum of electronic and thermal Enthalpies=           -1063.295337
 Sum of electronic and thermal Free Energies=        -1063.356937

                     E (Thermal)             CV                S
                      KCal/Mol        Cal/Mol-Kelvin    Cal/Mol-Kelvin
 Total                  140.008             57.480            129.647
 Electronic               0.000              0.000              0.000
 Translational            0.889              2.981             42.240
 Rotational               0.889              2.981             32.665
 Vibrational            138.231             51.519             54.742
 Vibration     1          0.594              1.984              5.781
 Vibration     2          0.595              1.980              5.103
 Vibration     3          0.595              1.979              4.982
 Vibration     4          0.596              1.976              4.622
 Vibration     5          0.599              1.965              4.005
 Vibration     6          0.601              1.959              3.740
 Vibration     7          0.614              1.915              2.830
 Vibration     8          0.618              1.903              2.679
 Vibration     9          0.625              1.880              2.438
 Vibration    10          0.641              1.831              2.078
 Vibration    11          0.665              1.756              1.701
 Vibration    12          0.702              1.646              1.340
 Vibration    13          0.715              1.609              1.244
 Vibration    14          0.736              1.551              1.115
 Vibration    15          0.760              1.486              0.991
 Vibration    16          0.771              1.458              0.942
 Vibration    17          0.782              1.429              0.895
 Vibration    18          0.790              1.407              0.862
 Vibration    19          0.807              1.365              0.801
 Vibration    20          0.838              1.290              0.705
 Vibration    21          0.868              1.222              0.627
 Vibration    22          0.902              1.147              0.551
 Vibration    23          0.926              1.096              0.504
 Vibration    24          0.938              1.071              0.483

 Optimization completed.
    -- Stationary point found.
 Normal termination of Gaussian 16 at Fri Dec 11 00:01:27 2020.

 ----------------------------------------------------------------------
 # B3LYP/6-311++G(d,p) empiricaldispersion=gd3bj scf=xqc pop=npa geom=c
 heck
 ----------------------------------------------------------------------

 --------------------------------------
 CID_12219500_JID_6583_Energie_neutraal
 --------------------------------------
 Structure from the checkpoint file:  "JID_6583.chk"
 Charge =  0 Multiplicity = 1

 SCF Done:  E(RB3LYP) =  -1063.73599121     A.U. after   16 cycles
 Normal termination of Gaussian 16 at Fri Dec 11 00:04:52 2020.

 ----------------------------------------------------------------------
 # B3LYP/6-311++G(d,p) empiricaldispersion=gd3bj scf=xqc pop=npa geom=c
 heck
 ----------------------------------------------------------------------

 ------------------------------------
 CID_12219500_JID_6583_Energie_kation
 ------------------------------------
 Structure from the checkpoint file:  "JID_6583.chk"
 Charge =  1 Multiplicity = 2

 SCF Done:  E(UB3LYP) =  -1063.42795274     A.U. after   33 cycles
 SCF Done:  E(UB3LYP) =  -1063.42795274     a.u. after    1 cycles
 Normal termination of Gaussian 16 at Fri Dec 11 00:14:39 2020.
 Gaussian 16:  ES64L-G16RevA.03 25-Dec-2016

 ----------------------------------------------------------------------
 # B3LYP/6-311++G(d,p) empiricaldispersion=gd3bj scf=xqc pop=npa geom=c
 heck
 ----------------------------------------------------------------------

 -----------------------------------
 CID_12219500_JID_6583_Energie_anion
 -----------------------------------
 Structure from the checkpoint file:  "JID_6583.chk"
 Charge = -1 Multiplicity = 2

                         Standard orientation:
 ---------------------------------------------------------------------
 Center     Atomic      Atomic             Coordinates (Angstroms)
 Number     Number       Type             X           Y           Z
 ---------------------------------------------------------------------
      1          6           0        4.719068    0.518594   -0.230127
      2          6           0        3.311625   -0.012082   -0.334920
      3          6           0        2.313602    0.718365   -0.987938
      4          6           0        1.003301    0.251240   -1.051655
      5          6           0        0.674059   -0.953969   -0.432571
      6          6           0        1.658431   -1.712527    0.203510
      7          6           0        2.965131   -1.241473    0.243959
      8          7           0       -0.671876   -1.439845   -0.461940
      9          6           0       -1.788274   -0.849921   -0.004835
     10         16           0       -3.308372   -1.471887   -0.323730
     11          6           0       -1.653507    0.432760    0.825135
     12          6           0       -0.553469    0.411002    1.791780
     13          7           0        0.267975    0.352817    2.607629
     14          6           0       -1.615829    1.746874   -0.024819
     15          8           0       -0.884014    2.671919    0.267218
     16          7           0       -2.481609    1.740380   -1.068628
     17          1           0        4.941574    1.225706   -1.035160
     18          1           0        4.863976    1.046687    0.720966
     19          1           0        5.456734   -0.289618   -0.270165
     20          1           0        2.561405    1.666454   -1.456522
     21          1           0        0.245092    0.810417   -1.587291
     22          1           0        1.389689   -2.645930    0.688449
     23          1           0        3.727055   -1.827053    0.751112
     24          1           0       -0.839849   -2.324201   -0.932572
     25          1           0       -2.583729    0.489706    1.401207
     26          1           0       -3.153788    0.990887   -1.186847
     27          1           0       -2.608349    2.605152   -1.575781
 ---------------------------------------------------------------------

 SCF Done:  E(UB3LYP) =  -1063.75855913     A.U. after   29 cycles

 The electronic state is 2-A.
 Alpha  occ. eigenvalues --  -88.64354 -18.98614 -14.22592 -14.20935 -14.18381
 Alpha  occ. eigenvalues --  -10.17133 -10.10310 -10.09189 -10.08610 -10.08268
 Alpha  occ. eigenvalues --  -10.07401 -10.06854 -10.06425 -10.06105 -10.05916
 Alpha  occ. eigenvalues --  -10.05813  -7.73096  -5.69446  -5.68979  -5.68697
 Alpha  occ. eigenvalues --   -0.93913  -0.83122  -0.80348  -0.78119  -0.74500
 Alpha  occ. eigenvalues --   -0.68238  -0.65841  -0.63815  -0.59947  -0.55939
 Alpha  occ. eigenvalues --   -0.50567  -0.50137  -0.48132  -0.45969  -0.43958
 Alpha  occ. eigenvalues --   -0.41964  -0.38903  -0.37039  -0.36254  -0.35817
 Alpha  occ. eigenvalues --   -0.33794  -0.32658  -0.32175  -0.31419  -0.31372
 Alpha  occ. eigenvalues --   -0.29454  -0.27754  -0.26304  -0.25301  -0.24531
 Alpha  occ. eigenvalues --   -0.24171  -0.22661  -0.21971  -0.20736  -0.19939
 Alpha  occ. eigenvalues --   -0.17359  -0.15764  -0.14621  -0.13710  -0.09162
 Alpha  occ. eigenvalues --   -0.07276   0.03322
 Alpha virt. eigenvalues --    0.07130   0.08045   0.08971   0.09058   0.09366
 Alpha virt. eigenvalues --    0.10071   0.10799   0.11344   0.11703   0.12214
 Alpha virt. eigenvalues --    0.12982   0.13107   0.14194   0.14615   0.14717

  Beta  occ. eigenvalues --  -88.64304 -18.98608 -14.22579 -14.20787 -14.18367
  Beta  occ. eigenvalues --  -10.17012 -10.10373 -10.09148 -10.08583 -10.07411
  Beta  occ. eigenvalues --  -10.07394 -10.06715 -10.06466 -10.06108 -10.05878
  Beta  occ. eigenvalues --  -10.05712  -7.73051  -5.69449  -5.68791  -5.68668
  Beta  occ. eigenvalues --   -0.93857  -0.82524  -0.80288  -0.78075  -0.74294
  Beta  occ. eigenvalues --   -0.67779  -0.65691  -0.63702  -0.59578  -0.55611
  Beta  occ. eigenvalues --   -0.50484  -0.49956  -0.47861  -0.45420  -0.43840
  Beta  occ. eigenvalues --   -0.41829  -0.38637  -0.36842  -0.36115  -0.35685
  Beta  occ. eigenvalues --   -0.33564  -0.32501  -0.32069  -0.31356  -0.31191
  Beta  occ. eigenvalues --   -0.29336  -0.27591  -0.25830  -0.25119  -0.24454
  Beta  occ. eigenvalues --   -0.23890  -0.22158  -0.20676  -0.20349  -0.19624
  Beta  occ. eigenvalues --   -0.17319  -0.15538  -0.14333  -0.12880  -0.08002
  Beta  occ. eigenvalues --   -0.07057
  Beta virt. eigenvalues --    0.07088   0.08000   0.08652   0.09022   0.09270
  Beta virt. eigenvalues --    0.10080   0.10689   0.11173   0.11590   0.11989
  Beta virt. eigenvalues --    0.12459   0.13097   0.13231   0.14187   0.14572

 Mulliken charges and spin densities:
               1          2
     1  C   -0.615343  -0.022870
     2  C    0.572122   0.085169
     3  C   -0.402928   0.009407
     4  C   -0.103475   0.045825
     5  C   -0.110248  -0.153582
     6  C    0.187612   0.108009
     7  C   -0.589226   0.034634
     8  N   -0.056642   0.093821
     9  C   -0.130407   0.454051
    10  S   -1.090960   0.210816
    11  C    1.308142  -0.140607
    12  C   -0.545602   0.044407
    13  N   -0.304743   0.001574
    14  C   -0.377093   0.006136
    15  O   -0.309300   0.006072
    16  N   -0.270887   0.023250
    17  H    0.122411   0.004765
    18  H    0.159509   0.009622
    19  H    0.115039   0.004943
    20  H    0.145636   0.000467
    21  H    0.187380   0.009374
    22  H    0.113228   0.040763
    23  H    0.135484  -0.000566
    24  H    0.268838   0.016817
    25  H    0.185123   0.036689
    26  H    0.154515   0.042644
    27  H    0.251814   0.028370
 Sum of Mulliken charges =  -1.00000   1.00000

 Dipole moment (field-independent basis, Debye):
    X=              5.0587    Y=              1.7259    Z=             -2.9728  Tot=              6.1161
 Quadrupole moment (field-independent basis, Debye-Ang):
   XX=           -140.1940   YY=           -122.3790   ZZ=           -120.4605
   XY=            -16.4151   XZ=             -2.3009   YZ=             -7.5475

 Summary of Natural Population Analysis:

                                       Natural Population
                Natural  -----------------------------------------------
    Atom  No    Charge         Core      Valence    Rydberg      Total
 -----------------------------------------------------------------------
      C    1   -0.29135      0.99964     2.28731    0.00440     3.29135
      C    2    0.00018      0.99952     1.99279    0.00750     2.99982
      C    3   -0.09890      0.99952     2.09187    0.00750     3.09890
      C    4   -0.09312      0.99951     2.08396    0.00965     3.09312
      C    5    0.07258      0.99946     1.91657    0.01138     2.92742
      C    6   -0.07891      0.99951     2.06843    0.01097     3.07891
      C    7   -0.10732      0.99952     2.10024    0.00756     3.10732
      N    8   -0.28380      0.99959     2.77136    0.01284     3.78380
      C    9    0.21286      0.99962     1.76953    0.01799     2.78714
      S   10   -0.15288      4.99957     3.13818    0.01513     8.15288
      C   11   -0.23907      0.99941     2.22892    0.01074     3.23907
      C   12    0.17580      0.99965     1.80445    0.02011     2.82420
      N   13   -0.18597      0.99978     2.67553    0.01066     3.68597
      C   14    0.35936      0.99970     1.61399    0.02695     2.64064
      O   15   -0.31665      0.99987     3.31071    0.00608     4.31665
      N   16   -0.41022      0.99969     2.90364    0.00689     3.91022
      H   17    0.09779      0.00000     0.40135    0.00087     0.40221
      H   18    0.10350      0.00000     0.39557    0.00093     0.39650
      H   19    0.09708      0.00000     0.40203    0.00089     0.40292
      H   20    0.09482      0.00000     0.40399    0.00119     0.40518
      H   21    0.10620      0.00000     0.39260    0.00120     0.39380
      H   22    0.10074      0.00000     0.39801    0.00125     0.39926
      H   23    0.09340      0.00000     0.40567    0.00093     0.40660
      H   24    0.19764      0.00000     0.30073    0.00163     0.30236
      H   25    0.14444      0.00000     0.35433    0.00123     0.35556
      H   26    0.21187      0.00000     0.28594    0.00219     0.28813
      H   27    0.18992      0.00000     0.30814    0.00193     0.31008
 =======================================================================
   * Total *   -0.00000     19.99357    40.80584    0.20059    61.00000

 Normal termination of Gaussian 16 at Fri Dec 11 00:23:27 2020.
