 Gaussian 16, Revision A.03,

 -----------------------------------------------------------
 # opt freq B3LYP/6-31G(d) empiricaldispersion=gd3bj scf=xqc
 -----------------------------------------------------------

 -------------------------------
 CID_134166100_JID_5259_neutraal
 -------------------------------
 Symbolic Z-matrix:
 Charge =  0 Multiplicity = 1

 SCF Done:  E(RB3LYP) =  -659.079640159     A.U. after   14 cycles
 SCF Done:  E(RB3LYP) =  -659.094763980     A.U. after   12 cycles
 SCF Done:  E(RB3LYP) =  -659.097581221     A.U. after   11 cycles
 SCF Done:  E(RB3LYP) =  -659.097625392     A.U. after   11 cycles
 SCF Done:  E(RB3LYP) =  -659.097905697     A.U. after   11 cycles
 SCF Done:  E(RB3LYP) =  -659.098203673     A.U. after   10 cycles
 SCF Done:  E(RB3LYP) =  -659.098286256     A.U. after   10 cycles
 SCF Done:  E(RB3LYP) =  -659.098332418     A.U. after   10 cycles
 SCF Done:  E(RB3LYP) =  -659.098367762     A.U. after   10 cycles
 SCF Done:  E(RB3LYP) =  -659.098406998     A.U. after   10 cycles
 SCF Done:  E(RB3LYP) =  -659.098410754     A.U. after    9 cycles
 SCF Done:  E(RB3LYP) =  -659.098411003     A.U. after    7 cycles
 Optimization completed.
    -- Stationary point found.
 Normal termination of Gaussian 16 at Thu Dec 10 15:13:46 2020.

 --------------------------------------------------------------------
 #N Geom=AllCheck Guess=TCheck SCRF=Check GenChk RB3LYP/6-31G(d) Freq
 --------------------------------------------------------------------

 Structure from the checkpoint file:  "JID_5259.chk"
 -------------------------------
 CID_134166100_JID_5259_neutraal
 -------------------------------
 Charge =  0 Multiplicity = 1

 SCF Done:  E(RB3LYP) =  -659.098411003     A.U. after    1 cycles

  Exact polarizability: 148.513   0.097 135.452   0.018  -2.339 125.848
 Approx polarizability: 187.402   4.470 188.222  -1.798   3.494 199.179

                      1                      2                      3
                      A                      A                      A
 Frequencies --     19.2807                33.7238                49.1153
 Red. masses --      2.8952                 3.7788                 3.6641
 Frc consts  --      0.0006                 0.0025                 0.0052
 IR Inten    --      0.1596                 0.1254                 0.7499

                      4                      5                      6
                      A                      A                      A
 Frequencies --     68.7881                84.7994                99.6333
 Red. masses --      4.8587                 2.0412                 3.7502
 Frc consts  --      0.0135                 0.0086                 0.0219
 IR Inten    --      1.4191                 0.0770                 0.0109

                      7                      8                      9
                      A                      A                      A
 Frequencies --    181.1590               190.3024               218.6644
 Red. masses --      2.8117                 3.3205                 1.0875
 Frc consts  --      0.0544                 0.0709                 0.0306
 IR Inten    --      1.0597                 1.2040                 0.3321

                     10                     11                     12
                      A                      A                      A
 Frequencies --    236.4650               250.5169               262.3817
 Red. masses --      2.3711                 2.6229                 1.4314
 Frc consts  --      0.0781                 0.0970                 0.0581
 IR Inten    --      0.9761                 1.8792                 1.0505

                     13                     14                     15
                      A                      A                      A
 Frequencies --    305.5918               307.8657               355.0528
 Red. masses --      2.6845                 3.2670                 2.5149
 Frc consts  --      0.1477                 0.1824                 0.1868
 IR Inten    --      0.9625                 2.5489                 1.0620

                     16                     17                     18
                      A                      A                      A
 Frequencies --    366.4047               383.2522               400.0843
 Red. masses --      2.7063                 3.0933                 2.0188
 Frc consts  --      0.2141                 0.2677                 0.1904
 IR Inten    --      1.2231                10.1142                 4.0793

                     19                     20                     21
                      A                      A                      A
 Frequencies --    438.0105               490.4585               505.3768
 Red. masses --      3.1144                 2.0228                 2.4654
 Frc consts  --      0.3520                 0.2867                 0.3710
 IR Inten    --      2.0477                 0.3228                 0.3177

                     22                     23                     24
                      A                      A                      A
 Frequencies --    524.1959               612.8889               674.5227
 Red. masses --      3.1967                 3.9448                 3.0432
 Frc consts  --      0.5175                 0.8730                 0.8158
 IR Inten    --      9.4176                 2.4050                 2.7378

                     25                     26                     27
                      A                      A                      A
 Frequencies --    752.3557               757.1811               792.7240
 Red. masses --      2.8718                 6.6125                 1.4061
 Frc consts  --      0.9577                 2.2336                 0.5206
 IR Inten    --      2.4754                 7.1607                 1.2124

                     28                     29                     30
                      A                      A                      A
 Frequencies --    809.6205               821.8232               852.8502
 Red. masses --      1.8222                 2.1747                 1.8334
 Frc consts  --      0.7037                 0.8654                 0.7857
 IR Inten    --      0.2809                 5.2040                 3.9648

                     31                     32                     33
                      A                      A                      A
 Frequencies --    857.5722               866.1056               879.6465
 Red. masses --      3.5728                 2.4962                 2.1195
 Frc consts  --      1.5481                 1.1032                 0.9663
 IR Inten    --      3.2996                 0.5281                 8.6954

                     34                     35                     36
                      A                      A                      A
 Frequencies --    920.3925               939.8657               958.6248
 Red. masses --      2.5034                 1.7354                 1.6460
 Frc consts  --      1.2495                 0.9032                 0.8912
 IR Inten    --      3.3475                 0.8380                 1.3823

                     37                     38                     39
                      A                      A                      A
 Frequencies --    981.6112               985.1524               996.8324
 Red. masses --      1.6304                 1.6534                 1.5182
 Frc consts  --      0.9256                 0.9454                 0.8888
 IR Inten    --      4.7364                 1.6867                 2.1083

                     40                     41                     42
                      A                      A                      A
 Frequencies --   1007.4707              1014.8312              1048.8905
 Red. masses --      1.6964                 1.9452                 2.2830
 Frc consts  --      1.0145                 1.1803                 1.4798
 IR Inten    --      1.7833                 6.8205                28.5833

                     43                     44                     45
                      A                      A                      A
 Frequencies --   1074.2252              1082.3103              1094.8631
 Red. masses --      1.5428                 1.4965                 1.3284
 Frc consts  --      1.0489                 1.0328                 0.9382
 IR Inten    --      7.6211                23.0255                 5.6835

                     46                     47                     48
                      A                      A                      A
 Frequencies --   1110.1182              1138.0561              1143.4690
 Red. masses --      2.6771                 2.1725                 2.2285
 Frc consts  --      1.9438                 1.6578                 1.7167
 IR Inten    --    147.2868                 5.1120                 0.7221

                     49                     50                     51
                      A                      A                      A
 Frequencies --   1154.9600              1159.3298              1199.1418
 Red. masses --      1.7814                 1.5966                 1.4363
 Frc consts  --      1.4000                 1.2643                 1.2169
 IR Inten    --      3.6003                 3.6738                 2.9376

                     52                     53                     54
                      A                      A                      A
 Frequencies --   1203.1498              1238.1156              1248.3796
 Red. masses --      1.8991                 1.6145                 1.3812
 Frc consts  --      1.6197                 1.4582                 1.2682
 IR Inten    --      0.6975                 2.5263                 5.4510

                     55                     56                     57
                      A                      A                      A
 Frequencies --   1271.9197              1279.6220              1300.7076
 Red. masses --      1.4298                 2.7850                 1.3714
 Frc consts  --      1.3629                 2.6868                 1.3671
 IR Inten    --     19.1074               238.6835                23.9538

                     58                     59                     60
                      A                      A                      A
 Frequencies --   1304.1471              1308.1208              1314.0169
 Red. masses --      1.3259                 1.5914                 1.2583
 Frc consts  --      1.3287                 1.6044                 1.2801
 IR Inten    --      1.4498                 0.9772                16.6981

                     61                     62                     63
                      A                      A                      A
 Frequencies --   1331.2345              1343.3254              1349.7436
 Red. masses --      1.2327                 1.3493                 1.3106
 Frc consts  --      1.2871                 1.4345                 1.4068
 IR Inten    --      9.7405                 8.7426                 4.8579

                     64                     65                     66
                      A                      A                      A
 Frequencies --   1381.6785              1385.8346              1395.3976
 Red. masses --      1.2990                 1.3363                 1.4407
 Frc consts  --      1.4610                 1.5121                 1.6527
 IR Inten    --      2.0598                 2.1700                 1.2696

                     67                     68                     69
                      A                      A                      A
 Frequencies --   1397.7786              1427.3488              1438.8496
 Red. masses --      1.4219                 1.3159                 1.2738
 Frc consts  --      1.6368                 1.5796                 1.5537
 IR Inten    --      7.8853                 4.8725                 2.0794

                     70                     71                     72
                      A                      A                      A
 Frequencies --   1443.7414              1448.1781              1481.3592
 Red. masses --      1.2296                 1.2578                 1.2997
 Frc consts  --      1.5100                 1.5542                 1.6804
 IR Inten    --      5.0960                 1.2575                 1.4159

                     73                     74                     75
                      A                      A                      A
 Frequencies --   1515.6082              1516.5208              1517.9556
 Red. masses --      1.0793                 1.1175                 1.1007
 Frc consts  --      1.4608                 1.5142                 1.4943
 IR Inten    --      0.3660                 1.5599                 8.9361

                     76                     77                     78
                      A                      A                      A
 Frequencies --   1521.8790              1524.7500              1531.0939
 Red. masses --      1.0914                 1.0433                 1.1468
 Frc consts  --      1.4894                 1.4291                 1.5840
 IR Inten    --      4.6735                 7.6386                 5.9611

                     79                     80                     81
                      A                      A                      A
 Frequencies --   1531.1973              1531.4592              1536.1499
 Red. masses --      1.3863                 1.0804                 1.0697
 Frc consts  --      1.9150                 1.4930                 1.4873
 IR Inten    --      1.9342                 6.0568                 9.5048

                     82                     83                     84
                      A                      A                      A
 Frequencies --   1542.2085              1821.3967              3006.8582
 Red. masses --      1.0454                11.0053                 1.0830
 Frc consts  --      1.4650                21.5110                 5.7690
 IR Inten    --      2.4254               202.2311                20.6556

                     85                     86                     87
                      A                      A                      A
 Frequencies --   3033.1403              3041.1067              3044.3418
 Red. masses --      1.0618                 1.0611                 1.0605
 Frc consts  --      5.7556                 5.7817                 5.7909
 IR Inten    --     44.7126                35.2252                70.7034

                     88                     89                     90
                      A                      A                      A
 Frequencies --   3050.2390              3051.4976              3062.2958
 Red. masses --      1.0365                 1.0646                 1.0356
 Frc consts  --      5.6818                 5.8405                 5.7220
 IR Inten    --     27.3688                33.1556                19.1352

                     91                     92                     93
                      A                      A                      A
 Frequencies --   3070.0075              3072.1160              3080.5764
 Red. masses --      1.0913                 1.0996                 1.0899
 Frc consts  --      6.0601                 6.1147                 6.0940
 IR Inten    --      1.3196                12.0070                 0.4996

                     94                     95                     96
                      A                      A                      A
 Frequencies --   3083.4325              3085.2886              3085.9898
 Red. masses --      1.0845                 1.0762                 1.0827
 Frc consts  --      6.0751                 6.0357                 6.0749
 IR Inten    --      1.2239                58.6337                12.1397

                     97                     98                     99
                      A                      A                      A
 Frequencies --   3096.7828              3113.6646              3116.2772
 Red. masses --      1.0979                 1.0970                 1.1017
 Frc consts  --      6.2032                 6.2662                 6.3038
 IR Inten    --     47.1479                73.7903                32.9123

                    100                    101                    102
                      A                      A                      A
 Frequencies --   3122.2775              3129.2918              3133.6555
 Red. masses --      1.1028                 1.1013                 1.0547
 Frc consts  --      6.3340                 6.3540                 6.1022
 IR Inten    --     39.6847                28.4046                31.8822

                    103                    104                    105
                      A                      A                      A
 Frequencies --   3142.0030              3146.8357              3213.7855
 Red. masses --      1.1027                 1.1059                 1.1175
 Frc consts  --      6.4139                 6.4525                 6.8005
 IR Inten    --     28.9226                 8.2616                18.0527

 - Thermochemistry -
 -------------------
 Temperature   298.150 Kelvin.  Pressure   1.00000 Atm.
 Atom     1 has atomic number  6 and mass  12.00000

 Molecular mass:   210.16198 amu.
 Principal axes and moments of inertia in atomic units:
                           1         2         3
     Eigenvalues --  2096.147014970.449365637.68569
           X            0.99969   0.02358   0.00772
           Y           -0.02336   0.99935  -0.02734
           Z           -0.00836   0.02715   0.99960
 This molecule is an asymmetric top.
 Rotational symmetry number  1.
 Warning -- assumption of classical behavior for rotation
           may cause significant error
 Rotational temperatures (Kelvin)      0.04132     0.01743     0.01536
 Rotational constants (GHZ):           0.86098     0.36309     0.32012
 Zero-point vibrational energy     878195.9 (Joules/Mol)
                                  209.89386 (Kcal/Mol)
 Warning -- explicit consideration of  23 degrees of freedom as
           vibrations may cause significant error
 Vibrational temperatures:     27.74    48.52    70.67    98.97   122.01
          (Kelvin)            143.35   260.65   273.80   314.61   340.22
                              360.44   377.51   439.68   442.95   510.84
                              527.17   551.41   575.63   630.20   705.66
                              727.12   754.20   881.81   970.49  1082.47
                             1089.41  1140.55  1164.86  1182.42  1227.06
                             1233.86  1246.13  1265.62  1324.24  1352.26
                             1379.25  1412.32  1417.41  1434.22  1449.53
                             1460.12  1509.12  1545.57  1557.20  1575.26
                             1597.21  1637.41  1645.20  1661.73  1668.02
                             1725.30  1731.06  1781.37  1796.14  1830.01
                             1841.09  1871.43  1876.38  1882.09  1890.58
                             1915.35  1932.75  1941.98  1987.93  1993.91
                             2007.67  2011.09  2053.64  2070.18  2077.22
                             2083.61  2131.35  2180.62  2181.94  2184.00
                             2189.64  2193.78  2202.90  2203.05  2203.43
                             2210.18  2218.89  2620.58  4326.20  4364.01
                             4375.47  4380.13  4388.61  4390.42  4405.96
                             4417.06  4420.09  4432.26  4436.37  4439.04
                             4440.05  4455.58  4479.87  4483.63  4492.26
                             4502.35  4508.63  4520.64  4527.59  4623.92

 Zero-point correction=                           0.334487 (Hartree/Particle)
 Thermal correction to Energy=                    0.350218
 Thermal correction to Enthalpy=                  0.351162
 Thermal correction to Gibbs Free Energy=         0.289898
 Sum of electronic and zero-point Energies=           -658.763924
 Sum of electronic and thermal Energies=              -658.748193
 Sum of electronic and thermal Enthalpies=            -658.747249
 Sum of electronic and thermal Free Energies=         -658.808513

                     E (Thermal)             CV                S
                      KCal/Mol        Cal/Mol-Kelvin    Cal/Mol-Kelvin
 Total                  219.765             59.900            128.941
 Electronic               0.000              0.000              0.000
 Translational            0.889              2.981             41.932
 Rotational               0.889              2.981             32.441
 Vibrational            217.987             53.938             54.569
 Vibration     1          0.593              1.986              6.707
 Vibration     2          0.594              1.983              5.597
 Vibration     3          0.595              1.978              4.853
 Vibration     4          0.598              1.969              4.188
 Vibration     5          0.601              1.960              3.777
 Vibration     6          0.604              1.949              3.461
 Vibration     7          0.630              1.865              2.316
 Vibration     8          0.634              1.853              2.225
 Vibration     9          0.646              1.813              1.970
 Vibration    10          0.655              1.785              1.829
 Vibration    11          0.663              1.762              1.727
 Vibration    12          0.670              1.742              1.646
 Vibration    13          0.696              1.663              1.386
 Vibration    14          0.698              1.659              1.374
 Vibration    15          0.731              1.565              1.144
 Vibration    16          0.739              1.541              1.095
 Vibration    17          0.752              1.506              1.026
 Vibration    18          0.766              1.470              0.962
 Vibration    19          0.798              1.387              0.833
 Vibration    20          0.846              1.271              0.682
 Vibration    21          0.861              1.238              0.645
 Vibration    22          0.879              1.196              0.600
 Vibration    23          0.972              1.005              0.428

                           ! Non-Optimized Parameters !
 Normal termination of Gaussian 16 at Thu Dec 10 15:26:11 2020.

 ----------------------------------------------------------------------
 # B3LYP/6-311++G(d,p) empiricaldispersion=gd3bj scf=xqc pop=npa geom=c
 heck
 ----------------------------------------------------------------------

 ---------------------------------------
 CID_134166100_JID_5259_Energie_neutraal
 ---------------------------------------
 Structure from the checkpoint file:  "JID_5259.chk"
 Charge =  0 Multiplicity = 1

 SCF Done:  E(RB3LYP) =  -659.281543507     A.U. after   14 cycles
 Normal termination of Gaussian 16 at Thu Dec 10 15:32:04 2020.

 ----------------------------------------------------------------------
 # B3LYP/6-311++G(d,p) empiricaldispersion=gd3bj scf=xqc pop=npa geom=c
 heck
 ----------------------------------------------------------------------

 -------------------------------------
 CID_134166100_JID_5259_Energie_kation
 -------------------------------------
 Structure from the checkpoint file:  "JID_5259.chk"
 Charge =  1 Multiplicity = 2

 SCF Done:  E(UB3LYP) =  -658.968485265     A.U. after   22 cycles
 Normal termination of Gaussian 16 at Thu Dec 10 15:49:40 2020.
 Gaussian 16:  ES64L-G16RevA.03 25-Dec-2016

 ----------------------------------------------------------------------
 # B3LYP/6-311++G(d,p) empiricaldispersion=gd3bj scf=xqc pop=npa geom=c
 heck
 ----------------------------------------------------------------------

 ------------------------------------
 CID_134166100_JID_5259_Energie_anion
 ------------------------------------
 Structure from the checkpoint file:  "JID_5259.chk"
 Charge = -1 Multiplicity = 2

                         Standard orientation:
 ---------------------------------------------------------------------
 Center     Atomic      Atomic             Coordinates (Angstroms)
 Number     Number       Type             X           Y           Z
 ---------------------------------------------------------------------
      1          6           0        3.051914    2.645707    0.132456
      2          6           0        2.080959    1.478418   -0.058174
      3          6           0        2.783100    0.110731   -0.227943
      4          6           0        3.570029   -0.314028    1.020286
      5          6           0        1.743626   -0.925983   -0.616922
      6          8           0        1.611629   -1.396617   -1.726144
      7          8           0        0.948725   -1.230428    0.437786
      8          6           0       -0.169172   -2.116415    0.203711
      9          6           0       -1.476839   -1.330627    0.124185
     10          6           0       -1.758838   -0.613508    1.488727
     11          6           0       -2.944195    0.405341    1.522725
     12          6           0       -2.683331    1.223122    0.280256
     13          6           0       -3.371354    1.754435   -0.958080
     14          6           0       -2.819121    0.345875   -0.934764
     15          6           0       -1.538624   -0.420614   -1.153763
     16          1           0        3.627140    2.550485    1.059155
     17          1           0        2.509213    3.596096    0.177858
     18          1           0        3.763348    2.706344   -0.699817
     19          1           0        1.392338    1.417627    0.793604
     20          1           0        1.465171    1.665692   -0.947688
     21          1           0        3.461113    0.173092   -1.086269
     22          1           0        2.916896   -0.346887    1.897394
     23          1           0        4.010617   -1.307968    0.888023
     24          1           0        4.385820    0.386908    1.220243
     25          1           0        0.013974   -2.675196   -0.716245
     26          1           0       -0.173866   -2.801898    1.056297
     27          1           0       -2.263193   -2.089366   -0.012150
     28          1           0       -1.900866   -1.388659    2.253268
     29          1           0       -0.849759   -0.068755    1.771982
     30          1           0       -2.915000    0.967555    2.465804
     31          1           0       -3.912631   -0.106707    1.472806
     32          1           0       -1.679441    1.652045    0.333062
     33          1           0       -2.849243    2.567230   -1.457696
     34          1           0       -4.454505    1.820053   -1.031071
     35          1           0       -3.651313   -0.352171   -0.814333
     36          1           0       -0.675626    0.250644   -1.204457
     37          1           0       -1.511934   -1.054537   -2.049090
 ---------------------------------------------------------------------

 SCF Done:  E(UB3LYP) =  -659.266650319     A.U. after   33 cycles
 SCF Done:  E(UB3LYP) =  -659.266650319     a.u. after    1 cycles

 The electronic state is 2-A.
 Alpha  occ. eigenvalues --  -19.06955 -19.01591 -10.20276 -10.12837 -10.09467
 Alpha  occ. eigenvalues --  -10.09320 -10.08805 -10.08004 -10.07975 -10.07956
 Alpha  occ. eigenvalues --  -10.07693 -10.07662 -10.07288 -10.06886 -10.06553
 Alpha  occ. eigenvalues --   -1.00947  -0.92544  -0.78720  -0.72764  -0.70621
 Alpha  occ. eigenvalues --   -0.65796  -0.64218  -0.61841  -0.57128  -0.55136
 Alpha  occ. eigenvalues --   -0.51164  -0.49303  -0.48671  -0.48114  -0.44711
 Alpha  occ. eigenvalues --   -0.40782  -0.39633  -0.38792  -0.37741  -0.36573
 Alpha  occ. eigenvalues --   -0.35918  -0.35145  -0.34845  -0.33551  -0.32511
 Alpha  occ. eigenvalues --   -0.31055  -0.29858  -0.29426  -0.28849  -0.28115
 Alpha  occ. eigenvalues --   -0.27710  -0.27422  -0.26082  -0.25311  -0.24903
 Alpha  occ. eigenvalues --   -0.24432  -0.23987  -0.23732  -0.22647  -0.21331
 Alpha  occ. eigenvalues --   -0.19335  -0.18075  -0.15205   0.04302
 Alpha virt. eigenvalues --    0.05820   0.06688   0.07477   0.07855   0.08068
 Alpha virt. eigenvalues --    0.08815   0.09437   0.09656   0.09988   0.10087
 Alpha virt. eigenvalues --    0.10484   0.11277   0.11607   0.11885   0.12564

  Beta  occ. eigenvalues --  -19.06951 -19.01570 -10.20257 -10.12823 -10.09458
  Beta  occ. eigenvalues --  -10.09316 -10.08795 -10.07995 -10.07958 -10.07952
  Beta  occ. eigenvalues --  -10.07686 -10.07658 -10.07270 -10.06852 -10.06510
  Beta  occ. eigenvalues --   -1.00923  -0.92515  -0.78707  -0.72734  -0.70594
  Beta  occ. eigenvalues --   -0.65768  -0.64175  -0.61811  -0.57074  -0.55089
  Beta  occ. eigenvalues --   -0.51111  -0.49264  -0.48635  -0.48080  -0.44675
  Beta  occ. eigenvalues --   -0.40754  -0.39587  -0.38758  -0.37707  -0.36543
  Beta  occ. eigenvalues --   -0.35882  -0.35113  -0.34813  -0.33518  -0.32472
  Beta  occ. eigenvalues --   -0.31018  -0.29829  -0.29390  -0.28797  -0.28085
  Beta  occ. eigenvalues --   -0.27670  -0.27387  -0.26052  -0.25283  -0.24873
  Beta  occ. eigenvalues --   -0.24403  -0.23957  -0.23696  -0.22619  -0.21287
  Beta  occ. eigenvalues --   -0.19309  -0.18053  -0.15188
  Beta virt. eigenvalues --    0.06363   0.06794   0.07187   0.07901   0.08333
  Beta virt. eigenvalues --    0.08515   0.09135   0.09772   0.09932   0.10263
  Beta virt. eigenvalues --    0.10526   0.10845   0.11495   0.11897   0.12178

 Mulliken charges and spin densities:
               1          2
     1  C    2.021731  -2.718819
     2  C   -1.608226   1.553792
     3  C    0.066615   0.154058
     4  C    0.910932  -1.526299
     5  C   -0.932598   0.532534
     6  O   -0.183897   0.000646
     7  O    0.136412   0.024508
     8  C    0.558344  -1.282202
     9  C   -0.052593   0.393363
    10  C    0.147236  -0.246935
    11  C   -0.390404  -0.268728
    12  C   -0.039953   0.285628
    13  C    0.293760  -0.816185
    14  C   -0.021303   0.300980
    15  C   -0.232596  -0.467491
    16  H   -0.243517   0.396118
    17  H   -0.326773   0.474819
    18  H   -0.288945   0.431341
    19  H    0.039059   0.109517
    20  H    0.116654   0.017196
    21  H    0.085711   0.122066
    22  H   -0.146138   0.331788
    23  H   -0.086553   0.226728
    24  H   -0.211292   0.357938
    25  H    0.158595   0.026771
    26  H   -0.261193   0.438827
    27  H   -0.245310   0.456104
    28  H   -0.417627   0.589190
    29  H    0.283191  -0.123427
    30  H   -0.185966   0.350070
    31  H   -0.090373   0.242926
    32  H    0.132714  -0.054545
    33  H   -0.020653   0.167262
    34  H    0.021023   0.112261
    35  H   -0.096775   0.244252
    36  H   -0.008972   0.118018
    37  H    0.119679   0.045929
 Sum of Mulliken charges =  -1.00000   1.00000

 Dipole moment (field-independent basis, Debye):
    X=             -2.3575    Y=             -0.9119    Z=             -2.5794  Tot=              3.6115
 Quadrupole moment (field-independent basis, Debye-Ang):
   XX=           -172.0292   YY=           -148.3593   ZZ=           -136.9942
   XY=            -14.6766   XZ=              1.2276   YZ=              1.1850

 Summary of Natural Population Analysis:

                                       Natural Population
                Natural  -----------------------------------------------
    Atom  No    Charge         Core      Valence    Rydberg      Total
 -----------------------------------------------------------------------
      C    1   -0.28556      0.99967     2.28075    0.00514     3.28556
      C    2   -0.18540      0.99962     2.17753    0.00825     3.18540
      C    3   -0.15131      0.99955     2.14114    0.01063     3.15131
      C    4   -0.28472      0.99965     2.27913    0.00594     3.28472
      C    5    0.42083      0.99964     1.55392    0.02561     2.57917
      O    6   -0.30839      0.99987     3.30342    0.00510     4.30839
      O    7   -0.28904      0.99986     3.27993    0.00925     4.28904
      C    8   -0.01410      0.99951     2.00191    0.01268     3.01410
      C    9   -0.11797      0.99958     2.10725    0.01113     3.11797
      C   10   -0.18895      0.99961     2.17996    0.00938     3.18895
      C   11   -0.18382      0.99960     2.17544    0.00878     3.18382
      C   12   -0.11664      0.99952     2.10712    0.01000     3.11664
      C   13   -0.18048      0.99958     2.17310    0.00779     3.18048
      C   14   -0.11506      0.99952     2.10514    0.01041     3.11506
      C   15   -0.18586      0.99958     2.17781    0.00847     3.18586
      H   16    0.09967      0.00000     0.39895    0.00138     0.40033
      H   17    0.10240      0.00000     0.39641    0.00119     0.39760
      H   18    0.09611      0.00000     0.40267    0.00122     0.40389
      H   19    0.09882      0.00000     0.39925    0.00194     0.40118
      H   20    0.09679      0.00000     0.40175    0.00146     0.40321
      H   21    0.10390      0.00000     0.39441    0.00169     0.39610
      H   22    0.10481      0.00000     0.39384    0.00134     0.39519
      H   23    0.10039      0.00000     0.39859    0.00102     0.39961
      H   24    0.10272      0.00000     0.39618    0.00110     0.39728
      H   25    0.10061      0.00000     0.39810    0.00128     0.39939
      H   26    0.09459      0.00000     0.40405    0.00137     0.40541
      H   27    0.09947      0.00000     0.39883    0.00170     0.40053
      H   28    0.10227      0.00000     0.39619    0.00154     0.39773
      H   29    0.09873      0.00000     0.39903    0.00224     0.40127
      H   30    0.09693      0.00000     0.40212    0.00094     0.40307
      H   31    0.09683      0.00000     0.40168    0.00148     0.40317
      H   32    0.09390      0.00000     0.40372    0.00238     0.40610
      H   33    0.10316      0.00000     0.39584    0.00100     0.39684
      H   34    0.10206      0.00000     0.39696    0.00098     0.39794
      H   35    0.09294      0.00000     0.40519    0.00187     0.40706
      H   36    0.09942      0.00000     0.39841    0.00217     0.40058
      H   37    0.09993      0.00000     0.39914    0.00093     0.40007
 =======================================================================
   * Total *    0.00000     14.99436    42.82487    0.18077    58.00000

 Normal termination of Gaussian 16 at Thu Dec 10 16:14:16 2020.
