 Gaussian 16, Revision A.03,

 -----------------------------------------------------------
 # opt freq B3LYP/6-31G(d) empiricaldispersion=gd3bj scf=xqc
 -----------------------------------------------------------

 -------------------------------
 CID_151389378_JID_3666_neutraal
 -------------------------------
 Symbolic Z-matrix:
 Charge =  0 Multiplicity = 1

 SCF Done:  E(RB3LYP) =  -736.263022371     A.U. after   16 cycles
 SCF Done:  E(RB3LYP) =  -736.263898158     A.U. after   16 cycles
 SCF Done:  E(RB3LYP) =  -736.267011333     A.U. after   14 cycles
 SCF Done:  E(RB3LYP) =  -736.268413051     A.U. after   14 cycles
 SCF Done:  E(RB3LYP) =  -736.268235574     A.U. after   14 cycles
 SCF Done:  E(RB3LYP) =  -736.268140919     A.U. after   13 cycles
 SCF Done:  E(RB3LYP) =  -736.266969876     A.U. after   13 cycles
 SCF Done:  E(RB3LYP) =  -736.268724017     A.U. after   10 cycles
 SCF Done:  E(RB3LYP) =  -736.269590998     A.U. after   13 cycles
 SCF Done:  E(RB3LYP) =  -736.269623291     A.U. after   13 cycles
 SCF Done:  E(RB3LYP) =  -736.270347420     A.U. after   12 cycles
 SCF Done:  E(RB3LYP) =  -736.270351427     A.U. after   11 cycles
 SCF Done:  E(RB3LYP) =  -736.270351989     A.U. after    9 cycles
 SCF Done:  E(RB3LYP) =  -736.270352569     A.U. after    9 cycles
 SCF Done:  E(RB3LYP) =  -736.270352706     A.U. after    9 cycles
 Optimization completed.
    -- Stationary point found.
 Normal termination of Gaussian 16 at Wed Dec  9 23:59:49 2020.

 --------------------------------------------------------------------
 #N Geom=AllCheck Guess=TCheck SCRF=Check GenChk RB3LYP/6-31G(d) Freq
 --------------------------------------------------------------------

 Structure from the checkpoint file:  "JID_3666.chk"
 -------------------------------
 CID_151389378_JID_3666_neutraal
 -------------------------------
 Charge =  0 Multiplicity = 1

 SCF Done:  E(RB3LYP) =  -736.270352706     A.U. after    1 cycles

  Exact polarizability: 113.718  13.148  81.534  -6.454   1.665  69.309
 Approx polarizability: 188.685  33.932 119.192 -18.795  -0.398 105.148

                      1                      2                      3
                      A                      A                      A
 Frequencies --     24.0287                39.0062                67.1004
 Red. masses --      8.6097                 9.4024                 8.9864
 Frc consts  --      0.0029                 0.0084                 0.0238
 IR Inten    --      0.5402                 0.6092                 3.8777

                      4                      5                      6
                      A                      A                      A
 Frequencies --     99.5897               118.7513               161.5565
 Red. masses --      6.3278                 5.0598                 5.3954
 Frc consts  --      0.0370                 0.0420                 0.0830
 IR Inten    --      0.8306                 3.1831                 1.5620

                      7                      8                      9
                      A                      A                      A
 Frequencies --    174.4466               217.6595               221.8954
 Red. masses --      7.4773                 5.9890                 4.9017
 Frc consts  --      0.1341                 0.1672                 0.1422
 IR Inten    --      6.9825                 1.0560                 0.2101

                     10                     11                     12
                      A                      A                      A
 Frequencies --    257.0394               294.2352               297.2259
 Red. masses --      5.8851                 5.4386                 5.1842
 Frc consts  --      0.2291                 0.2774                 0.2698
 IR Inten    --     10.0784                13.1795                 3.8279

                     13                     14                     15
                      A                      A                      A
 Frequencies --    350.6183               401.2770               434.3120
 Red. masses --      3.0596                 5.1494                 1.3719
 Frc consts  --      0.2216                 0.4885                 0.1525
 IR Inten    --      6.1189                 7.1071                36.3666

                     16                     17                     18
                      A                      A                      A
 Frequencies --    501.3826               524.6870               563.8184
 Red. masses --      1.1374                 2.3797                 1.5160
 Frc consts  --      0.1685                 0.3860                 0.2839
 IR Inten    --     83.0731                53.7076               232.8181

                     19                     20                     21
                      A                      A                      A
 Frequencies --    569.0226               586.7588               643.8841
 Red. masses --     10.8153                 3.1394                 2.4949
 Frc consts  --      2.0632                 0.6368                 0.6094
 IR Inten    --      7.8505               143.2142                89.7576

                     22                     23                     24
                      A                      A                      A
 Frequencies --    670.0812               710.1312               739.3386
 Red. masses --      3.2871                 4.2296                 2.4307
 Frc consts  --      0.8696                 1.2567                 0.7828
 IR Inten    --     33.1490                 9.9324                37.2009

                     25                     26                     27
                      A                      A                      A
 Frequencies --    813.0984               841.8301               881.9825
 Red. masses --      4.3451                 4.6250                 3.5174
 Frc consts  --      1.6925                 1.9311                 1.6121
 IR Inten    --     37.8535                10.6536                24.0954

                     28                     29                     30
                      A                      A                      A
 Frequencies --    924.5115               958.2343              1011.8839
 Red. masses --      2.4490                 2.6715                 3.1256
 Frc consts  --      1.2333                 1.4453                 1.8856
 IR Inten    --     12.5586                 7.1153                 7.5408

                     31                     32                     33
                      A                      A                      A
 Frequencies --   1069.6290              1103.3130              1107.8358
 Red. masses --      2.3932                 4.1779                 3.8936
 Frc consts  --      1.6132                 2.9965                 2.8155
 IR Inten    --     37.5547               146.4007                70.4146

                     34                     35                     36
                      A                      A                      A
 Frequencies --   1139.5757              1171.0628              1241.4849
 Red. masses --      2.3717                 2.4507                 1.0809
 Frc consts  --      1.8147                 1.9802                 0.9815
 IR Inten    --     34.6692               233.1200                 9.1029

                     37                     38                     39
                      A                      A                      A
 Frequencies --   1258.5609              1294.1333              1305.0737
 Red. masses --      1.2093                 1.3856                 1.3876
 Frc consts  --      1.1286                 1.3672                 1.3925
 IR Inten    --     55.6337                37.1264                 3.3967

                     40                     41                     42
                      A                      A                      A
 Frequencies --   1331.7229              1347.6018              1358.3867
 Red. masses --      1.5256                11.8660                 1.5708
 Frc consts  --      1.5941                12.6963                 1.7077
 IR Inten    --      7.4184               148.3606                14.9553

                     43                     44                     45
                      A                      A                      A
 Frequencies --   1385.0338              1395.1069              1418.7041
 Red. masses --      1.4813                 1.3446                 1.7413
 Frc consts  --      1.6742                 1.5419                 2.0650
 IR Inten    --     22.1552                65.7623                38.6413

                     46                     47                     48
                      A                      A                      A
 Frequencies --   1452.9148              1459.3585              1476.9694
 Red. masses --      1.1971                 1.2542                 1.3022
 Frc consts  --      1.4889                 1.5738                 1.6736
 IR Inten    --     83.2959                31.4351                30.2012

                     49                     50                     51
                      A                      A                      A
 Frequencies --   1513.7901              1829.7675              2277.5853
 Red. masses --      1.0876                 9.3616                13.4850
 Frc consts  --      1.4685                18.4669                41.2146
 IR Inten    --     28.2924               239.6351               569.7291

                     52                     53                     54
                      A                      A                      A
 Frequencies --   3040.3192              3075.8177              3086.5611
 Red. masses --      1.0576                 1.0868                 1.0870
 Frc consts  --      5.7598                 6.0579                 6.1015
 IR Inten    --     18.8005                 9.8775                32.5567

                     55                     56                     57
                      A                      A                      A
 Frequencies --   3090.5378              3156.4463              3658.7069
 Red. masses --      1.1059                 1.0873                 1.0638
 Frc consts  --      6.2235                 6.3824                 8.3902
 IR Inten    --     26.8852                 6.9306                62.2178

                     58                     59                     60
                      A                      A                      A
 Frequencies --   3671.2495              3680.9958              3684.4621
 Red. masses --      1.0654                 1.0647                 1.0657
 Frc consts  --      8.4602                 8.4995                 8.5240
 IR Inten    --     51.5258                34.3501                45.7843

 - Thermochemistry -
 -------------------
 Temperature   298.150 Kelvin.  Pressure   1.00000 Atm.
 Atom     1 has atomic number  6 and mass  12.00000

 Molecular mass:   191.05422 amu.
 Principal axes and moments of inertia in atomic units:
                           1         2         3
     Eigenvalues --  1486.818003471.385943787.72750
           X            0.99992  -0.01145   0.00533
           Y            0.01128   0.99949   0.02998
           Z           -0.00567  -0.02992   0.99954
 This molecule is an asymmetric top.
 Rotational symmetry number  1.
 Warning -- assumption of classical behavior for rotation
           may cause significant error
 Rotational temperatures (Kelvin)      0.05825     0.02495     0.02287
 Rotational constants (GHZ):           1.21383     0.51989     0.47647
 Zero-point vibrational energy     437726.1 (Joules/Mol)
                                  104.61906 (Kcal/Mol)
 Warning -- explicit consideration of  20 degrees of freedom as
           vibrations may cause significant error
 Vibrational temperatures:     34.57    56.12    96.54   143.29   170.86
          (Kelvin)            232.44   250.99   313.16   319.26   369.82
                              423.34   427.64   504.46   577.35   624.88
                              721.38   754.91   811.21   818.70   844.22
                              926.41   964.10  1021.72  1063.74  1169.87
                             1211.21  1268.98  1330.17  1378.69  1455.88
                             1538.96  1587.42  1593.93  1639.60  1684.90
                             1786.22  1810.79  1861.97  1877.71  1916.05
                             1938.90  1954.42  1992.75  2007.25  2041.20
                             2090.42  2099.69  2125.03  2178.01  2632.63
                             3276.94  4374.34  4425.42  4440.87  4446.59
                             4541.42  5264.06  5282.11  5296.13  5301.12

 Zero-point correction=                           0.166721 (Hartree/Particle)
 Thermal correction to Energy=                    0.180089
 Thermal correction to Enthalpy=                  0.181033
 Thermal correction to Gibbs Free Energy=         0.125331
 Sum of electronic and zero-point Energies=           -736.103632
 Sum of electronic and thermal Energies=              -736.090264
 Sum of electronic and thermal Enthalpies=            -736.089319
 Sum of electronic and thermal Free Energies=         -736.145021

                     E (Thermal)             CV                S
                      KCal/Mol        Cal/Mol-Kelvin    Cal/Mol-Kelvin
 Total                  113.008             47.846            117.235
 Electronic               0.000              0.000              0.000
 Translational            0.889              2.981             41.648
 Rotational               0.889              2.981             31.348
 Vibrational            111.230             41.885             44.239
 Vibration     1          0.593              1.985              6.270
 Vibration     2          0.594              1.981              5.309
 Vibration     3          0.598              1.970              4.237
 Vibration     4          0.604              1.949              3.462
 Vibration     5          0.609              1.934              3.121
 Vibration     6          0.622              1.890              2.531
 Vibration     7          0.627              1.874              2.387
 Vibration     8          0.646              1.814              1.978
 Vibration     9          0.648              1.808              1.944
 Vibration    10          0.667              1.751              1.682
 Vibration    11          0.689              1.684              1.449
 Vibration    12          0.691              1.679              1.432
 Vibration    13          0.728              1.574              1.163
 Vibration    14          0.767              1.467              0.958
 Vibration    15          0.795              1.395              0.845
 Vibration    16          0.857              1.247              0.655
 Vibration    17          0.880              1.195              0.599
 Vibration    18          0.920              1.110              0.516
 Vibration    19          0.925              1.098              0.506
 Vibration    20          0.944              1.060              0.473

 Optimization completed.
    -- Stationary point found.
 Normal termination of Gaussian 16 at Thu Dec 10 00:04:52 2020.

 ----------------------------------------------------------------------
 # B3LYP/6-311++G(d,p) empiricaldispersion=gd3bj scf=xqc pop=npa geom=c
 heck
 ----------------------------------------------------------------------

 ---------------------------------------
 CID_151389378_JID_3666_Energie_neutraal
 ---------------------------------------
 Structure from the checkpoint file:  "JID_3666.chk"
 Charge =  0 Multiplicity = 1

 SCF Done:  E(RB3LYP) =  -736.520442940     A.U. after   18 cycles
 Normal termination of Gaussian 16 at Thu Dec 10 00:06:47 2020.

 ----------------------------------------------------------------------
 # B3LYP/6-311++G(d,p) empiricaldispersion=gd3bj scf=xqc pop=npa geom=c
 heck
 ----------------------------------------------------------------------

 -------------------------------------
 CID_151389378_JID_3666_Energie_kation
 -------------------------------------
 Structure from the checkpoint file:  "JID_3666.chk"
 Charge =  1 Multiplicity = 2

 SCF Done:  E(UB3LYP) =  -736.173249119     A.U. after   30 cycles
 Normal termination of Gaussian 16 at Thu Dec 10 00:11:06 2020.
 Gaussian 16:  ES64L-G16RevA.03 25-Dec-2016

 ----------------------------------------------------------------------
 # B3LYP/6-311++G(d,p) empiricaldispersion=gd3bj scf=xqc pop=npa geom=c
 heck
 ----------------------------------------------------------------------

 ------------------------------------
 CID_151389378_JID_3666_Energie_anion
 ------------------------------------
 Structure from the checkpoint file:  "JID_3666.chk"
 Charge = -1 Multiplicity = 2

                         Standard orientation:
 ---------------------------------------------------------------------
 Center     Atomic      Atomic             Coordinates (Angstroms)
 Number     Number       Type             X           Y           Z
 ---------------------------------------------------------------------
      1          6           0       -1.749128    1.258650   -0.120150
      2          6           0       -0.309656    1.380247   -0.622638
      3          6           0        0.768563    1.159685    0.455953
      4          6           0        1.004168   -0.297907    0.924165
      5          6           0        1.526187   -1.150164   -0.233222
      6          8           0        2.619191   -1.001243   -0.739617
      7          8           0        0.656654   -2.102312   -0.641252
      8          8           0        1.972106   -0.295209    1.954020
      9          8           0        2.013722    1.711100    0.043741
     10          8           0       -0.105417    0.561412   -1.765768
     11          7           0       -2.022976   -0.173872    0.141479
     12          7           0       -3.205486   -0.470192    0.341019
     13          7           0       -4.258445   -0.860820    0.539691
     14          1           0       -2.428232    1.634804   -0.894529
     15          1           0       -1.894930    1.852060    0.791910
     16          1           0       -0.170721    2.412385   -0.962326
     17          1           0        0.487978    1.724858    1.351995
     18          1           0        0.088528   -0.734050    1.323403
     19          1           0        1.098397   -2.577054   -1.372757
     20          1           0        2.688287    0.278317    1.623955
     21          1           0        2.344914    1.157111   -0.687633
     22          1           0       -0.496732   -0.307289   -1.562987
 ---------------------------------------------------------------------

 SCF Done:  E(UB3LYP) =  -736.519150008     A.U. after   33 cycles
 SCF Done:  E(UB3LYP) =  -736.519150016     a.u. after    2 cycles

 The electronic state is 2-A.
 Alpha  occ. eigenvalues --  -19.07687 -19.03411 -19.03402 -19.02624 -19.02086
 Alpha  occ. eigenvalues --  -14.32578 -14.23106 -14.22580 -10.21338 -10.13802
 Alpha  occ. eigenvalues --  -10.13400 -10.12651 -10.10187  -1.02021  -0.99914
 Alpha  occ. eigenvalues --   -0.95697  -0.93385  -0.92699  -0.91971  -0.84316
 Alpha  occ. eigenvalues --   -0.68719  -0.64795  -0.58900  -0.53332  -0.50049
 Alpha  occ. eigenvalues --   -0.45114  -0.43657  -0.42211  -0.40289  -0.39811
 Alpha  occ. eigenvalues --   -0.39306  -0.37850  -0.36004  -0.34722  -0.34537
 Alpha  occ. eigenvalues --   -0.33900  -0.32566  -0.31618  -0.30768  -0.29750
 Alpha  occ. eigenvalues --   -0.27770  -0.24284  -0.23757  -0.23435  -0.21650
 Alpha  occ. eigenvalues --   -0.21139  -0.18780  -0.18232  -0.16491  -0.12817
 Alpha  occ. eigenvalues --    0.04629
 Alpha virt. eigenvalues --    0.06699   0.07786   0.08051   0.09171   0.09910
 Alpha virt. eigenvalues --    0.10943   0.11961   0.12200   0.12477   0.13524
 Alpha virt. eigenvalues --    0.14699   0.15093   0.16444   0.17168   0.17493

  Beta  occ. eigenvalues --  -19.07625 -19.03408 -19.03387 -19.02603 -19.02060
  Beta  occ. eigenvalues --  -14.32246 -14.22659 -14.22628 -10.21319 -10.13784
  Beta  occ. eigenvalues --  -10.13393 -10.12637 -10.10063  -1.01942  -0.99250
  Beta  occ. eigenvalues --   -0.95666  -0.93334  -0.92643  -0.91934  -0.83973
  Beta  occ. eigenvalues --   -0.68628  -0.64672  -0.58744  -0.53199  -0.49957
  Beta  occ. eigenvalues --   -0.45069  -0.43565  -0.42070  -0.40136  -0.39759
  Beta  occ. eigenvalues --   -0.38891  -0.37466  -0.35684  -0.34651  -0.33983
  Beta  occ. eigenvalues --   -0.33550  -0.32384  -0.31277  -0.30239  -0.29511
  Beta  occ. eigenvalues --   -0.27685  -0.24249  -0.23679  -0.23352  -0.21630
  Beta  occ. eigenvalues --   -0.21084  -0.18534  -0.17725  -0.16357  -0.12706
  Beta virt. eigenvalues --    0.07708   0.07908   0.08448   0.09315   0.10027
  Beta virt. eigenvalues --    0.11222   0.11332   0.12156   0.12389   0.12636
  Beta virt. eigenvalues --    0.13778   0.14858   0.15239   0.16635   0.17249

 Mulliken charges and spin densities:
               1          2
     1  C    1.193989  -1.740420
     2  C   -1.277563   1.258507
     3  C    0.193121  -0.679563
     4  C   -0.155622  -0.455110
     5  C    0.599207  -0.446240
     6  O   -0.313372   0.032194
     7  O   -0.183367   0.029130
     8  O   -0.144175   0.015177
     9  O   -0.209119   0.011321
    10  O   -0.110235  -0.044028
    11  N   -2.317457   1.086493
    12  N    1.958907  -0.313830
    13  N    0.139372  -0.313846
    14  H   -0.274499   0.488604
    15  H   -0.348430   0.509722
    16  H   -0.260119   0.468385
    17  H    0.024838   0.216212
    18  H    0.124471   0.149240
    19  H   -0.391307   0.697469
    20  H    0.267857  -0.007002
    21  H    0.282867   0.004213
    22  H    0.200638   0.033371
 Sum of Mulliken charges =  -1.00000   1.00000

 Dipole moment (field-independent basis, Debye):
    X=              3.8839    Y=              1.4648    Z=              0.8053  Tot=              4.2284
 Quadrupole moment (field-independent basis, Debye-Ang):
   XX=           -128.7814   YY=           -112.2153   ZZ=           -100.9974
   XY=              1.5687   XZ=              3.8336   YZ=             -2.4175

 Summary of Natural Population Analysis:

                                       Natural Population
                Natural  -----------------------------------------------
    Atom  No    Charge         Core      Valence    Rydberg      Total
 -----------------------------------------------------------------------
      C    1   -0.09357      0.99957     2.08304    0.01095     3.09357
      C    2    0.04737      0.99953     1.93532    0.01779     2.95263
      C    3    0.04628      0.99953     1.93748    0.01671     2.95372
      C    4    0.00478      0.99949     1.98056    0.01518     2.99522
      C    5    0.40119      0.99970     1.57047    0.02864     2.59881
      O    6   -0.31896      0.99986     3.31206    0.00704     4.31896
      O    7   -0.33673      0.99987     3.32925    0.00760     4.33673
      O    8   -0.36372      0.99990     3.35720    0.00662     4.36372
      O    9   -0.38066      0.99990     3.37363    0.00713     4.38066
      O   10   -0.37831      0.99990     3.37147    0.00695     4.37831
      N   11   -0.24330      0.99970     2.72838    0.01522     3.74330
      N   12    0.14649      0.99971     2.33781    0.01599     3.35351
      N   13    0.00529      0.99982     2.48138    0.01352     3.49471
      H   14    0.09683      0.00000     0.40132    0.00185     0.40317
      H   15    0.09537      0.00000     0.40205    0.00258     0.40463
      H   16    0.09723      0.00000     0.40155    0.00122     0.40277
      H   17    0.09777      0.00000     0.40088    0.00135     0.40223
      H   18    0.11766      0.00000     0.38067    0.00167     0.38234
      H   19    0.24331      0.00000     0.24243    0.01425     0.25669
      H   20    0.23489      0.00000     0.26211    0.00301     0.26511
      H   21    0.24014      0.00000     0.25696    0.00290     0.25986
      H   22    0.24065      0.00000     0.25506    0.00430     0.25935
 =======================================================================
   * Total *   -0.00000     12.99648    36.80106    0.20246    50.00000

 Normal termination of Gaussian 16 at Thu Dec 10 00:19:47 2020.
