 Gaussian 16, Revision A.03,

 -----------------------------------------------------------
 # opt freq B3LYP/6-31G(d) empiricaldispersion=gd3bj scf=xqc
 -----------------------------------------------------------

 ------------------------------
 CID_21900747_JID_2947_neutraal
 ------------------------------
 Symbolic Z-matrix:
 Charge =  0 Multiplicity = 1

 SCF Done:  E(RB3LYP) =  -1289.78124244     A.U. after   14 cycles
 SCF Done:  E(RB3LYP) =  -1289.80235433     A.U. after   15 cycles
 SCF Done:  E(RB3LYP) =  -1289.80589548     A.U. after   15 cycles
 SCF Done:  E(RB3LYP) =  -1289.80689180     A.U. after   13 cycles
 SCF Done:  E(RB3LYP) =  -1289.80823103     A.U. after   13 cycles
 SCF Done:  E(RB3LYP) =  -1289.80893000     A.U. after   12 cycles
 SCF Done:  E(RB3LYP) =  -1289.80910292     A.U. after   13 cycles
 SCF Done:  E(RB3LYP) =  -1289.80920025     A.U. after   13 cycles
 SCF Done:  E(RB3LYP) =  -1289.80963686     A.U. after   12 cycles
 SCF Done:  E(RB3LYP) =  -1289.80985361     A.U. after   12 cycles
 SCF Done:  E(RB3LYP) =  -1289.81005560     A.U. after   10 cycles
 SCF Done:  E(RB3LYP) =  -1289.81005861     A.U. after    9 cycles
 SCF Done:  E(RB3LYP) =  -1289.81006122     A.U. after   10 cycles
 SCF Done:  E(RB3LYP) =  -1289.81006221     A.U. after   10 cycles
 SCF Done:  E(RB3LYP) =  -1289.81006255     A.U. after    8 cycles
 SCF Done:  E(RB3LYP) =  -1289.81006260     A.U. after    7 cycles
 Optimization completed.
    -- Stationary point found.
 Normal termination of Gaussian 16 at Wed Dec  9 17:49:30 2020.

 --------------------------------------------------------------------
 #N Geom=AllCheck Guess=TCheck SCRF=Check GenChk RB3LYP/6-31G(d) Freq
 --------------------------------------------------------------------

 Structure from the checkpoint file:  "JID_2947.chk"
 ------------------------------
 CID_21900747_JID_2947_neutraal
 ------------------------------
 Charge =  0 Multiplicity = 1

 SCF Done:  E(RB3LYP) =  -1289.81006260     A.U. after    1 cycles

  Exact polarizability: 128.686   0.914 111.523   3.937  -0.742  89.858
 Approx polarizability: 174.905  -4.250 188.859  15.212   0.191 160.300

                      1                      2                      3
                      A                      A                      A
 Frequencies --     20.5376                25.4008                45.0196
 Red. masses --      9.4667                12.1049                 5.1310
 Frc consts  --      0.0024                 0.0046                 0.0061
 IR Inten    --      0.4555                 0.1964                 0.5719

                      4                      5                      6
                      A                      A                      A
 Frequencies --     49.4307                84.3923               104.7409
 Red. masses --      7.9091                 9.6174                 9.2198
 Frc consts  --      0.0114                 0.0404                 0.0596
 IR Inten    --      0.6625                 3.1620                 0.5110

                      7                      8                      9
                      A                      A                      A
 Frequencies --    114.7563               127.7857               210.8819
 Red. masses --     10.1334                 7.4421                 4.3169
 Frc consts  --      0.0786                 0.0716                 0.1131
 IR Inten    --      2.5158                10.1359                 4.9304

                     10                     11                     12
                      A                      A                      A
 Frequencies --    234.9543               267.1009               306.2993
 Red. masses --      2.5030                 2.7842                 1.4587
 Frc consts  --      0.0814                 0.1170                 0.0806
 IR Inten    --      6.2106                10.2959                 0.6842

                     13                     14                     15
                      A                      A                      A
 Frequencies --    332.2408               368.1221               408.4388
 Red. masses --      1.9279                 6.0740                10.1700
 Frc consts  --      0.1254                 0.4850                 0.9996
 IR Inten    --      0.7642                 8.3663                 4.3344

                     16                     17                     18
                      A                      A                      A
 Frequencies --    456.8059               562.3116               572.4961
 Red. masses --      5.0895                12.4047                12.2868
 Frc consts  --      0.6257                 2.3110                 2.3726
 IR Inten    --      0.8201                47.3348                26.1374

                     19                     20                     21
                      A                      A                      A
 Frequencies --    619.4808               635.2071               640.2145
 Red. masses --      5.1197                11.5915                 7.7232
 Frc consts  --      1.1576                 2.7556                 1.8651
 IR Inten    --      5.1916                43.1166                 1.6547

                     22                     23                     24
                      A                      A                      A
 Frequencies --    668.2057               695.5072               708.0306
 Red. masses --      4.6459                 5.9770                 5.5225
 Frc consts  --      1.2222                 1.7035                 1.6311
 IR Inten    --      5.9435                13.3273                25.0025

                     25                     26                     27
                      A                      A                      A
 Frequencies --    886.2272               892.5174               928.3899
 Red. masses --      5.6073                 5.2143                 1.5998
 Frc consts  --      2.5947                 2.4472                 0.8124
 IR Inten    --     68.7787                63.7448                 0.4919

                     28                     29                     30
                      A                      A                      A
 Frequencies --    934.0294              1007.7597              1084.5206
 Red. masses --      1.5596                 1.6821                 1.3685
 Frc consts  --      0.8017                 1.0065                 0.9484
 IR Inten    --      1.3513                 3.7587                27.4254

                     31                     32                     33
                      A                      A                      A
 Frequencies --   1096.3931              1237.9647              1260.3259
 Red. masses --      2.5423                 1.1668                 1.0749
 Frc consts  --      1.8006                 1.0536                 1.0060
 IR Inten    --      1.2146                21.3872                22.9144

                     34                     35                     36
                      A                      A                      A
 Frequencies --   1277.6765              1320.8982              1332.1990
 Red. masses --      1.0706                 1.2244                 1.2401
 Frc consts  --      1.0297                 1.2587                 1.2967
 IR Inten    --     17.3537                 9.3501                76.4991

                     37                     38                     39
                      A                      A                      A
 Frequencies --   1343.9041              1434.4518              1485.3414
 Red. masses --      1.2406                 1.2218                 3.1288
 Frc consts  --      1.3202                 1.4813                 4.0670
 IR Inten    --     25.0352                 9.4539                16.7800

                     40                     41                     42
                      A                      A                      A
 Frequencies --   1490.9840              1518.1414              1520.3776
 Red. masses --      2.0963                 1.2832                 1.5142
 Frc consts  --      2.7457                 1.7425                 2.0622
 IR Inten    --     15.8162                 2.5091                 8.1589

                     43                     44                     45
                      A                      A                      A
 Frequencies --   1534.5089              1540.2742              2367.4163
 Red. masses --      1.1361                 1.0936                12.4530
 Frc consts  --      1.5762                 1.5287                41.1220
 IR Inten    --      3.4678                 2.0553              1081.8220

                     46                     47                     48
                      A                      A                      A
 Frequencies --   2374.5177              3061.7115              3075.4963
 Red. masses --     12.4396                 1.0351                 1.0660
 Frc consts  --     41.3244                 5.7169                 5.9407
 IR Inten    --    809.3485                11.0557                19.6982

                     49                     50                     51
                      A                      A                      A
 Frequencies --   3079.7572              3098.9544              3128.6788
 Red. masses --      1.0641                 1.0860                 1.1017
 Frc consts  --      5.9466                 6.1448                 6.3539
 IR Inten    --     17.7138                 1.7905                12.6710

                     52                     53                     54
                      A                      A                      A
 Frequencies --   3143.8582              3146.3575              3149.7881
 Red. masses --      1.1013                 1.1011                 1.1022
 Frc consts  --      6.4131                 6.4224                 6.4430
 IR Inten    --      7.1347                14.5861                 5.2094

 - Thermochemistry -
 -------------------
 Temperature   298.150 Kelvin.  Pressure   1.00000 Atm.
 Atom     1 has atomic number  6 and mass  12.00000

 Molecular mass:   204.00272 amu.
 Principal axes and moments of inertia in atomic units:
                           1         2         3
     Eigenvalues --  1489.194114577.491605206.84810
           X            0.99984   0.01768  -0.00196
           Y           -0.01762   0.99948   0.02702
           Z            0.00243  -0.02698   0.99963
 This molecule is an asymmetric top.
 Rotational symmetry number  1.
 Warning -- assumption of classical behavior for rotation
           may cause significant error
 Rotational temperatures (Kelvin)      0.05816     0.01892     0.01663
 Rotational constants (GHZ):           1.21189     0.39426     0.34661
 Zero-point vibrational energy     376894.2 (Joules/Mol)
                                   90.07987 (Kcal/Mol)
 Warning -- explicit consideration of  19 degrees of freedom as
           vibrations may cause significant error
 Vibrational temperatures:     29.55    36.55    64.77    71.12   121.42
          (Kelvin)            150.70   165.11   183.86   303.41   338.05
                              384.30   440.70   478.02   529.65   587.65
                              657.24   809.04   823.69   891.29   913.92
                              921.13   961.40  1000.68  1018.70  1275.08
                             1284.13  1335.75  1343.86  1449.94  1560.38
                             1577.47  1781.16  1813.33  1838.29  1900.48
                             1916.74  1933.58  2063.86  2137.07  2145.19
                             2184.27  2187.48  2207.82  2216.11  3406.18
                             3416.40  4405.12  4424.95  4431.08  4458.70
                             4501.47  4523.31  4526.91  4531.84

 Zero-point correction=                           0.143551 (Hartree/Particle)
 Thermal correction to Energy=                    0.157478
 Thermal correction to Enthalpy=                  0.158422
 Thermal correction to Gibbs Free Energy=         0.099125
 Sum of electronic and zero-point Energies=          -1289.666511
 Sum of electronic and thermal Energies=             -1289.652584
 Sum of electronic and thermal Enthalpies=           -1289.651640
 Sum of electronic and thermal Free Energies=        -1289.710938

                     E (Thermal)             CV                S
                      KCal/Mol        Cal/Mol-Kelvin    Cal/Mol-Kelvin
 Total                   98.819             46.583            124.803
 Electronic               0.000              0.000              0.000
 Translational            0.889              2.981             41.843
 Rotational               0.889              2.981             31.940
 Vibrational             97.042             40.621             51.019
 Vibration     1          0.593              1.986              6.582
 Vibration     2          0.593              1.985              6.160
 Vibration     3          0.595              1.979              5.025
 Vibration     4          0.595              1.978              4.840
 Vibration     5          0.601              1.960              3.786
 Vibration     6          0.605              1.945              3.364
 Vibration     7          0.608              1.937              3.187
 Vibration     8          0.611              1.925              2.979
 Vibration     9          0.643              1.824              2.036
 Vibration    10          0.655              1.787              1.841
 Vibration    11          0.672              1.734              1.615
 Vibration    12          0.697              1.662              1.382
 Vibration    13          0.714              1.611              1.249
 Vibration    14          0.741              1.538              1.088
 Vibration    15          0.773              1.452              0.932
 Vibration    16          0.815              1.346              0.775
 Vibration    17          0.918              1.113              0.519
 Vibration    18          0.929              1.091              0.499
 Vibration    19          0.979              0.991              0.417

                           ! Non-Optimized Parameters !
 Normal termination of Gaussian 16 at Wed Dec  9 17:53:18 2020.

 ----------------------------------------------------------------------
 # B3LYP/6-311++G(d,p) empiricaldispersion=gd3bj scf=xqc pop=npa geom=c
 heck
 ----------------------------------------------------------------------

 --------------------------------------
 CID_21900747_JID_2947_Energie_neutraal
 --------------------------------------
 Structure from the checkpoint file:  "JID_2947.chk"
 Charge =  0 Multiplicity = 1

 SCF Done:  E(RB3LYP) =  -1290.01422095     A.U. after   14 cycles
 Normal termination of Gaussian 16 at Wed Dec  9 17:56:14 2020.

 ----------------------------------------------------------------------
 # B3LYP/6-311++G(d,p) empiricaldispersion=gd3bj scf=xqc pop=npa geom=c
 heck
 ----------------------------------------------------------------------

 ------------------------------------
 CID_21900747_JID_2947_Energie_kation
 ------------------------------------
 Structure from the checkpoint file:  "JID_2947.chk"
 Charge =  1 Multiplicity = 2

 SCF Done:  E(UB3LYP) =  -1289.68986705     A.U. after   22 cycles
 Normal termination of Gaussian 16 at Wed Dec  9 18:00:57 2020.
 Gaussian 16:  ES64L-G16RevA.03 25-Dec-2016

 ----------------------------------------------------------------------
 # B3LYP/6-311++G(d,p) empiricaldispersion=gd3bj scf=xqc pop=npa geom=c
 heck
 ----------------------------------------------------------------------

 -----------------------------------
 CID_21900747_JID_2947_Energie_anion
 -----------------------------------
 Structure from the checkpoint file:  "JID_2947.chk"
 Charge = -1 Multiplicity = 2

                         Standard orientation:
 ---------------------------------------------------------------------
 Center     Atomic      Atomic             Coordinates (Angstroms)
 Number     Number       Type             X           Y           Z
 ---------------------------------------------------------------------
      1          6           0        0.024387   -1.179273   -1.662600
      2          6           0        0.187312   -0.923494   -0.170041
      3         16           0        0.440014    0.857842    0.267163
      4          6           0        1.852593    1.286535   -0.827924
      5          7           0        3.021730    0.465903   -0.659427
      6          6           0        3.673901    0.062252    0.279171
      7          8           0        4.388921   -0.408273    1.087012
      8         16           0       -1.199855   -1.543924    0.867441
      9          6           0       -2.673070   -1.180063   -0.170954
     10          7           0       -2.938028    0.196706   -0.463142
     11          6           0       -2.890723    1.251136    0.132214
     12          8           0       -2.893936    2.338511    0.579310
     13          1           0       -0.775833   -0.566492   -2.086696
     14          1           0       -0.196372   -2.237117   -1.841601
     15          1           0        0.955718   -0.943866   -2.186631
     16          1           0        1.049701   -1.480054    0.206274
     17          1           0        1.548649    1.226959   -1.873570
     18          1           0        2.075843    2.334377   -0.600097
     19          1           0       -2.590876   -1.716954   -1.116641
     20          1           0       -3.501577   -1.622264    0.393510
 ---------------------------------------------------------------------

 SCF Done:  E(UB3LYP) =  -1290.00912696     A.U. after   29 cycles

 The electronic state is 2-A.
 Alpha  occ. eigenvalues --  -88.75409 -88.74845 -19.07519 -19.06664 -14.24527
 Alpha  occ. eigenvalues --  -14.23758 -10.20970 -10.20237 -10.15282 -10.15016
 Alpha  occ. eigenvalues --  -10.14098 -10.07276  -7.84012  -7.83472  -5.80415
 Alpha  occ. eigenvalues --   -5.80037  -5.79886  -5.79505  -5.79378  -5.78802
 Alpha  occ. eigenvalues --   -1.01160  -1.00321  -0.86460  -0.85829  -0.73912
 Alpha  occ. eigenvalues --   -0.68604  -0.65443  -0.59741  -0.57448  -0.49303
 Alpha  occ. eigenvalues --   -0.43885  -0.42977  -0.41000  -0.40412  -0.39595
 Alpha  occ. eigenvalues --   -0.39157  -0.37763  -0.36325  -0.35272  -0.34692
 Alpha  occ. eigenvalues --   -0.33228  -0.32673  -0.31394  -0.29639  -0.27831
 Alpha  occ. eigenvalues --   -0.24891  -0.23662  -0.20260  -0.19657  -0.19123
 Alpha  occ. eigenvalues --   -0.18602  -0.14532  -0.13921   0.04065
 Alpha virt. eigenvalues --    0.05879   0.07897   0.08358   0.08969   0.09371
 Alpha virt. eigenvalues --    0.09443   0.10413   0.10868   0.11861   0.12040
 Alpha virt. eigenvalues --    0.12918   0.13264   0.13547   0.14059   0.14236

  Beta  occ. eigenvalues --  -88.75399 -88.74837 -19.07472 -19.06625 -14.24533
  Beta  occ. eigenvalues --  -14.23769 -10.20907 -10.20177 -10.15212 -10.14900
  Beta  occ. eigenvalues --  -10.14089 -10.07213  -7.84002  -7.83464  -5.80395
  Beta  occ. eigenvalues --   -5.80019  -5.79865  -5.79495  -5.79372  -5.78798
  Beta  occ. eigenvalues --   -1.01057  -1.00238  -0.86385  -0.85766  -0.73840
  Beta  occ. eigenvalues --   -0.68490  -0.65319  -0.59631  -0.57352  -0.49243
  Beta  occ. eigenvalues --   -0.43778  -0.42871  -0.40919  -0.40335  -0.39453
  Beta  occ. eigenvalues --   -0.39024  -0.37685  -0.36215  -0.35168  -0.34527
  Beta  occ. eigenvalues --   -0.33095  -0.32569  -0.31316  -0.29537  -0.27756
  Beta  occ. eigenvalues --   -0.24828  -0.23599  -0.20158  -0.19565  -0.19068
  Beta  occ. eigenvalues --   -0.18561  -0.14486  -0.13886
  Beta virt. eigenvalues --    0.06611   0.06978   0.08458   0.08938   0.09406
  Beta virt. eigenvalues --    0.09861   0.10276   0.10643   0.11224   0.12023
  Beta virt. eigenvalues --    0.12367   0.13109   0.13546   0.13835   0.14264

 Mulliken charges and spin densities:
               1          2
     1  C    1.301813  -2.238239
     2  C   -0.959256   1.279461
     3  S   -0.266758   0.296120
     4  C    0.813853  -1.420507
     5  N   -0.211215   0.158297
     6  C    0.186068   0.121691
     7  O   -0.274006  -0.007690
     8  S   -0.133190   0.149976
     9  C    0.708282  -1.291357
    10  N   -0.170434   0.113969
    11  C    0.292339  -0.011997
    12  O   -0.268306   0.004332
    13  H   -0.174926   0.381213
    14  H   -0.243071   0.405181
    15  H   -0.115282   0.278010
    16  H    0.252662   0.068721
    17  H   -0.346034   0.595514
    18  H   -0.275032   0.511973
    19  H   -0.453258   0.683926
    20  H   -0.664250   0.921407
 Sum of Mulliken charges =  -1.00000   1.00000

 Dipole moment (field-independent basis, Debye):
    X=              1.6122    Y=              0.6327    Z=              2.3191  Tot=              2.8945
 Quadrupole moment (field-independent basis, Debye-Ang):
   XX=           -150.2694   YY=           -121.8566   ZZ=           -119.8095
   XY=             -6.2312   XZ=             -1.8085   YZ=             -3.3454

 Summary of Natural Population Analysis:

                                       Natural Population
                Natural  -----------------------------------------------
    Atom  No    Charge         Core      Valence    Rydberg      Total
 -----------------------------------------------------------------------
      C    1   -0.30258      0.99961     2.29442    0.00855     3.30258
      C    2   -0.24027      0.99960     2.22567    0.01500     3.24027
      S    3    0.10424      4.99959     2.87720    0.01897     7.89576
      C    4   -0.16134      0.99957     2.14594    0.01583     3.16134
      N    5   -0.28903      0.99952     2.77864    0.01087     3.78903
      C    6    0.43567      0.99957     1.54691    0.01785     2.56433
      O    7   -0.26107      0.99987     3.25369    0.00751     4.26107
      S    8    0.11171      4.99958     2.87089    0.01782     7.88829
      C    9   -0.15611      0.99956     2.13980    0.01676     3.15611
      N   10   -0.29085      0.99951     2.77997    0.01137     3.79085
      C   11    0.43973      0.99957     1.54250    0.01821     2.56027
      O   12   -0.25776      0.99987     3.25042    0.00747     4.25776
      H   13    0.10812      0.00000     0.38996    0.00192     0.39188
      H   14    0.10827      0.00000     0.39014    0.00159     0.39173
      H   15    0.10997      0.00000     0.38823    0.00180     0.39003
      H   16    0.10703      0.00000     0.39120    0.00177     0.39297
      H   17    0.10679      0.00000     0.39075    0.00246     0.39321
      H   18    0.10876      0.00000     0.38945    0.00179     0.39124
      H   19    0.10842      0.00000     0.38845    0.00312     0.39158
      H   20    0.11030      0.00000     0.38686    0.00284     0.38970
 =======================================================================
   * Total *   -0.00000     19.99541    32.82109    0.18349    53.00000

 Normal termination of Gaussian 16 at Wed Dec  9 18:05:50 2020.
