 Gaussian 16, Revision A.03,

 -----------------------------------------------------------
 # opt freq B3LYP/6-31G(d) empiricaldispersion=gd3bj scf=xqc
 -----------------------------------------------------------

 -----------------------------
 CID_390043_JID_10667_neutraal
 -----------------------------
 Symbolic Z-matrix:
 Charge =  0 Multiplicity = 1

 SCF Done:  E(RB3LYP) =  -935.061800026     A.U. after   15 cycles
 SCF Done:  E(RB3LYP) =  -935.072739924     A.U. after   13 cycles
 SCF Done:  E(RB3LYP) =  -935.075075348     A.U. after   12 cycles
 SCF Done:  E(RB3LYP) =  -935.075051063     A.U. after   13 cycles
 SCF Done:  E(RB3LYP) =  -935.076629840     A.U. after   13 cycles
 SCF Done:  E(RB3LYP) =  -935.077285166     A.U. after   12 cycles
 SCF Done:  E(RB3LYP) =  -935.077684960     A.U. after   12 cycles
 SCF Done:  E(RB3LYP) =  -935.077835553     A.U. after   12 cycles
 SCF Done:  E(RB3LYP) =  -935.077881363     A.U. after   10 cycles
 SCF Done:  E(RB3LYP) =  -935.077936325     A.U. after   11 cycles
 SCF Done:  E(RB3LYP) =  -935.078044454     A.U. after   11 cycles
 SCF Done:  E(RB3LYP) =  -935.078038617     A.U. after   11 cycles
 SCF Done:  E(RB3LYP) =  -935.078054205     A.U. after   10 cycles
 SCF Done:  E(RB3LYP) =  -935.078054937     A.U. after    9 cycles
 SCF Done:  E(RB3LYP) =  -935.078054917     A.U. after    9 cycles
 SCF Done:  E(RB3LYP) =  -935.078055112     A.U. after    8 cycles
 Optimization completed.
    -- Stationary point found.
 Normal termination of Gaussian 16 at Sat Dec 12 16:49:59 2020.

 --------------------------------------------------------------------
 #N Geom=AllCheck Guess=TCheck SCRF=Check GenChk RB3LYP/6-31G(d) Freq
 --------------------------------------------------------------------

 Structure from the checkpoint file:  "JID_10667.chk"
 -----------------------------
 CID_390043_JID_10667_neutraal
 -----------------------------
 Charge =  0 Multiplicity = 1

 SCF Done:  E(RB3LYP) =  -935.078055112     A.U. after    1 cycles

  Exact polarizability: 258.262  24.916 193.551 -14.784  12.294  88.088
 Approx polarizability: 360.833  60.675 344.054 -28.783  23.255 141.101

                      1                      2                      3
                      A                      A                      A
 Frequencies --     21.3524                25.4516                46.4296
 Red. masses --      5.6365                 5.6028                 4.7718
 Frc consts  --      0.0015                 0.0021                 0.0061
 IR Inten    --      0.1926                 0.0963                 0.9510

                      4                      5                      6
                      A                      A                      A
 Frequencies --     57.4743                65.3893                80.0741
 Red. masses --      5.8036                 2.8434                 4.3487
 Frc consts  --      0.0113                 0.0072                 0.0164
 IR Inten    --      1.7640                 4.6881                 2.5130

                      7                      8                      9
                      A                      A                      A
 Frequencies --     89.5859               124.6781               157.2262
 Red. masses --      5.6939                 5.3228                 5.8855
 Frc consts  --      0.0269                 0.0487                 0.0857
 IR Inten    --      2.0820                 2.8293                 6.7097

                     10                     11                     12
                      A                      A                      A
 Frequencies --    170.9157               215.2442               239.7686
 Red. masses --      4.2389                 4.3424                 4.9469
 Frc consts  --      0.0730                 0.1185                 0.1676
 IR Inten    --      1.5665                 1.0252                 0.2300

                     13                     14                     15
                      A                      A                      A
 Frequencies --    264.4578               315.3798               344.7768
 Red. masses --      6.1235                 6.8231                 2.2201
 Frc consts  --      0.2523                 0.3999                 0.1555
 IR Inten    --      2.0109                 1.7737                 1.8318

                     16                     17                     18
                      A                      A                      A
 Frequencies --    367.4010               379.1432               426.1331
 Red. masses --      5.7341                 3.8212                 2.9543
 Frc consts  --      0.4560                 0.3236                 0.3161
 IR Inten    --      7.5566                 0.3077                 2.3576

                     19                     20                     21
                      A                      A                      A
 Frequencies --    451.3541               520.2631               537.9328
 Red. masses --      4.9790                 3.8645                 4.6917
 Frc consts  --      0.5976                 0.6163                 0.7999
 IR Inten    --      7.2664                25.0650                22.6861

                     22                     23                     24
                      A                      A                      A
 Frequencies --    579.3438               606.0190               614.2255
 Red. masses --      1.9329                 4.4336                 3.4835
 Frc consts  --      0.3822                 0.9594                 0.7743
 IR Inten    --     33.1775                 0.4169                 7.7500

                     25                     26                     27
                      A                      A                      A
 Frequencies --    629.1774               638.5827               669.8340
 Red. masses --      2.9876                 5.2192                 3.6902
 Frc consts  --      0.6968                 1.2540                 0.9755
 IR Inten    --     35.7134                 3.6643                17.1721

                     28                     29                     30
                      A                      A                      A
 Frequencies --    708.7427               729.8321               737.9872
 Red. masses --      5.0537                 5.0486                 1.4189
 Frc consts  --      1.4957                 1.5844                 0.4553
 IR Inten    --      5.6299                 7.4720                31.3391

                     31                     32                     33
                      A                      A                      A
 Frequencies --    741.8366               760.4336               807.5869
 Red. masses --      6.2380                 3.8798                 4.3804
 Frc consts  --      2.0226                 1.3219                 1.6832
 IR Inten    --      3.2339                26.7219                13.6177

                     34                     35                     36
                      A                      A                      A
 Frequencies --    816.1649               825.3514               840.3419
 Red. masses --      1.4602                 1.3959                 6.0532
 Frc consts  --      0.5731                 0.5603                 2.5185
 IR Inten    --     43.8265                12.1818                11.2414

                     37                     38                     39
                      A                      A                      A
 Frequencies --    860.6649               868.2980               873.3524
 Red. masses --      1.7358                 1.3568                 1.6978
 Frc consts  --      0.7576                 0.6027                 0.7630
 IR Inten    --      2.8147                 7.3798                19.4616

                     40                     41                     42
                      A                      A                      A
 Frequencies --    891.5091               908.8884               929.4473
 Red. masses --      2.6536                 6.1865                 1.2906
 Frc consts  --      1.2426                 3.0111                 0.6569
 IR Inten    --     24.0535                 4.9723                 1.9009

                     43                     44                     45
                      A                      A                      A
 Frequencies --    946.5717               964.4403               979.0102
 Red. masses --      3.3903                 3.4963                 6.0034
 Frc consts  --      1.7898                 1.9161                 3.3902
 IR Inten    --      6.5245                31.8797                20.6882

                     46                     47                     48
                      A                      A                      A
 Frequencies --    988.8801              1036.6251              1044.6492
 Red. masses --      2.2717                 1.1415                 1.3639
 Frc consts  --      1.3088                 0.7227                 0.8769
 IR Inten    --      9.0123                58.3340                25.2293

                     49                     50                     51
                      A                      A                      A
 Frequencies --   1075.8250              1110.6830              1132.4223
 Red. masses --      4.5277                 2.5737                 2.6639
 Frc consts  --      3.0875                 1.8706                 2.0127
 IR Inten    --    138.4117                18.0568                24.1139

                     52                     53                     54
                      A                      A                      A
 Frequencies --   1137.6276              1151.3670              1161.7471
 Red. masses --      3.7766                 1.4956                 1.6911
 Frc consts  --      2.8798                 1.1681                 1.3448
 IR Inten    --     12.9928                 8.8520                10.6414

                     55                     56                     57
                      A                      A                      A
 Frequencies --   1185.1702              1210.0813              1233.2810
 Red. masses --      1.8255                 1.0669                 1.9988
 Frc consts  --      1.5108                 0.9205                 1.7912
 IR Inten    --     20.0462                 0.5847                30.2531

                     58                     59                     60
                      A                      A                      A
 Frequencies --   1237.9405              1262.4778              1283.6989
 Red. masses --      2.0233                 2.1700                 1.4184
 Frc consts  --      1.8268                 2.0377                 1.3771
 IR Inten    --    120.5723                 9.8817                33.0328

                     61                     62                     63
                      A                      A                      A
 Frequencies --   1304.5158              1308.3255              1314.2940
 Red. masses --      2.0371                 2.1251                 1.7221
 Frc consts  --      2.0425                 2.1432                 1.7526
 IR Inten    --    286.1070               134.8548                81.2271

                     64                     65                     66
                      A                      A                      A
 Frequencies --   1362.9649              1371.3976              1411.0804
 Red. masses --      1.9929                 1.6108                 1.8670
 Frc consts  --      2.1812                 1.7849                 2.1903
 IR Inten    --    188.4565                 3.0721                29.0275

                     67                     68                     69
                      A                      A                      A
 Frequencies --   1425.2128              1435.0220              1450.4948
 Red. masses --      2.2932                 2.6838                 1.3856
 Frc consts  --      2.7444                 3.2562                 1.7176
 IR Inten    --     52.3774                 2.9042                 1.2348

                     70                     71                     72
                      A                      A                      A
 Frequencies --   1482.3951              1499.0122              1502.4963
 Red. masses --      1.4555                 1.3358                 2.9415
 Frc consts  --      1.8845                 1.7684                 3.9125
 IR Inten    --     38.4406               124.1600                93.0798

                     73                     74                     75
                      A                      A                      A
 Frequencies --   1543.9430              1553.2546              1575.3590
 Red. masses --      2.9991                 4.5797                 1.1604
 Frc consts  --      4.2121                 6.5098                 1.6968
 IR Inten    --    261.7680                 9.9930                 0.6324

                     76                     77                     78
                      A                      A                      A
 Frequencies --   1649.6955              1660.1381              1677.7644
 Red. masses --      6.1509                 7.0386                 7.4477
 Frc consts  --      9.8627                11.4294                12.3518
 IR Inten    --      1.2339                17.6697                13.9018

                     79                     80                     81
                      A                      A                      A
 Frequencies --   1700.4664              1766.1190              3042.1607
 Red. masses --      5.6981                 7.5893                 1.0643
 Frc consts  --      9.7077                13.9473                 5.8035
 IR Inten    --     51.3707               433.3789               171.8100

                     82                     83                     84
                      A                      A                      A
 Frequencies --   3042.5450              3119.1112              3146.0368
 Red. masses --      1.0703                 1.1087                 1.0926
 Frc consts  --      5.8377                 6.3550                 6.3712
 IR Inten    --     15.4968                52.2378                 3.4141

                     85                     86                     87
                      A                      A                      A
 Frequencies --   3189.3065              3199.7261              3204.4795
 Red. masses --      1.0902                 1.0895                 1.0872
 Frc consts  --      6.5335                 6.5722                 6.5775
 IR Inten    --      1.4152                 4.3833                10.6205

                     88                     89                     90
                      A                      A                      A
 Frequencies --   3231.1570              3235.5258              3263.1651
 Red. masses --      1.0937                 1.0910                 1.0924
 Frc consts  --      6.7274                 6.7294                 6.8537
 IR Inten    --      6.8790                 2.2805                 4.6404

                     91                     92                     93
                      A                      A                      A
 Frequencies --   3275.0241              3304.7272              3594.4718
 Red. masses --      1.0962                 1.1047                 1.0758
 Frc consts  --      6.9276                 7.1084                 8.1892
 IR Inten    --      0.8521                 1.3646                29.9194

 - Thermochemistry -
 -------------------
 Temperature   298.150 Kelvin.  Pressure   1.00000 Atm.
 Atom     1 has atomic number  6 and mass  12.00000

 Molecular mass:   271.08446 amu.
 Principal axes and moments of inertia in atomic units:
                           1         2         3
     Eigenvalues --  3048.23330********************
           X            0.99999  -0.00515   0.00115
           Y            0.00514   0.99992   0.01148
           Z           -0.00120  -0.01147   0.99993
 This molecule is an asymmetric top.
 Rotational symmetry number  1.
 Warning -- assumption of classical behavior for rotation
           may cause significant error
 Rotational temperatures (Kelvin)      0.02841     0.00789     0.00638
 Rotational constants (GHZ):           0.59206     0.16446     0.13294
 Zero-point vibrational energy     675423.2 (Joules/Mol)
                                  161.43001 (Kcal/Mol)
 Warning -- explicit consideration of  24 degrees of freedom as
           vibrations may cause significant error
 Vibrational temperatures:     30.72    36.62    66.80    82.69    94.08
          (Kelvin)            115.21   128.89   179.38   226.21   245.91
                              309.69   344.97   380.50   453.76   496.06
                              528.61   545.50   613.11   649.40   748.54
                              773.97   833.55   871.93   883.73   905.25
                              918.78   963.74  1019.72  1050.07  1061.80
                             1067.34  1094.09  1161.94  1174.28  1187.50
                             1209.06  1238.30  1249.29  1256.56  1282.68
                             1307.69  1337.27  1361.91  1387.61  1408.58
                             1422.78  1491.47  1503.02  1547.87  1598.03
                             1629.30  1636.79  1656.56  1671.49  1705.20
                             1741.04  1774.42  1781.12  1816.42  1846.96
                             1876.91  1882.39  1890.98  1961.00  1973.14
                             2030.23  2050.56  2064.68  2086.94  2132.84
                             2156.74  2161.76  2221.39  2234.79  2266.59
                             2373.54  2388.57  2413.93  2446.59  2541.05
                             4376.99  4377.54  4487.71  4526.45  4588.70
                             4603.69  4610.53  4648.91  4655.20  4694.97
                             4712.03  4754.77  5171.64

 Zero-point correction=                           0.257255 (Hartree/Particle)
 Thermal correction to Energy=                    0.274272
 Thermal correction to Enthalpy=                  0.275216
 Thermal correction to Gibbs Free Energy=         0.209166
 Sum of electronic and zero-point Energies=           -934.820800
 Sum of electronic and thermal Energies=              -934.803783
 Sum of electronic and thermal Enthalpies=            -934.802839
 Sum of electronic and thermal Free Energies=         -934.868889

                     E (Thermal)             CV                S
                      KCal/Mol        Cal/Mol-Kelvin    Cal/Mol-Kelvin
 Total                  172.108             64.136            139.013
 Electronic               0.000              0.000              0.000
 Translational            0.889              2.981             42.691
 Rotational               0.889              2.981             34.473
 Vibrational            170.331             58.174             61.850
 Vibration     1          0.593              1.985              6.504
 Vibration     2          0.593              1.985              6.156
 Vibration     3          0.595              1.979              4.964
 Vibration     4          0.596              1.975              4.542
 Vibration     5          0.597              1.971              4.288
 Vibration     6          0.600              1.963              3.889
 Vibration     7          0.602              1.957              3.669
 Vibration     8          0.610              1.928              3.027
 Vibration     9          0.621              1.895              2.583
 Vibration    10          0.626              1.878              2.425
 Vibration    11          0.645              1.818              1.999
 Vibration    12          0.657              1.780              1.805
 Vibration    13          0.671              1.738              1.632
 Vibration    14          0.703              1.644              1.334
 Vibration    15          0.723              1.586              1.190
 Vibration    16          0.740              1.539              1.091
 Vibration    17          0.749              1.515              1.043
 Vibration    18          0.788              1.413              0.871
 Vibration    19          0.810              1.358              0.792
 Vibration    20          0.875              1.205              0.609
 Vibration    21          0.893              1.166              0.570
 Vibration    22          0.936              1.076              0.487
 Vibration    23          0.965              1.019              0.439
 Vibration    24          0.974              1.002              0.426

                           ! Non-Optimized Parameters !
 Normal termination of Gaussian 16 at Sat Dec 12 17:06:05 2020.

 ----------------------------------------------------------------------
 # B3LYP/6-311++G(d,p) empiricaldispersion=gd3bj scf=xqc pop=npa geom=c
 heck
 ----------------------------------------------------------------------

 -------------------------------------
 CID_390043_JID_10667_Energie_neutraal
 -------------------------------------
 Structure from the checkpoint file:  "JID_10667.chk"
 Charge =  0 Multiplicity = 1

 SCF Done:  E(RB3LYP) =  -935.337288252     A.U. after   17 cycles
 Normal termination of Gaussian 16 at Sat Dec 12 17:13:43 2020.

 ----------------------------------------------------------------------
 # B3LYP/6-311++G(d,p) empiricaldispersion=gd3bj scf=xqc pop=npa geom=c
 heck
 ----------------------------------------------------------------------

 -----------------------------------
 CID_390043_JID_10667_Energie_kation
 -----------------------------------
 Structure from the checkpoint file:  "JID_10667.chk"
 Charge =  1 Multiplicity = 2

 SCF Done:  E(UB3LYP) =  -935.057971046     A.U. after   25 cycles
 Normal termination of Gaussian 16 at Sat Dec 12 17:29:46 2020.
 Gaussian 16:  ES64L-G16RevA.03 25-Dec-2016

 ----------------------------------------------------------------------
 # B3LYP/6-311++G(d,p) empiricaldispersion=gd3bj scf=xqc pop=npa geom=c
 heck
 ----------------------------------------------------------------------

 ----------------------------------
 CID_390043_JID_10667_Energie_anion
 ----------------------------------
 Structure from the checkpoint file:  "JID_10667.chk"
 Charge = -1 Multiplicity = 2

                         Standard orientation:
 ---------------------------------------------------------------------
 Center     Atomic      Atomic             Coordinates (Angstroms)
 Number     Number       Type             X           Y           Z
 ---------------------------------------------------------------------
      1          6           0       -5.622377   -0.096274    0.238763
      2          8           0       -4.917434   -1.314071   -0.039923
      3          6           0       -3.599733   -0.962109   -0.170801
      4          6           0       -3.437848    0.388614    0.148526
      5          8           0       -4.654147    0.926341    0.493547
      6          6           0       -2.212342    1.008480    0.122090
      7          6           0       -1.091433    0.222790   -0.250714
      8          6           0       -1.270656   -1.133539   -0.568075
      9          6           0       -2.529599   -1.753603   -0.533371
     10          6           0        0.262528    0.768954   -0.306948
     11          6           0        0.651643    2.033889   -0.064465
     12          6           0        2.042269    2.520319   -0.260103
     13          8           0        2.258521    3.619461   -0.761089
     14          7           0        3.085970    1.685320    0.089212
     15          6           0        3.082070    0.637376    1.109581
     16          6           0        3.268700   -0.744754    0.575478
     17          6           0        2.503421   -1.874405    0.601197
     18          6           0        3.250743   -2.892870   -0.081907
     19          6           0        4.414393   -2.306482   -0.472530
     20          8           0        4.445201   -0.999592   -0.076601
     21          1           0       -6.247850   -0.235081    1.124884
     22          1           0       -6.228667    0.180266   -0.633832
     23          1           0       -2.115022    2.056798    0.377599
     24          1           0       -0.402701   -1.719275   -0.856236
     25          1           0       -2.659164   -2.801340   -0.779480
     26          1           0        1.025180    0.048946   -0.592090
     27          1           0       -0.060662    2.825098    0.150378
     28          1           0        3.985677    2.096160   -0.128519
     29          1           0        3.877000    0.862372    1.832855
     30          1           0        2.134340    0.671762    1.649433
     31          1           0        1.524325   -1.968212    1.050359
     32          1           0        2.955548   -3.917976   -0.255465
     33          1           0        5.282398   -2.652179   -1.012171
 ---------------------------------------------------------------------

 SCF Done:  E(UB3LYP) =  -935.349368704     A.U. after   31 cycles

 The electronic state is 2-A.
 Alpha  occ. eigenvalues --  -19.09956 -19.05547 -19.05069 -18.93489 -14.20212
 Alpha  occ. eigenvalues --  -10.18948 -10.13574 -10.13276 -10.11768 -10.11282
 Alpha  occ. eigenvalues --  -10.10482 -10.09159 -10.08814 -10.07879 -10.04933
 Alpha  occ. eigenvalues --  -10.03854 -10.03734 -10.03478 -10.01306 -10.00418
 Alpha  occ. eigenvalues --   -1.02343  -1.01609  -0.92524  -0.88918  -0.79221
 Alpha  occ. eigenvalues --   -0.73226  -0.71352  -0.67667  -0.65940  -0.63138
 Alpha  occ. eigenvalues --   -0.60930  -0.58762  -0.56028  -0.51629  -0.51030
 Alpha  occ. eigenvalues --   -0.49857  -0.47124  -0.46452  -0.44342  -0.42683
 Alpha  occ. eigenvalues --   -0.41651  -0.40192  -0.39485  -0.38997  -0.37068
 Alpha  occ. eigenvalues --   -0.36018  -0.34645  -0.33739  -0.32582  -0.31913
 Alpha  occ. eigenvalues --   -0.31588  -0.30488  -0.29602  -0.28709  -0.28148
 Alpha  occ. eigenvalues --   -0.27975  -0.27400  -0.26818  -0.26001  -0.25754
 Alpha  occ. eigenvalues --   -0.24395  -0.22287  -0.21425  -0.20961  -0.19394
 Alpha  occ. eigenvalues --   -0.14960  -0.14089  -0.13164  -0.11731  -0.11071
 Alpha  occ. eigenvalues --   -0.07789   0.04193
 Alpha virt. eigenvalues --    0.06552   0.07344   0.07940   0.08306   0.08787
 Alpha virt. eigenvalues --    0.09950   0.10042   0.10847   0.11080   0.11602
 Alpha virt. eigenvalues --    0.11841   0.12380   0.12598   0.13253   0.13805

  Beta  occ. eigenvalues --  -19.09953 -19.05567 -19.04986 -18.93274 -14.20188
  Beta  occ. eigenvalues --  -10.18948 -10.13573 -10.13277 -10.11668 -10.11276
  Beta  occ. eigenvalues --  -10.10584 -10.08841 -10.08811 -10.07880 -10.04975
  Beta  occ. eigenvalues --  -10.03762 -10.03665 -10.03247 -10.01019 -10.00177
  Beta  occ. eigenvalues --   -1.02337  -1.01533  -0.92440  -0.88572  -0.79088
  Beta  occ. eigenvalues --   -0.72956  -0.71347  -0.67637  -0.65483  -0.62922
  Beta  occ. eigenvalues --   -0.60491  -0.58709  -0.55766  -0.51608  -0.50555
  Beta  occ. eigenvalues --   -0.49700  -0.47036  -0.46267  -0.44303  -0.42366
  Beta  occ. eigenvalues --   -0.41539  -0.40121  -0.39292  -0.38952  -0.36943
  Beta  occ. eigenvalues --   -0.35971  -0.34614  -0.33530  -0.32526  -0.31784
  Beta  occ. eigenvalues --   -0.31516  -0.30358  -0.29545  -0.28559  -0.27928
  Beta  occ. eigenvalues --   -0.27635  -0.27229  -0.26561  -0.25795  -0.25316
  Beta  occ. eigenvalues --   -0.23888  -0.22118  -0.21192  -0.20169  -0.19357
  Beta  occ. eigenvalues --   -0.14195  -0.13602  -0.12706  -0.11078  -0.10370
  Beta  occ. eigenvalues --   -0.06368
  Beta virt. eigenvalues --    0.06453   0.07304   0.07890   0.08242   0.08666
  Beta virt. eigenvalues --    0.09771   0.09908   0.09993   0.10778   0.11036
  Beta virt. eigenvalues --    0.11675   0.12155   0.12298   0.12602   0.13272

 Mulliken charges and spin densities:
               1          2
     1  C    0.044169  -0.015385
     2  O   -0.185053   0.015354
     3  C    0.006662   0.146547
     4  C   -0.216720  -0.069035
     5  O   -0.162420  -0.002490
     6  C   -1.186527   0.240460
     7  C    1.060354  -0.058425
     8  C   -0.205385   0.077418
     9  C   -0.428751   0.027135
    10  C    0.292426   0.113759
    11  C   -0.263525   0.316468
    12  C   -0.199938   0.108639
    13  O   -0.395686   0.072743
    14  N   -0.183550   0.010285
    15  C   -0.655927  -0.423727
    16  C   -0.325703   0.075867
    17  C    0.593781   0.257820
    18  C   -0.507131  -0.198232
    19  C    0.097837   0.096116
    20  O    0.005651   0.001094
    21  H    0.145915   0.003264
    22  H    0.143148   0.007351
    23  H    0.123669  -0.010268
    24  H    0.101541  -0.017143
    25  H    0.130983   0.015023
    26  H    0.077149  -0.013835
    27  H    0.168737  -0.007676
    28  H    0.272241   0.011457
    29  H    0.117798   0.039648
    30  H    0.161564   0.035628
    31  H    0.161917   0.042653
    32  H    0.094376   0.054161
    33  H    0.116397   0.047323
 Sum of Mulliken charges =  -1.00000   1.00000

 Dipole moment (field-independent basis, Debye):
    X=             -0.1544    Y=             -6.6572    Z=              2.1166  Tot=              6.9872
 Quadrupole moment (field-independent basis, Debye-Ang):
   XX=           -149.2248   YY=           -156.0595   ZZ=           -127.6139
   XY=            -16.6283   XZ=              2.4019   YZ=              8.5405

 Summary of Natural Population Analysis:

                                       Natural Population
                Natural  -----------------------------------------------
    Atom  No    Charge         Core      Valence    Rydberg      Total
 -----------------------------------------------------------------------
      C    1    0.15644      0.99965     1.83075    0.01316     2.84356
      O    2   -0.27242      0.99987     3.26492    0.00762     4.27242
      C    3    0.17364      0.99933     1.81453    0.01250     2.82636
      C    4    0.10771      0.99934     1.88031    0.01265     2.89229
      O    5   -0.28164      0.99987     3.27385    0.00792     4.28164
      C    6   -0.06715      0.99949     2.06016    0.00751     3.06715
      C    7   -0.03104      0.99952     2.02180    0.00972     3.03104
      C    8   -0.07637      0.99955     2.06900    0.00781     3.07637
      C    9   -0.14740      0.99954     2.13922    0.00865     3.14740
      C   10   -0.03685      0.99952     2.02879    0.00854     3.03685
      C   11   -0.10752      0.99949     2.09882    0.00922     3.10752
      C   12    0.34320      0.99964     1.63412    0.02304     2.65680
      O   13   -0.31298      0.99988     3.30689    0.00621     4.31298
      N   14   -0.32790      0.99967     2.81787    0.01036     3.82790
      C   15   -0.11407      0.99956     2.10327    0.01124     3.11407
      C   16    0.15547      0.99947     1.83092    0.01415     2.84453
      C   17   -0.15187      0.99949     2.14400    0.00837     3.15187
      C   18   -0.15216      0.99958     2.14360    0.00899     3.15216
      C   19    0.05032      0.99952     1.93615    0.01401     2.94968
      O   20   -0.23764      0.99986     3.22946    0.00833     4.23764
      H   21    0.07182      0.00000     0.42671    0.00147     0.42818
      H   22    0.06596      0.00000     0.43232    0.00172     0.43404
      H   23    0.10153      0.00000     0.39714    0.00133     0.39847
      H   24    0.09304      0.00000     0.40521    0.00175     0.40696
      H   25    0.09802      0.00000     0.40050    0.00148     0.40198
      H   26    0.08755      0.00000     0.41020    0.00225     0.41245
      H   27    0.09470      0.00000     0.40436    0.00094     0.40530
      H   28    0.18510      0.00000     0.31144    0.00347     0.31490
      H   29    0.09566      0.00000     0.40294    0.00140     0.40434
      H   30    0.12083      0.00000     0.37778    0.00140     0.37917
      H   31    0.11692      0.00000     0.38188    0.00120     0.38308
      H   32    0.10665      0.00000     0.39261    0.00074     0.39335
      H   33    0.09247      0.00000     0.40661    0.00091     0.40753
 =======================================================================
   * Total *   -0.00000     19.99183    50.77810    0.23007    71.00000

 Normal termination of Gaussian 16 at Sat Dec 12 17:49:23 2020.
