 Gaussian 16, Revision A.03,

 -----------------------------------------------------------
 # opt freq B3LYP/6-31G(d) empiricaldispersion=gd3bj scf=xqc
 -----------------------------------------------------------

 -------------------------------
 CID_148767697_JID_4573_neutraal
 -------------------------------
 Symbolic Z-matrix:
 Charge =  0 Multiplicity = 1

 SCF Done:  E(RB3LYP) =  -619.787611278     A.U. after   13 cycles
 SCF Done:  E(RB3LYP) =  -619.791121191     A.U. after   11 cycles
 SCF Done:  E(RB3LYP) =  -619.791380339     A.U. after   11 cycles
 SCF Done:  E(RB3LYP) =  -619.791645481     A.U. after   10 cycles
 SCF Done:  E(RB3LYP) =  -619.791794310     A.U. after   10 cycles
 SCF Done:  E(RB3LYP) =  -619.792025449     A.U. after   12 cycles
 SCF Done:  E(RB3LYP) =  -619.791966256     A.U. after   11 cycles
 SCF Done:  E(RB3LYP) =  -619.791705809     A.U. after   14 cycles
 SCF Done:  E(RB3LYP) =  -619.792260305     A.U. after   11 cycles
 SCF Done:  E(RB3LYP) =  -619.792166159     A.U. after   10 cycles
 SCF Done:  E(RB3LYP) =  -619.802292229     A.U. after    9 cycles
 SCF Done:  E(RB3LYP) =  -619.802293323     A.U. after    8 cycles
 SCF Done:  E(RB3LYP) =  -619.802293534     A.U. after    7 cycles
 SCF Done:  E(RB3LYP) =  -619.802293639     A.U. after    7 cycles
 SCF Done:  E(RB3LYP) =  -619.802293665     A.U. after    6 cycles
 Optimization completed.
    -- Stationary point found.
 Normal termination of Gaussian 16 at Thu Dec 10 10:31:37 2020.

 --------------------------------------------------------------------
 #N Geom=AllCheck Guess=TCheck SCRF=Check GenChk RB3LYP/6-31G(d) Freq
 --------------------------------------------------------------------

 Structure from the checkpoint file:  "JID_4573.chk"
 -------------------------------
 CID_148767697_JID_4573_neutraal
 -------------------------------
 Charge =  0 Multiplicity = 1

 SCF Done:  E(RB3LYP) =  -619.802293666     A.U. after    1 cycles

  Exact polarizability: 141.653   2.918 134.772  -1.039  -5.059 108.134
 Approx polarizability: 175.748   7.219 190.562  -5.602 -14.859 169.907

                      1                      2                      3
                      A                      A                      A
 Frequencies --     43.7389                75.2400                91.9180
 Red. masses --      3.4532                 2.1696                 2.3031
 Frc consts  --      0.0039                 0.0072                 0.0115
 IR Inten    --      0.1756                 1.5586                 1.7467

                      4                      5                      6
                      A                      A                      A
 Frequencies --    105.0198               147.9102               159.8228
 Red. masses --      2.8267                 1.8723                 2.5597
 Frc consts  --      0.0184                 0.0241                 0.0385
 IR Inten    --      0.4968                 1.8671                 0.7804

                      7                      8                      9
                      A                      A                      A
 Frequencies --    176.2838               222.5855               232.5328
 Red. masses --      1.4771                 2.1347                 1.9035
 Frc consts  --      0.0270                 0.0623                 0.0606
 IR Inten    --      0.4172                 3.2101                 5.6172

                     10                     11                     12
                      A                      A                      A
 Frequencies --    261.3333               289.9299               298.0952
 Red. masses --      2.8998                 2.5404                 2.1800
 Frc consts  --      0.1167                 0.1258                 0.1141
 IR Inten    --      3.8634                 1.6255                 1.5646

                     13                     14                     15
                      A                      A                      A
 Frequencies --    337.2050               346.2498               413.3137
 Red. masses --      3.0035                 2.1875                 4.8217
 Frc consts  --      0.2012                 0.1545                 0.4853
 IR Inten    --      0.8533                 0.1002                 2.8820

                     16                     17                     18
                      A                      A                      A
 Frequencies --    428.7759               441.3918               470.1450
 Red. masses --      3.5567                 2.8290                 2.5707
 Frc consts  --      0.3853                 0.3247                 0.3348
 IR Inten    --      1.1205                 2.2005                 1.1028

                     19                     20                     21
                      A                      A                      A
 Frequencies --    496.3971               553.9132               609.4946
 Red. masses --      4.2035                 2.8739                 2.7095
 Frc consts  --      0.6103                 0.5195                 0.5930
 IR Inten    --      6.0541                 0.9567                 1.4974

                     22                     23                     24
                      A                      A                      A
 Frequencies --    658.7298               706.0748               788.5495
 Red. masses --      2.8605                 2.8313                 2.2809
 Frc consts  --      0.7313                 0.8317                 0.8356
 IR Inten    --      3.7309                 7.3379                 2.0751

                     25                     26                     27
                      A                      A                      A
 Frequencies --    834.6970               863.7185               871.8214
 Red. masses --      1.6112                 2.1167                 2.1166
 Frc consts  --      0.6614                 0.9304                 0.9479
 IR Inten    --      8.3296                11.4853                 5.1221

                     28                     29                     30
                      A                      A                      A
 Frequencies --    882.9637               895.3530               940.4173
 Red. masses --      2.0188                 1.9796                 2.2546
 Frc consts  --      0.9273                 0.9350                 1.1748
 IR Inten    --      9.4654                 4.4669                 4.8208

                     31                     32                     33
                      A                      A                      A
 Frequencies --    949.0494               982.0626              1008.6198
 Red. masses --      1.9034                 2.6869                 2.1421
 Frc consts  --      1.0101                 1.5268                 1.2840
 IR Inten    --      2.2106                18.4708                 0.8613

                     34                     35                     36
                      A                      A                      A
 Frequencies --   1027.8628              1056.5965              1068.6092
 Red. masses --      2.6097                 2.0505                 1.9359
 Frc consts  --      1.6245                 1.3487                 1.3025
 IR Inten    --      9.2749                 0.6001                 6.2254

                     37                     38                     39
                      A                      A                      A
 Frequencies --   1097.7823              1102.7624              1126.8137
 Red. masses --      2.1447                 1.7558                 2.1365
 Frc consts  --      1.5229                 1.2580                 1.5983
 IR Inten    --      3.2602                 1.6109                19.5018

                     40                     41                     42
                      A                      A                      A
 Frequencies --   1136.5906              1144.0948              1147.8821
 Red. masses --      3.6259                 2.3352                 2.7463
 Frc consts  --      2.7597                 1.8010                 2.1320
 IR Inten    --     59.2807                 9.2006               133.7242

                     43                     44                     45
                      A                      A                      A
 Frequencies --   1161.6961              1189.1201              1193.3839
 Red. masses --      2.7065                 1.3993                 1.3213
 Frc consts  --      2.1520                 1.1657                 1.1087
 IR Inten    --     84.2596                 1.5290                 4.7012

                     46                     47                     48
                      A                      A                      A
 Frequencies --   1196.1143              1210.1506              1226.4331
 Red. masses --      1.3513                 1.4828                 1.4477
 Frc consts  --      1.1390                 1.2794                 1.2830
 IR Inten    --     12.2594                19.2522                14.4306

                     49                     50                     51
                      A                      A                      A
 Frequencies --   1234.8233              1246.2908              1273.6301
 Red. masses --      1.5984                 1.5078                 1.3407
 Frc consts  --      1.4360                 1.3799                 1.2814
 IR Inten    --     36.5661                10.4394                 2.1311

                     52                     53                     54
                      A                      A                      A
 Frequencies --   1287.1173              1305.0406              1342.9383
 Red. masses --      1.2817                 1.3582                 1.2451
 Frc consts  --      1.2510                 1.3628                 1.3230
 IR Inten    --      5.5545                 0.3302                 1.1037

                     55                     56                     57
                      A                      A                      A
 Frequencies --   1354.5903              1363.8599              1365.4602
 Red. masses --      1.3059                 1.7198                 1.3038
 Frc consts  --      1.4118                 1.8848                 1.4322
 IR Inten    --      1.6521                22.0451                13.1408

                     58                     59                     60
                      A                      A                      A
 Frequencies --   1384.1596              1392.0022              1397.2769
 Red. masses --      1.4615                 1.3479                 1.5517
 Frc consts  --      1.6498                 1.5388                 1.7850
 IR Inten    --      4.2090                 2.8858                 2.0661

                     61                     62                     63
                      A                      A                      A
 Frequencies --   1404.7556              1412.6990              1420.0688
 Red. masses --      1.4880                 1.5069                 1.4690
 Frc consts  --      1.7300                 1.7719                 1.7454
 IR Inten    --      2.7684                 5.7696                 7.4793

                     64                     65                     66
                      A                      A                      A
 Frequencies --   1425.2037              1499.6191              1503.0468
 Red. masses --      1.5556                 1.1500                 1.0958
 Frc consts  --      1.8617                 1.5238                 1.4586
 IR Inten    --     24.1464                 0.5888                 2.9831

                     67                     68                     69
                      A                      A                      A
 Frequencies --   1503.5586              1508.6827              1512.1138
 Red. masses --      1.1380                 1.0839                 1.0501
 Frc consts  --      1.5157                 1.4536                 1.4147
 IR Inten    --      2.3982                 2.4339                 3.2216

                     70                     71                     72
                      A                      A                      A
 Frequencies --   1518.8415              1519.3997              1524.6321
 Red. masses --      1.0747                 1.0816                 1.0971
 Frc consts  --      1.4607                 1.4712                 1.5025
 IR Inten    --      2.1049                 2.9899                 5.2899

                     73                     74                     75
                      A                      A                      A
 Frequencies --   1528.9012              1540.9684              1542.7189
 Red. masses --      1.0984                 1.0579                 1.0572
 Frc consts  --      1.5127                 1.4801                 1.4824
 IR Inten    --      4.1550                 8.7311                 7.5099

                     76                     77                     78
                      A                      A                      A
 Frequencies --   1745.2218              2955.4302              2982.6188
 Red. masses --      7.6592                 1.0813                 1.0811
 Frc consts  --     13.7446                 5.5648                 5.6663
 IR Inten    --      3.9965                24.9249                33.7115

                     79                     80                     81
                      A                      A                      A
 Frequencies --   2995.0997              2995.5588              3008.0689
 Red. masses --      1.0398                 1.0455                 1.0706
 Frc consts  --      5.4959                 5.5275                 5.7076
 IR Inten    --     98.6331                46.2371                37.8697

                     82                     83                     84
                      A                      A                      A
 Frequencies --   3013.3437              3026.6787              3041.0934
 Red. masses --      1.0736                 1.0773                 1.0979
 Frc consts  --      5.7437                 5.8149                 5.9825
 IR Inten    --      8.8808                35.0328                39.7177

                     85                     86                     87
                      A                      A                      A
 Frequencies --   3044.7151              3050.2017              3053.4960
 Red. masses --      1.0640                 1.0730                 1.0628
 Frc consts  --      5.8116                 5.8815                 5.8383
 IR Inten    --     34.4909                26.3797                43.7452

                     88                     89                     90
                      A                      A                      A
 Frequencies --   3055.1347              3063.1012              3090.0393
 Red. masses --      1.0947                 1.0822                 1.0993
 Frc consts  --      6.0200                 5.9824                 6.1846
 IR Inten    --     39.3209                63.5884                38.1599

                     91                     92                     93
                      A                      A                      A
 Frequencies --   3096.6003              3097.6147              3103.7332
 Red. masses --      1.1040                 1.0977                 1.0990
 Frc consts  --      6.2371                 6.2059                 6.2377
 IR Inten    --     41.4054                42.5670                41.4724

                     94                     95                     96
                      A                      A                      A
 Frequencies --   3132.5850              3135.0410              3146.7042
 Red. masses --      1.0969                 1.0984                 1.0891
 Frc consts  --      6.3422                 6.3607                 6.3539
 IR Inten    --     35.5937                35.8480                31.1298

 - Thermochemistry -
 -------------------
 Temperature   298.150 Kelvin.  Pressure   1.00000 Atm.
 Atom     1 has atomic number  6 and mass  12.00000

 Molecular mass:   196.14633 amu.
 Principal axes and moments of inertia in atomic units:
                           1         2         3
     Eigenvalues --  1775.188443529.790244383.72040
           X            0.99999  -0.00215  -0.00303
           Y            0.00221   0.99985   0.01728
           Z            0.00299  -0.01728   0.99985
 This molecule is an asymmetric top.
 Rotational symmetry number  1.
 Warning -- assumption of classical behavior for rotation
           may cause significant error
 Rotational temperatures (Kelvin)      0.04879     0.02454     0.01976
 Rotational constants (GHZ):           1.01665     0.51129     0.41169
 Zero-point vibrational energy     806365.2 (Joules/Mol)
                                  192.72590 (Kcal/Mol)
 Warning -- explicit consideration of  21 degrees of freedom as
           vibrations may cause significant error
 Vibrational temperatures:     62.93   108.25   132.25   151.10   212.81
          (Kelvin)            229.95   253.63   320.25   334.56   376.00
                              417.14   428.89   485.16   498.18   594.67
                              616.91   635.06   676.43   714.20   796.96
                              876.93   947.77  1015.88  1134.55  1200.94
                             1242.70  1254.36  1270.39  1288.21  1353.05
                             1365.47  1412.97  1451.18  1478.87  1520.21
                             1537.49  1579.46  1586.63  1621.23  1635.30
                             1646.10  1651.55  1671.42  1710.88  1717.01
                             1720.94  1741.14  1764.56  1776.64  1793.13
                             1832.47  1851.87  1877.66  1932.19  1948.95
                             1962.29  1964.59  1991.50  2002.78  2010.37
                             2021.13  2032.56  2043.16  2050.55  2157.62
                             2162.55  2163.29  2170.66  2175.59  2185.27
                             2186.08  2193.61  2199.75  2217.11  2219.63
                             2510.98  4252.20  4291.32  4309.28  4309.94
                             4327.94  4335.53  4354.72  4375.46  4380.67
                             4388.56  4393.30  4395.66  4407.12  4445.88
                             4455.32  4456.78  4465.58  4507.09  4510.62
                             4527.41

 Zero-point correction=                           0.307128 (Hartree/Particle)
 Thermal correction to Energy=                    0.321034
 Thermal correction to Enthalpy=                  0.321978
 Thermal correction to Gibbs Free Energy=         0.266751
 Sum of electronic and zero-point Energies=           -619.495165
 Sum of electronic and thermal Energies=              -619.481260
 Sum of electronic and thermal Enthalpies=            -619.480316
 Sum of electronic and thermal Free Energies=         -619.535542

                     E (Thermal)             CV                S
                      KCal/Mol        Cal/Mol-Kelvin    Cal/Mol-Kelvin
 Total                  201.452             53.702            116.234
 Electronic               0.000              0.000              0.000
 Translational            0.889              2.981             41.726
 Rotational               0.889              2.981             31.685
 Vibrational            199.674             47.740             42.822
 Vibration     1          0.595              1.980              5.082
 Vibration     2          0.599              1.966              4.011
 Vibration     3          0.602              1.955              3.619
 Vibration     4          0.605              1.945              3.359
 Vibration     5          0.617              1.905              2.699
 Vibration     6          0.622              1.892              2.552
 Vibration     7          0.628              1.872              2.367
 Vibration     8          0.648              1.807              1.938
 Vibration     9          0.653              1.791              1.859
 Vibration    10          0.669              1.744              1.653
 Vibration    11          0.686              1.692              1.474
 Vibration    12          0.691              1.677              1.428
 Vibration    13          0.718              1.601              1.225
 Vibration    14          0.724              1.583              1.183
 Vibration    15          0.777              1.441              0.915
 Vibration    16          0.790              1.408              0.863
 Vibration    17          0.801              1.380              0.822
 Vibration    18          0.827              1.316              0.737
 Vibration    19          0.852              1.258              0.667
 Vibration    20          0.909              1.131              0.536
 Vibration    21          0.968              1.012              0.434

 Optimization completed.
    -- Stationary point found.
 Normal termination of Gaussian 16 at Thu Dec 10 10:43:50 2020.

 ----------------------------------------------------------------------
 # B3LYP/6-311++G(d,p) empiricaldispersion=gd3bj scf=xqc pop=npa geom=c
 heck
 ----------------------------------------------------------------------

 ---------------------------------------
 CID_148767697_JID_4573_Energie_neutraal
 ---------------------------------------
 Structure from the checkpoint file:  "JID_4573.chk"
 Charge =  0 Multiplicity = 1

 SCF Done:  E(RB3LYP) =  -619.974458945     A.U. after   14 cycles
 Normal termination of Gaussian 16 at Thu Dec 10 10:49:29 2020.

 ----------------------------------------------------------------------
 # B3LYP/6-311++G(d,p) empiricaldispersion=gd3bj scf=xqc pop=npa geom=c
 heck
 ----------------------------------------------------------------------

 -------------------------------------
 CID_148767697_JID_4573_Energie_kation
 -------------------------------------
 Structure from the checkpoint file:  "JID_4573.chk"
 Charge =  1 Multiplicity = 2

 SCF Done:  E(UB3LYP) =  -619.661077670     A.U. after   26 cycles
 Normal termination of Gaussian 16 at Thu Dec 10 11:04:28 2020.
 Gaussian 16:  ES64L-G16RevA.03 25-Dec-2016

 ----------------------------------------------------------------------
 # B3LYP/6-311++G(d,p) empiricaldispersion=gd3bj scf=xqc pop=npa geom=c
 heck
 ----------------------------------------------------------------------

 ------------------------------------
 CID_148767697_JID_4573_Energie_anion
 ------------------------------------
 Structure from the checkpoint file:  "JID_4573.chk"
 Charge = -1 Multiplicity = 2

                         Standard orientation:
 ---------------------------------------------------------------------
 Center     Atomic      Atomic             Coordinates (Angstroms)
 Number     Number       Type             X           Y           Z
 ---------------------------------------------------------------------
      1          6           0        3.913401   -0.874103    0.483473
      2          8           0        2.555731   -0.755765    0.847371
      3          6           0        1.764106   -0.009300   -0.072943
      4          6           0        1.945277    1.500856    0.086125
      5          6           0        1.103757    2.241402   -0.960364
      6          6           0       -0.309046    1.720001   -0.983923
      7          6           0       -0.674661    0.543128   -0.462787
      8          6           0        0.309879   -0.431226    0.156035
      9          6           0        0.064985   -1.862533   -0.365662
     10          6           0       -1.397190   -2.292682   -0.222180
     11          6           0       -2.324989   -1.304316   -0.938132
     12          6           0       -2.126736    0.117235   -0.409482
     13          8           0       -2.600268    0.100061    0.944295
     14          6           0       -2.674492    1.377336    1.541495
     15          1           0        4.388017   -1.516316    1.230148
     16          1           0        4.435779    0.094177    0.473062
     17          1           0        4.026113   -1.337799   -0.509744
     18          1           0        2.051938   -0.288578   -1.102736
     19          1           0        3.001581    1.776150   -0.008307
     20          1           0        1.622088    1.784651    1.095566
     21          1           0        1.097074    3.318155   -0.747447
     22          1           0        1.562743    2.140460   -1.956579
     23          1           0       -1.070844    2.360045   -1.429482
     24          1           0        0.141649   -0.441355    1.243305
     25          1           0        0.733419   -2.547241    0.166214
     26          1           0        0.346769   -1.897517   -1.428859
     27          1           0       -1.670558   -2.333697    0.838465
     28          1           0       -1.535340   -3.301288   -0.630297
     29          1           0       -3.376355   -1.584020   -0.807453
     30          1           0       -2.110890   -1.303823   -2.015337
     31          1           0       -2.736892    0.828402   -0.990672
     32          1           0       -1.688279    1.853612    1.630421
     33          1           0       -3.330060    2.052195    0.967149
     34          1           0       -3.097404    1.234630    2.539328
 ---------------------------------------------------------------------

 SCF Done:  E(UB3LYP) =  -619.958497218     A.U. after   33 cycles
 SCF Done:  E(UB3LYP) =  -619.958497218     a.u. after    1 cycles

 The electronic state is 2-A.
 Alpha  occ. eigenvalues --  -19.02661 -19.02270 -10.12279 -10.11640 -10.11094
 Alpha  occ. eigenvalues --  -10.10930 -10.07308 -10.06988 -10.06982 -10.06889
 Alpha  occ. eigenvalues --  -10.06777 -10.06659 -10.06469 -10.06189  -0.93834
 Alpha  occ. eigenvalues --   -0.93600  -0.75115  -0.70579  -0.66861  -0.64287
 Alpha  occ. eigenvalues --   -0.62509  -0.58292  -0.56796  -0.52145  -0.51790
 Alpha  occ. eigenvalues --   -0.49310  -0.45958  -0.43032  -0.40476  -0.39412
 Alpha  occ. eigenvalues --   -0.37340  -0.36409  -0.36228  -0.35686  -0.34959
 Alpha  occ. eigenvalues --   -0.33967  -0.32836  -0.32076  -0.30330  -0.29629
 Alpha  occ. eigenvalues --   -0.28301  -0.27823  -0.27532  -0.25958  -0.25246
 Alpha  occ. eigenvalues --   -0.24149  -0.23740  -0.23181  -0.21739  -0.21081
 Alpha  occ. eigenvalues --   -0.20108  -0.16453  -0.15560  -0.14500   0.04526
 Alpha virt. eigenvalues --    0.06345   0.07061   0.07559   0.08431   0.08877
 Alpha virt. eigenvalues --    0.09057   0.09938   0.10109   0.10179   0.10776
 Alpha virt. eigenvalues --    0.11216   0.11500   0.12181   0.12653   0.13076

  Beta  occ. eigenvalues --  -19.02655 -19.02259 -10.12271 -10.11631 -10.11070
  Beta  occ. eigenvalues --  -10.10892 -10.07304 -10.06984 -10.06973 -10.06862
  Beta  occ. eigenvalues --  -10.06774 -10.06640 -10.06461 -10.06170  -0.93820
  Beta  occ. eigenvalues --   -0.93579  -0.75093  -0.70553  -0.66837  -0.64258
  Beta  occ. eigenvalues --   -0.62476  -0.58242  -0.56738  -0.52106  -0.51756
  Beta  occ. eigenvalues --   -0.49265  -0.45916  -0.42997  -0.40436  -0.39381
  Beta  occ. eigenvalues --   -0.37310  -0.36377  -0.36198  -0.35655  -0.34936
  Beta  occ. eigenvalues --   -0.33925  -0.32806  -0.32050  -0.30300  -0.29600
  Beta  occ. eigenvalues --   -0.28270  -0.27790  -0.27494  -0.25930  -0.25208
  Beta  occ. eigenvalues --   -0.24118  -0.23716  -0.23157  -0.21692  -0.21055
  Beta  occ. eigenvalues --   -0.20076  -0.16434  -0.15540  -0.14462
  Beta virt. eigenvalues --    0.06655   0.07318   0.07500   0.08019   0.08978
  Beta virt. eigenvalues --    0.09324   0.09630   0.10146   0.10302   0.10451
  Beta virt. eigenvalues --    0.11347   0.11536   0.11965   0.12483   0.12859

 Mulliken charges and spin densities:
               1          2
     1  C    1.068340  -1.285469
     2  O   -0.103740   0.036217
     3  C   -1.361591   0.850636
     4  C    0.282454  -0.396835
     5  C    1.960518  -2.767182
     6  C   -0.369113   0.250442
     7  C    0.144472   0.486936
     8  C   -0.268912   0.501230
     9  C    0.029421  -0.524313
    10  C   -0.295086   0.041629
    11  C   -0.151537  -0.392768
    12  C   -0.336930  -0.286391
    13  O   -0.051540   0.026828
    14  C    0.335091  -0.599532
    15  H   -0.105019   0.245830
    16  H   -0.447200   0.575934
    17  H   -0.429972   0.562275
    18  H    0.168797  -0.001754
    19  H   -0.008997   0.148247
    20  H    0.044285   0.135388
    21  H   -0.397343   0.575586
    22  H   -0.228155   0.391004
    23  H   -0.608254   0.786927
    24  H    0.189488   0.067857
    25  H    0.060368   0.091828
    26  H   -0.052774   0.188540
    27  H    0.167542  -0.021605
    28  H    0.054795   0.113253
    29  H    0.006895   0.164136
    30  H    0.014800   0.112790
    31  H   -0.115453   0.293151
    32  H    0.082375   0.072786
    33  H   -0.293067   0.431469
    34  H    0.015041   0.124932
 Sum of Mulliken charges =  -1.00000   1.00000

 Dipole moment (field-independent basis, Debye):
    X=             -3.4232    Y=             -3.8397    Z=              1.8156  Tot=              5.4551
 Quadrupole moment (field-independent basis, Debye-Ang):
   XX=           -163.3117   YY=           -137.8661   ZZ=           -120.3880
   XY=              4.9794   XZ=              2.1179   YZ=              4.3830

 Summary of Natural Population Analysis:

                                       Natural Population
                Natural  -----------------------------------------------
    Atom  No    Charge         Core      Valence    Rydberg      Total
 -----------------------------------------------------------------------
      C    1   -0.09604      0.99961     2.08741    0.00903     3.09604
      O    2   -0.30157      0.99988     3.29250    0.00920     4.30157
      C    3    0.07469      0.99950     1.91121    0.01460     2.92531
      C    4   -0.19819      0.99961     2.18915    0.00943     3.19819
      C    5   -0.20476      0.99962     2.19574    0.00941     3.20476
      C    6   -0.07963      0.99944     2.07000    0.01019     3.07963
      C    7   -0.02112      0.99944     2.00942    0.01226     3.02112
      C    8   -0.13054      0.99952     2.11906    0.01197     3.13054
      C    9   -0.18587      0.99961     2.17685    0.00941     3.18587
      C   10   -0.19019      0.99963     2.18349    0.00707     3.19019
      C   11   -0.19261      0.99960     2.18349    0.00951     3.19261
      C   12    0.05877      0.99948     1.92538    0.01636     2.94123
      O   13   -0.30534      0.99988     3.29602    0.00943     4.30534
      C   14   -0.09848      0.99961     2.08965    0.00922     3.09848
      H   15    0.08835      0.00000     0.41064    0.00101     0.41165
      H   16    0.08034      0.00000     0.41790    0.00176     0.41966
      H   17    0.07903      0.00000     0.41938    0.00160     0.42097
      H   18    0.07779      0.00000     0.41964    0.00257     0.42221
      H   19    0.10313      0.00000     0.39532    0.00155     0.39687
      H   20    0.09728      0.00000     0.40118    0.00154     0.40272
      H   21    0.10538      0.00000     0.39305    0.00157     0.39462
      H   22    0.10361      0.00000     0.39459    0.00180     0.39639
      H   23    0.09790      0.00000     0.40013    0.00197     0.40210
      H   24    0.10861      0.00000     0.38931    0.00208     0.39139
      H   25    0.10513      0.00000     0.39372    0.00116     0.39487
      H   26    0.09251      0.00000     0.40617    0.00131     0.40749
      H   27    0.10001      0.00000     0.39861    0.00139     0.39999
      H   28    0.09596      0.00000     0.40312    0.00091     0.40404
      H   29    0.10141      0.00000     0.39748    0.00111     0.39859
      H   30    0.09835      0.00000     0.40065    0.00100     0.40165
      H   31    0.08578      0.00000     0.41209    0.00213     0.41422
      H   32    0.08438      0.00000     0.41425    0.00138     0.41562
      H   33    0.07909      0.00000     0.41937    0.00154     0.42091
      H   34    0.08686      0.00000     0.41226    0.00088     0.41314
 =======================================================================
   * Total *   -0.00000     13.99443    39.82822    0.17735    54.00000

 Normal termination of Gaussian 16 at Thu Dec 10 11:22:32 2020.
