 Gaussian 16, Revision A.03,

 -----------------------------------------------------------
 # opt freq B3LYP/6-31G(d) empiricaldispersion=gd3bj scf=xqc
 -----------------------------------------------------------

 ------------------------------
 CID_80838328_JID_9787_neutraal
 ------------------------------
 Symbolic Z-matrix:
 Charge =  0 Multiplicity = 1

 SCF Done:  E(RB3LYP) =  -1254.23084587     A.U. after   15 cycles
 SCF Done:  E(RB3LYP) =  -1254.23723206     A.U. after   13 cycles
 SCF Done:  E(RB3LYP) =  -1254.23956174     A.U. after   13 cycles
 SCF Done:  E(RB3LYP) =  -1254.24147976     A.U. after   12 cycles
 SCF Done:  E(RB3LYP) =  -1254.24839165     A.U. after   12 cycles
 SCF Done:  E(RB3LYP) =  -1254.25242218     A.U. after   14 cycles
 SCF Done:  E(RB3LYP) =  -1254.25340543     A.U. after   11 cycles
 SCF Done:  E(RB3LYP) =  -1254.25399209     A.U. after   12 cycles
 SCF Done:  E(RB3LYP) =  -1254.25392369     A.U. after   12 cycles
 SCF Done:  E(RB3LYP) =  -1254.25490725     A.U. after   12 cycles
 SCF Done:  E(RB3LYP) =  -1254.25611489     A.U. after   10 cycles
 SCF Done:  E(RB3LYP) =  -1254.25611839     A.U. after   10 cycles
 SCF Done:  E(RB3LYP) =  -1254.25611916     A.U. after    8 cycles
 SCF Done:  E(RB3LYP) =  -1254.25611920     A.U. after    7 cycles
 Optimization completed.
    -- Stationary point found.
 Normal termination of Gaussian 16 at Sat Dec 12 10:47:13 2020.

 --------------------------------------------------------------------
 #N Geom=AllCheck Guess=TCheck SCRF=Check GenChk RB3LYP/6-31G(d) Freq
 --------------------------------------------------------------------

 Structure from the checkpoint file:  "JID_9787.chk"
 ------------------------------
 CID_80838328_JID_9787_neutraal
 ------------------------------
 Charge =  0 Multiplicity = 1

 SCF Done:  E(RB3LYP) =  -1254.25611920     A.U. after    1 cycles

  Exact polarizability: 228.029  18.675 164.120 -13.666  13.232 133.604
 Approx polarizability: 295.159  33.414 255.531 -16.247  36.941 209.037

                      1                      2                      3
                      A                      A                      A
 Frequencies --     16.4685                26.9757                45.3840
 Red. masses --      5.0361                 4.1235                 4.2650
 Frc consts  --      0.0008                 0.0018                 0.0052
 IR Inten    --      0.5948                 1.4600                 1.2246

                      4                      5                      6
                      A                      A                      A
 Frequencies --     54.5525                64.1604                67.4725
 Red. masses --      2.0337                 4.0279                 4.8822
 Frc consts  --      0.0036                 0.0098                 0.0131
 IR Inten    --      4.6575                 3.7462                 6.6426

                      7                      8                      9
                      A                      A                      A
 Frequencies --     93.8698               109.7736               164.5979
 Red. masses --      3.9748                 4.6775                 4.6683
 Frc consts  --      0.0206                 0.0332                 0.0745
 IR Inten    --      2.2064                 0.4194                 4.4832

                     10                     11                     12
                      A                      A                      A
 Frequencies --    172.2988               201.8681               220.8185
 Red. masses --      4.6237                 3.9331                 4.6957
 Frc consts  --      0.0809                 0.0944                 0.1349
 IR Inten    --      0.2340                 2.6260                13.0435

                     13                     14                     15
                      A                      A                      A
 Frequencies --    229.8987               238.6969               257.4654
 Red. masses --      1.1709                 2.3007                 1.4669
 Frc consts  --      0.0365                 0.0772                 0.0573
 IR Inten    --      0.7358                 0.1474                 0.9223

                     16                     17                     18
                      A                      A                      A
 Frequencies --    263.9434               264.5278               278.9118
 Red. masses --      1.4087                 1.6923                 3.1191
 Frc consts  --      0.0578                 0.0698                 0.1430
 IR Inten    --      3.7758                 3.1170                 0.9186

                     19                     20                     21
                      A                      A                      A
 Frequencies --    298.5113               323.1032               339.6504
 Red. masses --      4.1891                 1.1428                 2.6446
 Frc consts  --      0.2199                 0.0703                 0.1798
 IR Inten    --      0.2892                 3.5862                 2.2528

                     22                     23                     24
                      A                      A                      A
 Frequencies --    342.6580               352.8451               387.3125
 Red. masses --      2.9087                 3.5353                 1.1371
 Frc consts  --      0.2012                 0.2593                 0.1005
 IR Inten    --      1.4126                 2.3080                43.1651

                     25                     26                     27
                      A                      A                      A
 Frequencies --    420.1487               422.8718               434.1994
 Red. masses --      2.8036                 1.3172                 2.7721
 Frc consts  --      0.2916                 0.1388                 0.3079
 IR Inten    --     22.6293                76.3604                 3.9366

                     28                     29                     30
                      A                      A                      A
 Frequencies --    469.9926               474.6600               479.8770
 Red. masses --      3.0360                 2.4841                 4.0252
 Frc consts  --      0.3951                 0.3298                 0.5461
 IR Inten    --     49.2287                 3.8730                 0.9669

                     31                     32                     33
                      A                      A                      A
 Frequencies --    498.8967               542.3119               591.5131
 Red. masses --      6.8771                 3.7491                 4.8202
 Frc consts  --      1.0085                 0.6496                 0.9937
 IR Inten    --     49.8270                22.6545                 7.1563

                     34                     35                     36
                      A                      A                      A
 Frequencies --    628.2013               634.6502               672.1574
 Red. masses --      4.0634                 1.7205                 2.5277
 Frc consts  --      0.9448                 0.4083                 0.6729
 IR Inten    --      2.1315                36.1291                36.6687

                     37                     38                     39
                      A                      A                      A
 Frequencies --    704.1005               740.2187               757.4913
 Red. masses --      8.5172                 4.4041                 1.5646
 Frc consts  --      2.4878                 1.4218                 0.5290
 IR Inten    --      0.4641                79.3719                 1.7332

                     40                     41                     42
                      A                      A                      A
 Frequencies --    773.2235               809.9471               830.5246
 Red. masses --      3.0754                 4.6102                 3.1038
 Frc consts  --      1.0833                 1.7819                 1.2614
 IR Inten    --     11.3506                55.2946                10.4252

                     43                     44                     45
                      A                      A                      A
 Frequencies --    837.3241               871.0928               908.1528
 Red. masses --      1.1998                 3.2413                 2.0450
 Frc consts  --      0.4956                 1.4491                 0.9937
 IR Inten    --      2.3371                50.4846                 2.1893

                     46                     47                     48
                      A                      A                      A
 Frequencies --    942.3781               953.3257               993.3077
 Red. masses --      1.9761                 1.4996                 2.0018
 Frc consts  --      1.0340                 0.8030                 1.1637
 IR Inten    --      0.1568                 0.3129                23.1111

                     49                     50                     51
                      A                      A                      A
 Frequencies --    996.3884               996.8180               997.9976
 Red. masses --      2.3901                 1.4740                 1.3856
 Frc consts  --      1.3980                 0.8629                 0.8131
 IR Inten    --      7.2146                 3.8737                 2.5920

                     52                     53                     54
                      A                      A                      A
 Frequencies --   1007.4232              1015.5363              1038.2217
 Red. masses --      4.2843                 2.5915                 1.6090
 Frc consts  --      2.5618                 1.5747                 1.0218
 IR Inten    --     10.9466                77.6063                26.9627

                     55                     56                     57
                      A                      A                      A
 Frequencies --   1059.6537              1088.2589              1121.1446
 Red. masses --      1.6591                 2.2359                 2.4967
 Frc consts  --      1.0976                 1.5602                 1.8490
 IR Inten    --     20.3685                 5.5482                27.7256

                     58                     59                     60
                      A                      A                      A
 Frequencies --   1132.1287              1185.7465              1195.3561
 Red. masses --     10.2518                 1.5184                 3.0582
 Frc consts  --      7.7418                 1.2579                 2.5746
 IR Inten    --    259.0776                 2.1559                20.0229

                     61                     62                     63
                      A                      A                      A
 Frequencies --   1211.0926              1229.1383              1257.3571
 Red. masses --      2.4105                 2.2402                 2.4658
 Frc consts  --      2.0831                 1.9940                 2.2968
 IR Inten    --     13.4427                25.5665                17.1965

                     64                     65                     66
                      A                      A                      A
 Frequencies --   1270.1967              1276.3698              1312.9687
 Red. masses --      1.8598                 2.5546                 1.1218
 Frc consts  --      1.7679                 2.4520                 1.1394
 IR Inten    --    144.3052                63.2113                12.1943

                     67                     68                     69
                      A                      A                      A
 Frequencies --   1322.7768              1335.7220              1376.1970
 Red. masses --      2.8475                 5.3089                 1.5491
 Frc consts  --      2.9355                 5.5806                 1.7286
 IR Inten    --    136.1430               129.5605                 5.5645

                     70                     71                     72
                      A                      A                      A
 Frequencies --   1378.9221              1380.0081              1398.0550
 Red. masses --      1.4625                 1.9877                 1.3882
 Frc consts  --      1.6384                 2.2303                 1.5986
 IR Inten    --     12.0567                52.1455                11.7633

                     73                     74                     75
                      A                      A                      A
 Frequencies --   1406.7110              1422.6195              1444.7709
 Red. masses --      1.2962                 1.2833                 1.2844
 Frc consts  --      1.5113                 1.5302                 1.5796
 IR Inten    --     40.3722                15.2644                 7.5001

                     76                     77                     78
                      A                      A                      A
 Frequencies --   1445.9092              1460.9610              1478.9969
 Red. masses --      1.2477                 1.5569                 1.8198
 Frc consts  --      1.5369                 1.9578                 2.3454
 IR Inten    --     28.1812                10.1720                31.2196

                     79                     80                     81
                      A                      A                      A
 Frequencies --   1487.8040              1489.4431              1491.9766
 Red. masses --      1.0535                 1.0630                 1.1306
 Frc consts  --      1.3740                 1.3894                 1.4828
 IR Inten    --      4.2491                 3.4695                30.4916

                     82                     83                     84
                      A                      A                      A
 Frequencies --   1510.7839              1524.1394              1529.7003
 Red. masses --      1.0514                 1.0400                 1.0713
 Frc consts  --      1.4139                 1.4234                 1.4770
 IR Inten    --      8.2840                 6.4916                31.2209

                     85                     86                     87
                      A                      A                      A
 Frequencies --   1532.8319              1533.1591              1550.0731
 Red. masses --      1.0629                 1.0547                 1.1472
 Frc consts  --      1.4713                 1.4606                 1.6240
 IR Inten    --      4.8530                22.8243                60.9059

                     88                     89                     90
                      A                      A                      A
 Frequencies --   1552.9606              1558.9158              1563.1332
 Red. masses --      1.3537                 1.2028                 1.7728
 Frc consts  --      1.9235                 1.7222                 2.5522
 IR Inten    --     45.5245               141.2831                63.2127

                     91                     92                     93
                      A                      A                      A
 Frequencies --   1598.1917              1623.9559              1667.4600
 Red. masses --      3.4861                 3.6269                 5.3250
 Frc consts  --      5.2462                 5.6355                 8.7233
 IR Inten    --    264.2890                32.2889              1152.3734

                     94                     95                     96
                      A                      A                      A
 Frequencies --   3003.2108              3037.4735              3050.0571
 Red. masses --      1.0647                 1.0982                 1.0394
 Frc consts  --      5.6579                 5.9697                 5.6970
 IR Inten    --     39.9372                27.5733                21.4781

                     97                     98                     99
                      A                      A                      A
 Frequencies --   3056.8555              3057.2543              3074.0901
 Red. masses --      1.0390                 1.0365                 1.0584
 Frc consts  --      5.7202                 5.7082                 5.8931
 IR Inten    --     17.4765                23.2547                40.2903

                    100                    101                    102
                      A                      A                      A
 Frequencies --   3085.7212              3117.7837              3120.5077
 Red. masses --      1.0299                 1.1014                 1.1009
 Frc consts  --      5.7777                 6.3081                 6.3162
 IR Inten    --      1.7181                 9.6289                22.3892

                    103                    104                    105
                      A                      A                      A
 Frequencies --   3124.2706              3126.7814              3140.0663
 Red. masses --      1.1032                 1.1049                 1.1019
 Frc consts  --      6.3444                 6.3648                 6.4013
 IR Inten    --     30.2465                43.6990                22.5419

                    106                    107                    108
                      A                      A                      A
 Frequencies --   3153.7279              3163.8909              3180.4530
 Red. masses --      1.1019                 1.0999                 1.1065
 Frc consts  --      6.4569                 6.4872                 6.5945
 IR Inten    --      7.5144                 4.1410                 3.0405

                    109                    110                    111
                      A                      A                      A
 Frequencies --   3185.8394              3196.6589              3215.4694
 Red. masses --      1.0910                 1.1063                 1.0908
 Frc consts  --      6.5241                 6.6609                 6.6449
 IR Inten    --     24.5878                 3.2886                10.4549

                    112                    113                    114
                      A                      A                      A
 Frequencies --   3326.3151              3618.2512              3644.4321
 Red. masses --      1.0817                 1.0767                 1.0771
 Frc consts  --      7.0516                 8.3050                 8.4287
 IR Inten    --    806.1018                55.3505                26.5082

 - Thermochemistry -
 -------------------
 Temperature   298.150 Kelvin.  Pressure   1.00000 Atm.
 Atom     1 has atomic number  6 and mass  12.00000

 Molecular mass:   287.14160 amu.
 Principal axes and moments of inertia in atomic units:
                           1         2         3
     Eigenvalues --  2737.07779********************
           X            0.99989   0.01233  -0.00797
           Y           -0.01244   0.99983  -0.01347
           Z            0.00781   0.01357   0.99988
 This molecule is an asymmetric top.
 Rotational symmetry number  1.
 Warning -- assumption of classical behavior for rotation
           may cause significant error
 Rotational temperatures (Kelvin)      0.03164     0.00780     0.00715
 Rotational constants (GHZ):           0.65937     0.16248     0.14895
 Zero-point vibrational energy     887290.7 (Joules/Mol)
                                  212.06756 (Kcal/Mol)
 Warning -- explicit consideration of  33 degrees of freedom as
           vibrations may cause significant error
 Vibrational temperatures:     23.69    38.81    65.30    78.49    92.31
          (Kelvin)             97.08   135.06   157.94   236.82   247.90
                              290.44   317.71   330.77   343.43   370.44
                              379.76   380.60   401.29   429.49   464.87
                              488.68   493.01   507.67   557.26   604.50
                              608.42   624.72   676.21   682.93   690.44
                              717.80   780.27   851.06   903.84   913.12
                              967.08  1013.04  1065.01  1089.86  1112.50
                             1165.33  1194.94  1204.72  1253.31  1306.63
                             1355.87  1371.62  1429.15  1433.58  1434.20
                             1435.90  1449.46  1461.13  1493.77  1524.61
                             1565.76  1613.08  1628.88  1706.02  1719.85
                             1742.49  1768.46  1809.06  1827.53  1836.41
                             1889.07  1903.18  1921.81  1980.04  1983.96
                             1985.52  2011.49  2023.94  2046.83  2078.70
                             2080.34  2102.00  2127.95  2140.62  2142.98
                             2146.62  2173.68  2192.90  2200.90  2205.40
                             2205.87  2230.21  2234.36  2242.93  2249.00
                             2299.44  2336.51  2399.10  4320.95  4370.25
                             4388.35  4398.13  4398.71  4422.93  4439.66
                             4485.80  4489.71  4495.13  4498.74  4517.86
                             4537.51  4552.13  4575.96  4583.71  4599.28
                             4626.34  4785.83  5205.86  5243.52

 Zero-point correction=                           0.337951 (Hartree/Particle)
 Thermal correction to Energy=                    0.358735
 Thermal correction to Enthalpy=                  0.359680
 Thermal correction to Gibbs Free Energy=         0.287001
 Sum of electronic and zero-point Energies=          -1253.918168
 Sum of electronic and thermal Energies=             -1253.897384
 Sum of electronic and thermal Enthalpies=           -1253.896440
 Sum of electronic and thermal Free Energies=        -1253.969119

                     E (Thermal)             CV                S
                      KCal/Mol        Cal/Mol-Kelvin    Cal/Mol-Kelvin
 Total                  225.110             77.759            152.966
 Electronic               0.000              0.000              0.000
 Translational            0.889              2.981             42.862
 Rotational               0.889              2.981             34.265
 Vibrational            223.332             71.797             75.839
 Vibration     1          0.593              1.986              7.020
 Vibration     2          0.593              1.984              6.040
 Vibration     3          0.595              1.979              5.009
 Vibration     4          0.596              1.976              4.645
 Vibration     5          0.597              1.971              4.325
 Vibration     6          0.598              1.970              4.226
 Vibration     7          0.603              1.954              3.578
 Vibration     8          0.606              1.941              3.273
 Vibration     9          0.623              1.886              2.496
 Vibration    10          0.626              1.877              2.410
 Vibration    11          0.639              1.837              2.116
 Vibration    12          0.648              1.809              1.952
 Vibration    13          0.652              1.795              1.880
 Vibration    14          0.657              1.781              1.813
 Vibration    15          0.667              1.750              1.679
 Vibration    16          0.670              1.739              1.636
 Vibration    17          0.671              1.738              1.632
 Vibration    18          0.679              1.713              1.540
 Vibration    19          0.692              1.676              1.425
 Vibration    20          0.708              1.629              1.294
 Vibration    21          0.720              1.596              1.214
 Vibration    22          0.722              1.590              1.200
 Vibration    23          0.729              1.569              1.153
 Vibration    24          0.756              1.497              1.010
 Vibration    25          0.783              1.426              0.891
 Vibration    26          0.785              1.421              0.882
 Vibration    27          0.795              1.396              0.845
 Vibration    28          0.827              1.317              0.738
 Vibration    29          0.831              1.306              0.725
 Vibration    30          0.836              1.295              0.710
 Vibration    31          0.854              1.252              0.661
 Vibration    32          0.897              1.157              0.560
 Vibration    33          0.949              1.050              0.464

 Optimization completed.
    -- Stationary point found.
 Normal termination of Gaussian 16 at Sat Dec 12 11:04:32 2020.

 ----------------------------------------------------------------------
 # B3LYP/6-311++G(d,p) empiricaldispersion=gd3bj scf=xqc pop=npa geom=c
 heck
 ----------------------------------------------------------------------

 --------------------------------------
 CID_80838328_JID_9787_Energie_neutraal
 --------------------------------------
 Structure from the checkpoint file:  "JID_9787.chk"
 Charge =  0 Multiplicity = 1

 SCF Done:  E(RB3LYP) =  -1254.53186219     A.U. after   16 cycles
 Normal termination of Gaussian 16 at Sat Dec 12 11:12:20 2020.

 ----------------------------------------------------------------------
 # B3LYP/6-311++G(d,p) empiricaldispersion=gd3bj scf=xqc pop=npa geom=c
 heck
 ----------------------------------------------------------------------

 ------------------------------------
 CID_80838328_JID_9787_Energie_kation
 ------------------------------------
 Structure from the checkpoint file:  "JID_9787.chk"
 Charge =  1 Multiplicity = 2

 SCF Done:  E(UB3LYP) =  -1254.23231939     A.U. after   33 cycles
 SCF Done:  E(UB3LYP) =  -1254.23231939     a.u. after    1 cycles
 Normal termination of Gaussian 16 at Sat Dec 12 11:34:04 2020.
 Gaussian 16:  ES64L-G16RevA.03 25-Dec-2016

 ----------------------------------------------------------------------
 # B3LYP/6-311++G(d,p) empiricaldispersion=gd3bj scf=xqc pop=npa geom=c
 heck
 ----------------------------------------------------------------------

 -----------------------------------
 CID_80838328_JID_9787_Energie_anion
 -----------------------------------
 Structure from the checkpoint file:  "JID_9787.chk"
 Charge = -1 Multiplicity = 2

                         Standard orientation:
 ---------------------------------------------------------------------
 Center     Atomic      Atomic             Coordinates (Angstroms)
 Number     Number       Type             X           Y           Z
 ---------------------------------------------------------------------
      1          6           0        6.601026    0.181036   -1.073154
      2          6           0        5.203227   -0.372460   -0.818291
      3          7           0        4.433615    0.549807   -0.006915
      4          6           0        3.152578    0.348542    0.395553
      5          6           0        2.381506   -0.739776   -0.029555
      6          6           0        1.065126   -0.807189    0.450403
      7          7           0        0.568989    0.127868    1.291924
      8          6           0        1.409289    1.111509    1.636056
      9          7           0        2.661092    1.288524    1.248115
     10          7           0        0.228558   -1.819732    0.074751
     11          6           0       -1.056895   -2.117803    0.690691
     12          6           0       -2.283411   -1.423019    0.051556
     13          6           0       -2.292470   -1.664262   -1.464133
     14          6           0       -3.555390   -1.995954    0.695562
     15          7           0       -2.153817    0.004685    0.410425
     16         16           0       -2.965076    1.268805   -0.257562
     17          8           0       -4.255758    0.778976   -0.758586
     18          8           0       -2.882279    2.373611    0.700507
     19          6           0       -2.000776    1.788816   -1.696844
     20          1           0        6.550416    1.143539   -1.593460
     21          1           0        7.178644   -0.512118   -1.691504
     22          1           0        7.143239    0.324978   -0.131538
     23          1           0        4.686773   -0.532842   -1.775087
     24          1           0        5.270663   -1.354349   -0.324246
     25          1           0        4.902973    1.320871    0.448158
     26          1           0        2.776673   -1.501889   -0.691211
     27          1           0        1.001827    1.859418    2.313780
     28          1           0        0.612276   -2.506681   -0.555606
     29          1           0       -1.210326   -3.199139    0.621838
     30          1           0       -1.010164   -1.854284    1.751966
     31          1           0       -2.358393   -2.738523   -1.672942
     32          1           0       -3.157127   -1.179606   -1.923452
     33          1           0       -1.376338   -1.280391   -1.923303
     34          1           0       -3.517363   -1.874352    1.783116
     35          1           0       -4.428389   -1.456991    0.322455
     36          1           0       -3.668704   -3.061562    0.462121
     37          1           0       -1.302899    0.275382    0.919083
     38          1           0       -0.993588    2.044870   -1.361865
     39          1           0       -1.973863    0.980065   -2.427494
     40          1           0       -2.492725    2.667314   -2.120342
 ---------------------------------------------------------------------

 SCF Done:  E(UB3LYP) =  -1254.53159925     A.U. after   33 cycles
 SCF Done:  E(UB3LYP) =  -1254.53159925     a.u. after    1 cycles

 The electronic state is 2-A.
 Alpha  occ. eigenvalues --  -88.97551 -19.02584 -19.02383 -14.24813 -14.24779
 Alpha  occ. eigenvalues --  -14.23738 -14.21698 -14.21383 -10.16963 -10.16549
 Alpha  occ. eigenvalues --  -10.15064 -10.14353 -10.12636 -10.12366 -10.11958
 Alpha  occ. eigenvalues --  -10.08835 -10.08031 -10.07536 -10.07459  -8.03625
 Alpha  occ. eigenvalues --   -5.99911  -5.99882  -5.99730  -1.02896  -0.91891
 Alpha  occ. eigenvalues --   -0.91159  -0.87660  -0.84538  -0.83086  -0.77736
 Alpha  occ. eigenvalues --   -0.71778  -0.69420  -0.67475  -0.66780  -0.61497
 Alpha  occ. eigenvalues --   -0.60772  -0.58317  -0.55993  -0.54452  -0.52563
 Alpha  occ. eigenvalues --   -0.48463  -0.48213  -0.45017  -0.44025  -0.42192
 Alpha  occ. eigenvalues --   -0.40214  -0.40030  -0.39405  -0.38938  -0.37988
 Alpha  occ. eigenvalues --   -0.37601  -0.36792  -0.35852  -0.34932  -0.34880
 Alpha  occ. eigenvalues --   -0.34493  -0.34347  -0.32493  -0.30909  -0.30722
 Alpha  occ. eigenvalues --   -0.30391  -0.30113  -0.29663  -0.29217  -0.28115
 Alpha  occ. eigenvalues --   -0.27075  -0.25935  -0.24849  -0.23422  -0.22693
 Alpha  occ. eigenvalues --   -0.21982  -0.21730  -0.21078  -0.18128  -0.17782
 Alpha  occ. eigenvalues --   -0.15096  -0.13522   0.03283
 Alpha virt. eigenvalues --    0.05318   0.06422   0.06966   0.07085   0.07967
 Alpha virt. eigenvalues --    0.08047   0.08218   0.08512   0.09009   0.09604
 Alpha virt. eigenvalues --    0.09859   0.10493   0.10822   0.11408   0.11663

  Beta  occ. eigenvalues --  -88.97550 -19.02582 -19.02381 -14.24775 -14.24770
  Beta  occ. eigenvalues --  -14.23733 -14.21694 -14.21378 -10.16961 -10.16550
  Beta  occ. eigenvalues --  -10.15059 -10.14352 -10.12619 -10.12335 -10.11948
  Beta  occ. eigenvalues --  -10.08800 -10.08006 -10.07529 -10.07433  -8.03624
  Beta  occ. eigenvalues --   -5.99911  -5.99882  -5.99729  -1.02890  -0.91886
  Beta  occ. eigenvalues --   -0.91141  -0.87628  -0.84517  -0.83062  -0.77713
  Beta  occ. eigenvalues --   -0.71760  -0.69391  -0.67458  -0.66743  -0.61452
  Beta  occ. eigenvalues --   -0.60745  -0.58266  -0.55957  -0.54401  -0.52519
  Beta  occ. eigenvalues --   -0.48435  -0.48166  -0.44999  -0.43998  -0.42154
  Beta  occ. eigenvalues --   -0.40205  -0.39995  -0.39366  -0.38904  -0.37975
  Beta  occ. eigenvalues --   -0.37540  -0.36774  -0.35821  -0.34912  -0.34861
  Beta  occ. eigenvalues --   -0.34471  -0.34335  -0.32459  -0.30871  -0.30688
  Beta  occ. eigenvalues --   -0.30363  -0.30086  -0.29632  -0.29144  -0.28090
  Beta  occ. eigenvalues --   -0.27056  -0.25920  -0.24835  -0.23419  -0.22669
  Beta  occ. eigenvalues --   -0.21975  -0.21723  -0.21070  -0.18119  -0.17774
  Beta  occ. eigenvalues --   -0.15076  -0.13488
  Beta virt. eigenvalues --    0.05662   0.06180   0.06684   0.07183   0.07685
  Beta virt. eigenvalues --    0.08150   0.08251   0.08615   0.08759   0.09327
  Beta virt. eigenvalues --    0.09730   0.09935   0.10866   0.11080   0.11459

 Mulliken charges and spin densities:
               1          2
     1  C    1.146773  -1.835429
     2  C   -0.071676  -0.031046
     3  N   -0.299719   0.148077
     4  C    1.418461  -2.115510
     5  C   -0.226812   0.210443
     6  C   -0.686570   0.816451
     7  N   -0.236737   0.005501
     8  C   -0.038309   0.019371
     9  N   -0.139077   0.011214
    10  N   -0.046051   0.026585
    11  C   -0.176333  -0.412016
    12  C   -0.521612   0.807759
    13  C    0.475443  -1.164497
    14  C   -0.329672  -0.111017
    15  N   -0.290788  -0.041146
    16  S    0.225916   0.046905
    17  O   -0.191220  -0.000407
    18  O   -0.145996  -0.005107
    19  C   -0.424858  -0.192869
    20  H   -0.078674   0.228952
    21  H   -0.296926   0.462484
    22  H   -0.115953   0.254979
    23  H   -0.233389   0.405161
    24  H   -0.190179   0.357860
    25  H    0.369236  -0.070783
    26  H   -0.941437   1.159098
    27  H    0.187802   0.012130
    28  H   -0.247789   0.586818
    29  H   -0.484717   0.680967
    30  H    0.270586  -0.037231
    31  H   -0.204844   0.360950
    32  H    0.164654   0.014980
    33  H    0.009717   0.170967
    34  H    0.111122   0.033366
    35  H    0.172081   0.010899
    36  H    0.093817   0.041871
    37  H    0.515566  -0.039856
    38  H    0.131183   0.088263
    39  H    0.133357   0.074104
    40  H    0.193622   0.020761
 Sum of Mulliken charges =  -1.00000   1.00000

 Dipole moment (field-independent basis, Debye):
    X=             -3.8947    Y=              4.0392    Z=              2.5579  Tot=              6.1666
 Quadrupole moment (field-independent basis, Debye-Ang):
   XX=           -229.3515   YY=           -177.3760   ZZ=           -156.3374
   XY=             19.0471   XZ=             15.0707   YZ=            -15.8174

 Summary of Natural Population Analysis:

                                       Natural Population
                Natural  -----------------------------------------------
    Atom  No    Charge         Core      Valence    Rydberg      Total
 -----------------------------------------------------------------------
      C    1   -0.28859      0.99967     2.28324    0.00568     3.28859
      C    2   -0.08801      0.99964     2.07826    0.01012     3.08801
      N    3   -0.30309      0.99966     2.79280    0.01064     3.80309
      C    4    0.21734      0.99954     1.76699    0.01613     2.78266
      C    5   -0.19232      0.99948     2.18353    0.00931     3.19232
      C    6    0.22495      0.99953     1.76003    0.01550     2.77505
      N    7   -0.31563      0.99966     2.80593    0.01003     3.81563
      C    8    0.16011      0.99966     1.82259    0.01764     2.83989
      N    9   -0.28420      0.99968     2.77517    0.00936     3.78420
      N   10   -0.30671      0.99966     2.79401    0.01304     3.80671
      C   11   -0.08976      0.99955     2.07606    0.01415     3.08976
      C   12    0.05716      0.99957     1.92901    0.01426     2.94284
      C   13   -0.30028      0.99961     2.29315    0.00753     3.30028
      C   14   -0.29110      0.99961     2.28470    0.00679     3.29110
      N   15   -0.47715      0.99967     2.96431    0.01317     3.97715
      S   16    1.11079      4.99931     1.78709    0.10281     6.88921
      O   17   -0.47427      0.99991     3.46879    0.00558     4.47427
      O   18   -0.46696      0.99991     3.46196    0.00509     4.46696
      C   19   -0.39430      0.99960     2.38654    0.00816     3.39430
      H   20    0.09888      0.00000     0.40003    0.00109     0.40112
      H   21    0.10765      0.00000     0.39123    0.00112     0.39235
      H   22    0.09638      0.00000     0.40253    0.00110     0.40362
      H   23    0.09787      0.00000     0.39986    0.00227     0.40213
      H   24    0.09313      0.00000     0.40501    0.00186     0.40687
      H   25    0.19306      0.00000     0.30396    0.00299     0.30694
      H   26    0.11539      0.00000     0.38211    0.00250     0.38461
      H   27    0.08403      0.00000     0.41497    0.00100     0.41597
      H   28    0.20315      0.00000     0.28381    0.01305     0.29685
      H   29    0.10696      0.00000     0.39169    0.00135     0.39304
      H   30    0.10558      0.00000     0.39297    0.00145     0.39442
      H   31    0.10533      0.00000     0.39362    0.00105     0.39467
      H   32    0.10856      0.00000     0.39049    0.00095     0.39144
      H   33    0.10552      0.00000     0.39298    0.00150     0.39448
      H   34    0.10049      0.00000     0.39864    0.00087     0.39951
      H   35    0.11437      0.00000     0.38466    0.00098     0.38563
      H   36    0.09795      0.00000     0.40136    0.00069     0.40205
      H   37    0.22612      0.00000     0.27119    0.00268     0.27388
      H   38    0.11543      0.00000     0.38367    0.00090     0.38457
      H   39    0.11398      0.00000     0.38510    0.00092     0.38602
      H   40    0.11220      0.00000     0.38698    0.00082     0.38780
 =======================================================================
   * Total *    0.00000     22.99290    53.67103    0.33607    77.00000

 Normal termination of Gaussian 16 at Sat Dec 12 11:55:25 2020.
