 Gaussian 16, Revision A.03,

 -----------------------------------------------------------
 # opt freq B3LYP/6-31G(d) empiricaldispersion=gd3bj scf=xqc
 -----------------------------------------------------------

 ------------------------------
 CID_61493009_JID_9674_neutraal
 ------------------------------
 Symbolic Z-matrix:
 Charge =  0 Multiplicity = 1

 SCF Done:  E(RB3LYP) =  -856.082399463     A.U. after   16 cycles
 SCF Done:  E(RB3LYP) =  -856.084202761     A.U. after   13 cycles
 SCF Done:  E(RB3LYP) =  -856.081477339     A.U. after   16 cycles
 SCF Done:  E(RB3LYP) =  -856.086004013     A.U. after   13 cycles
 SCF Done:  E(RB3LYP) =  -856.087612506     A.U. after   14 cycles
 SCF Done:  E(RB3LYP) =  -856.089850960     A.U. after   13 cycles
 SCF Done:  E(RB3LYP) =  -856.090731597     A.U. after   14 cycles
 SCF Done:  E(RB3LYP) =  -856.091350483     A.U. after   14 cycles
 SCF Done:  E(RB3LYP) =  -856.091736087     A.U. after   12 cycles
 SCF Done:  E(RB3LYP) =  -856.091679282     A.U. after   12 cycles
 SCF Done:  E(RB3LYP) =  -856.091846491     A.U. after   12 cycles
 SCF Done:  E(RB3LYP) =  -856.091856017     A.U. after   11 cycles
 SCF Done:  E(RB3LYP) =  -856.091861517     A.U. after   10 cycles
 SCF Done:  E(RB3LYP) =  -856.091862842     A.U. after    9 cycles
 SCF Done:  E(RB3LYP) =  -856.091863963     A.U. after    8 cycles
 SCF Done:  E(RB3LYP) =  -856.091864305     A.U. after    8 cycles
 Optimization completed.
    -- Stationary point found.
 Normal termination of Gaussian 16 at Sun Dec 13 12:43:32 2020.

 --------------------------------------------------------------------
 #N Geom=AllCheck Guess=TCheck SCRF=Check GenChk RB3LYP/6-31G(d) Freq
 --------------------------------------------------------------------

 Structure from the checkpoint file:  "JID_9674.chk"
 ------------------------------
 CID_61493009_JID_9674_neutraal
 ------------------------------
 Charge =  0 Multiplicity = 1

 SCF Done:  E(RB3LYP) =  -856.091864305     A.U. after    1 cycles

  Exact polarizability: 172.235 -12.537 196.664  32.753   3.892  99.520
 Approx polarizability: 275.473 -40.639 336.514  72.535   5.698 168.774

                      1                      2                      3
                      A                      A                      A
 Frequencies --     26.3854                40.0765                53.8347
 Red. masses --      6.4226                 5.3901                 4.2675
 Frc consts  --      0.0026                 0.0051                 0.0073
 IR Inten    --      3.0371                 1.4122                 1.1327

                      4                      5                      6
                      A                      A                      A
 Frequencies --     86.5740               100.1038               107.3066
 Red. masses --      6.6738                 4.8057                 9.0207
 Frc consts  --      0.0295                 0.0284                 0.0612
 IR Inten    --      5.8963                 1.5415                 1.6787

                      7                      8                      9
                      A                      A                      A
 Frequencies --    152.1730               176.4778               210.4254
 Red. masses --      4.9762                 4.9759                 3.6331
 Frc consts  --      0.0679                 0.0913                 0.0948
 IR Inten    --      0.5708                 0.7258                 0.1436

                     10                     11                     12
                      A                      A                      A
 Frequencies --    258.9690               268.7661               303.6413
 Red. masses --      3.9486                 4.9636                 2.8024
 Frc consts  --      0.1560                 0.2112                 0.1522
 IR Inten    --      1.6271                 1.1674                 3.4193

                     13                     14                     15
                      A                      A                      A
 Frequencies --    316.2003               331.0414               386.5599
 Red. masses --     10.5720                 2.5347                 3.2523
 Frc consts  --      0.6228                 0.1637                 0.2863
 IR Inten    --      5.9169                 1.3272                 1.0280

                     16                     17                     18
                      A                      A                      A
 Frequencies --    413.5193               477.3483               484.9992
 Red. masses --      3.8788                 4.1818                 5.5061
 Frc consts  --      0.3908                 0.5614                 0.7631
 IR Inten    --      1.6116                 2.9927                23.2854

                     19                     20                     21
                      A                      A                      A
 Frequencies --    500.1187               546.6747               561.1478
 Red. masses --      6.7344                 4.0979                 6.9254
 Frc consts  --      0.9924                 0.7216                 1.2848
 IR Inten    --      7.2126                 2.1487                 2.8377

                     22                     23                     24
                      A                      A                      A
 Frequencies --    585.9977               626.8058               676.4731
 Red. masses --      3.3071                 3.9766                 4.0351
 Frc consts  --      0.6691                 0.9205                 1.0879
 IR Inten    --      5.1549                 5.2798                20.8383

                     25                     26                     27
                      A                      A                      A
 Frequencies --    691.5824               694.3874               720.2749
 Red. masses --      3.6600                 4.2186                 2.4279
 Frc consts  --      1.0314                 1.1984                 0.7421
 IR Inten    --      1.9180                 6.3256                11.2902

                     28                     29                     30
                      A                      A                      A
 Frequencies --    721.8246               728.6454               767.4229
 Red. masses --      1.7383                 5.2578                 1.3621
 Frc consts  --      0.5336                 1.6447                 0.4726
 IR Inten    --     14.0262                 0.1516                46.4251

                     31                     32                     33
                      A                      A                      A
 Frequencies --    806.4056               811.4570               823.4305
 Red. masses --      1.5102                 1.4658                 4.8054
 Frc consts  --      0.5786                 0.5687                 1.9197
 IR Inten    --      6.3930                29.4947                 5.7350

                     34                     35                     36
                      A                      A                      A
 Frequencies --    848.7974               860.6979               892.3970
 Red. masses --      1.3200                 3.3702                 1.3573
 Frc consts  --      0.5603                 1.4710                 0.6368
 IR Inten    --      3.3664                 7.0049                 5.9213

                     37                     38                     39
                      A                      A                      A
 Frequencies --    898.9744               925.1803               961.4989
 Red. masses --      3.8462                 6.1690                 1.3642
 Frc consts  --      1.8314                 3.1111                 0.7431
 IR Inten    --      8.2799                 9.3828                 2.1078

                     40                     41                     42
                      A                      A                      A
 Frequencies --    971.8710               990.3337              1006.8780
 Red. masses --      4.6732                 1.2832                 2.3746
 Frc consts  --      2.6007                 0.7415                 1.4184
 IR Inten    --      9.0602                 0.6476                13.2937

                     43                     44                     45
                      A                      A                      A
 Frequencies --   1039.1089              1055.5811              1071.6968
 Red. masses --      2.9196                 2.2357                 2.0806
 Frc consts  --      1.8573                 1.4677                 1.4079
 IR Inten    --      1.3309                 4.3829                29.4813

                     46                     47                     48
                      A                      A                      A
 Frequencies --   1087.5080              1106.0286              1117.8533
 Red. masses --      2.7233                 1.6911                 2.1537
 Frc consts  --      1.8976                 1.2188                 1.5856
 IR Inten    --      1.7796                 2.7537                23.9627

                     49                     50                     51
                      A                      A                      A
 Frequencies --   1129.5098              1152.4419              1181.2328
 Red. masses --      2.0492                 2.0537                 1.7090
 Frc consts  --      1.5403                 1.6070                 1.4049
 IR Inten    --     17.1542                10.5964                30.8085

                     52                     53                     54
                      A                      A                      A
 Frequencies --   1203.5761              1223.6467              1235.1858
 Red. masses --      1.2907                 2.4826                 1.5760
 Frc consts  --      1.1016                 2.1902                 1.4166
 IR Inten    --     15.3266                12.5962                 2.7309

                     55                     56                     57
                      A                      A                      A
 Frequencies --   1270.3137              1299.2798              1319.5568
 Red. masses --      1.8174                 1.4196                 1.9403
 Frc consts  --      1.7279                 1.4120                 1.9905
 IR Inten    --     25.6946                27.1248                39.9882

                     58                     59                     60
                      A                      A                      A
 Frequencies --   1331.7143              1357.9857              1359.0355
 Red. masses --      1.4040                 2.1537                 3.7789
 Frc consts  --      1.4671                 2.3401                 4.1123
 IR Inten    --      6.2366                53.7012                 2.5522

                     61                     62                     63
                      A                      A                      A
 Frequencies --   1379.3283              1400.2042              1404.2667
 Red. masses --      1.9753                 3.7175                 1.9610
 Frc consts  --      2.2143                 4.2943                 2.2784
 IR Inten    --     37.5751                21.5419                33.1076

                     64                     65                     66
                      A                      A                      A
 Frequencies --   1416.0632              1426.7849              1445.4152
 Red. masses --      2.0304                 1.5873                 1.6358
 Frc consts  --      2.3988                 1.9038                 2.0136
 IR Inten    --     22.3711                28.0608                25.4734

                     67                     68                     69
                      A                      A                      A
 Frequencies --   1513.6455              1516.1505              1518.5130
 Red. masses --      1.1318                 1.9585                 1.2660
 Frc consts  --      1.5278                 2.6525                 1.7199
 IR Inten    --     21.9312                46.3515                66.3286

                     70                     71                     72
                      A                      A                      A
 Frequencies --   1522.3834              1525.5918              1543.9981
 Red. masses --      1.4497                 2.6915                 2.7510
 Frc consts  --      1.9797                 3.6908                 3.8640
 IR Inten    --     25.5764                 9.6545                 5.6262

                     73                     74                     75
                      A                      A                      A
 Frequencies --   1556.1530              1651.2155              1671.1447
 Red. masses --      2.4750                 6.4917                 6.9992
 Frc consts  --      3.5313                10.4284                11.5166
 IR Inten    --     24.9393                12.6287               272.1536

                     76                     77                     78
                      A                      A                      A
 Frequencies --   1824.2387              1839.3414              3060.7747
 Red. masses --     12.4487                12.8012                 1.0661
 Frc consts  --     24.4082                25.5168                 5.8845
 IR Inten    --    418.5149                82.2048                17.6969

                     79                     80                     81
                      A                      A                      A
 Frequencies --   3066.4166              3086.3327              3112.9006
 Red. masses --      1.0653                 1.0651                 1.0982
 Frc consts  --      5.9018                 5.9777                 6.2701
 IR Inten    --     30.8520                24.6719                 6.1375

                     82                     83                     84
                      A                      A                      A
 Frequencies --   3122.4845              3151.7313              3202.1894
 Red. masses --      1.1008                 1.1001                 1.0865
 Frc consts  --      6.3235                 6.4385                 6.5642
 IR Inten    --     19.0940                 8.8197                 0.3858

                     85                     86                     87
                      A                      A                      A
 Frequencies --   3212.0069              3222.0416              3230.8100
 Red. masses --      1.0904                 1.0950                 1.0951
 Frc consts  --      6.6281                 6.6980                 6.7346
 IR Inten    --      4.2910                16.3137                 2.5299

                     88                     89                     90
                      A                      A                      A
 Frequencies --   3259.1441              3265.7460              3293.5638
 Red. masses --      1.0923                 1.0968                 1.1025
 Frc consts  --      6.8362                 6.8917                 7.0461
 IR Inten    --      8.7093                 0.8106                 2.0426

 - Thermochemistry -
 -------------------
 Temperature   298.150 Kelvin.  Pressure   1.00000 Atm.
 Atom     1 has atomic number  6 and mass  12.00000

 Molecular mass:   255.10078 amu.
 Principal axes and moments of inertia in atomic units:
                           1         2         3
     Eigenvalues --  3076.170795219.103507454.36414
           X            0.99925   0.03844   0.00543
           Y           -0.03844   0.99926   0.00152
           Z           -0.00536  -0.00172   0.99998
 This molecule is an asymmetric top.
 Rotational symmetry number  1.
 Warning -- assumption of classical behavior for rotation
           may cause significant error
 Rotational temperatures (Kelvin)      0.02816     0.01660     0.01162
 Rotational constants (GHZ):           0.58668     0.34580     0.24211
 Zero-point vibrational energy     668685.7 (Joules/Mol)
                                  159.81971 (Kcal/Mol)
 Warning -- explicit consideration of  22 degrees of freedom as
           vibrations may cause significant error
 Vibrational temperatures:     37.96    57.66    77.46   124.56   144.03
          (Kelvin)            154.39   218.94   253.91   302.76   372.60
                              386.69   436.87   454.94   476.29   556.17
                              594.96   686.80   697.81   719.56   786.54
                              807.37   843.12   901.83   973.29   995.03
                              999.07  1036.31  1038.54  1048.36  1104.15
                             1160.24  1167.51  1184.73  1221.23  1238.35
                             1283.96  1293.42  1331.13  1383.38  1398.31
                             1424.87  1448.67  1495.05  1518.75  1541.93
                             1564.68  1591.33  1608.34  1625.11  1658.11
                             1699.53  1731.68  1760.55  1777.16  1827.70
                             1869.37  1898.55  1916.04  1953.84  1955.35
                             1984.55  2014.58  2020.43  2037.40  2052.83
                             2079.63  2177.80  2181.40  2184.80  2190.37
                             2194.99  2221.47  2238.96  2375.73  2404.40
                             2624.67  2646.40  4403.77  4411.89  4440.54
                             4478.77  4492.56  4534.64  4607.24  4621.36
                             4635.80  4648.41  4689.18  4698.68  4738.70

 Zero-point correction=                           0.254689 (Hartree/Particle)
 Thermal correction to Energy=                    0.270062
 Thermal correction to Enthalpy=                  0.271007
 Thermal correction to Gibbs Free Energy=         0.210560
 Sum of electronic and zero-point Energies=           -855.837175
 Sum of electronic and thermal Energies=              -855.821802
 Sum of electronic and thermal Enthalpies=            -855.820858
 Sum of electronic and thermal Free Energies=         -855.881305

                     E (Thermal)             CV                S
                      KCal/Mol        Cal/Mol-Kelvin    Cal/Mol-Kelvin
 Total                  169.467             59.650            127.221
 Electronic               0.000              0.000              0.000
 Translational            0.889              2.981             42.509
 Rotational               0.889              2.981             33.148
 Vibrational            167.689             53.688             51.564
 Vibration     1          0.593              1.985              6.084
 Vibration     2          0.594              1.981              5.255
 Vibration     3          0.596              1.976              4.671
 Vibration     4          0.601              1.959              3.736
 Vibration     5          0.604              1.949              3.452
 Vibration     6          0.606              1.943              3.317
 Vibration     7          0.619              1.900              2.645
 Vibration     8          0.628              1.871              2.365
 Vibration     9          0.643              1.825              2.040
 Vibration    10          0.668              1.748              1.669
 Vibration    11          0.673              1.731              1.604
 Vibration    12          0.695              1.667              1.397
 Vibration    13          0.703              1.643              1.330
 Vibration    14          0.713              1.614              1.255
 Vibration    15          0.755              1.499              1.013
 Vibration    16          0.777              1.441              0.914
 Vibration    17          0.834              1.300              0.717
 Vibration    18          0.841              1.283              0.697
 Vibration    19          0.856              1.250              0.658
 Vibration    20          0.902              1.147              0.551
 Vibration    21          0.917              1.115              0.522
 Vibration    22          0.943              1.062              0.474

                           ! Non-Optimized Parameters !
 Normal termination of Gaussian 16 at Sun Dec 13 13:02:20 2020.

 ----------------------------------------------------------------------
 # B3LYP/6-311++G(d,p) empiricaldispersion=gd3bj scf=xqc pop=npa geom=c
 heck
 ----------------------------------------------------------------------

 --------------------------------------
 CID_61493009_JID_9674_Energie_neutraal
 --------------------------------------
 Structure from the checkpoint file:  "JID_9674.chk"
 Charge =  0 Multiplicity = 1

 SCF Done:  E(RB3LYP) =  -856.320958521     A.U. after   17 cycles
 Normal termination of Gaussian 16 at Sun Dec 13 13:10:44 2020.

 ----------------------------------------------------------------------
 # B3LYP/6-311++G(d,p) empiricaldispersion=gd3bj scf=xqc pop=npa geom=c
 heck
 ----------------------------------------------------------------------

 ------------------------------------
 CID_61493009_JID_9674_Energie_kation
 ------------------------------------
 Structure from the checkpoint file:  "JID_9674.chk"
 Charge =  1 Multiplicity = 2

 SCF Done:  E(UB3LYP) =  -856.019815589     A.U. after   26 cycles
 Normal termination of Gaussian 16 at Sun Dec 13 13:29:19 2020.
 Gaussian 16:  ES64L-G16RevA.03 25-Dec-2016

 ----------------------------------------------------------------------
 # B3LYP/6-311++G(d,p) empiricaldispersion=gd3bj scf=xqc pop=npa geom=c
 heck
 ----------------------------------------------------------------------

 -----------------------------------
 CID_61493009_JID_9674_Energie_anion
 -----------------------------------
 Structure from the checkpoint file:  "JID_9674.chk"
 Charge = -1 Multiplicity = 2

                         Standard orientation:
 ---------------------------------------------------------------------
 Center     Atomic      Atomic             Coordinates (Angstroms)
 Number     Number       Type             X           Y           Z
 ---------------------------------------------------------------------
      1          6           0        1.393662    3.190327   -0.069212
      2          6           0        0.182894    2.771995   -0.632054
      3          6           0       -0.100873    1.419802   -0.868761
      4          6           0        0.865261    0.490629   -0.510790
      5          6           0        2.088240    0.900127    0.059282
      6          6           0        2.361024    2.245892    0.281307
      7          6           0        2.886049   -0.302211    0.330605
      8          8           0        3.989357   -0.426307    0.816207
      9          6           0        1.986835   -1.491500   -0.147014
     10          8           0        2.234962   -2.679682   -0.115701
     11          7           0        0.819636   -0.915892   -0.619461
     12          6           0       -0.266312   -1.707504   -1.176361
     13          6           0       -1.026759   -2.515549   -0.116730
     14          6           0       -1.566433   -1.691237    1.054128
     15          7           0       -2.379296   -0.551571    0.640356
     16          6           0       -3.342386   -0.519665   -0.352852
     17          6           0       -3.819426    0.770063   -0.362730
     18          7           0       -3.182931    1.530422    0.594132
     19          6           0       -2.333928    0.707299    1.174899
     20          1           0        1.574501    4.246839    0.099702
     21          1           0       -0.575106    3.507711   -0.882578
     22          1           0       -1.057508    1.130248   -1.287410
     23          1           0        3.309809    2.535889    0.722530
     24          1           0       -0.938781   -1.029686   -1.704265
     25          1           0        0.160311   -2.399500   -1.909355
     26          1           0       -1.845399   -3.046686   -0.617265
     27          1           0       -0.358505   -3.279386    0.292782
     28          1           0       -2.150308   -2.340456    1.717094
     29          1           0       -0.735868   -1.287598    1.640163
     30          1           0       -3.600037   -1.395295   -0.928494
     31          1           0       -4.584616    1.191728   -1.000417
     32          1           0       -1.641994    0.962581    1.965973
 ---------------------------------------------------------------------

 SCF Done:  E(UB3LYP) =  -856.370952637     A.U. after   23 cycles

 The electronic state is 2-A.
 Alpha  occ. eigenvalues --  -18.94571 -18.92540 -14.28474 -14.21756 -14.20511
 Alpha  occ. eigenvalues --  -10.13432 -10.13356 -10.11459 -10.10730 -10.10724
 Alpha  occ. eigenvalues --  -10.10115 -10.08870 -10.07758 -10.06476 -10.04344
 Alpha  occ. eigenvalues --  -10.03900 -10.03841 -10.03687 -10.02323  -0.93270
 Alpha  occ. eigenvalues --   -0.90316  -0.86185  -0.82889  -0.80225  -0.72159
 Alpha  occ. eigenvalues --   -0.69483  -0.66401  -0.63826  -0.61913  -0.59138
 Alpha  occ. eigenvalues --   -0.55303  -0.51594  -0.50894  -0.48745  -0.47715
 Alpha  occ. eigenvalues --   -0.44942  -0.43508  -0.42273  -0.40240  -0.37477
 Alpha  occ. eigenvalues --   -0.36818  -0.35814  -0.34730  -0.34599  -0.33082
 Alpha  occ. eigenvalues --   -0.32504  -0.32169  -0.31090  -0.30630  -0.30368
 Alpha  occ. eigenvalues --   -0.27911  -0.27454  -0.27117  -0.26507  -0.25955
 Alpha  occ. eigenvalues --   -0.23793  -0.23622  -0.21714  -0.21657  -0.18864
 Alpha  occ. eigenvalues --   -0.18658  -0.17517  -0.15114  -0.14134  -0.12527
 Alpha  occ. eigenvalues --   -0.08647  -0.07350   0.01349
 Alpha virt. eigenvalues --    0.06224   0.07564   0.08345   0.09273   0.09986
 Alpha virt. eigenvalues --    0.10428   0.10651   0.11289   0.11583   0.11795
 Alpha virt. eigenvalues --    0.12129   0.12678   0.13442   0.13794   0.14361

  Beta  occ. eigenvalues --  -18.94247 -18.91786 -14.28474 -14.21774 -14.20512
  Beta  occ. eigenvalues --  -10.13431 -10.13356 -10.11459 -10.10732 -10.10576
  Beta  occ. eigenvalues --  -10.10114 -10.08866 -10.07594 -10.06228 -10.04427
  Beta  occ. eigenvalues --  -10.03960 -10.03607 -10.03517 -10.02302  -0.93269
  Beta  occ. eigenvalues --   -0.89803  -0.84898  -0.82634  -0.80215  -0.71978
  Beta  occ. eigenvalues --   -0.69404  -0.66376  -0.63574  -0.61708  -0.58992
  Beta  occ. eigenvalues --   -0.54943  -0.51409  -0.50642  -0.48711  -0.47612
  Beta  occ. eigenvalues --   -0.44834  -0.43172  -0.42069  -0.40191  -0.37253
  Beta  occ. eigenvalues --   -0.36748  -0.35674  -0.34675  -0.34528  -0.32890
  Beta  occ. eigenvalues --   -0.32482  -0.31924  -0.30792  -0.30454  -0.30125
  Beta  occ. eigenvalues --   -0.27815  -0.27086  -0.26539  -0.26236  -0.25419
  Beta  occ. eigenvalues --   -0.23657  -0.22614  -0.21499  -0.18978  -0.18786
  Beta  occ. eigenvalues --   -0.18617  -0.16518  -0.15028  -0.13691  -0.11323
  Beta  occ. eigenvalues --   -0.07987  -0.06741
  Beta virt. eigenvalues --    0.06199   0.07545   0.08159   0.08396   0.09259
  Beta virt. eigenvalues --    0.09984   0.10444   0.10681   0.11294   0.11607
  Beta virt. eigenvalues --    0.11895   0.12565   0.12738   0.13460   0.13820

 Mulliken charges and spin densities:
               1          2
     1  C   -0.538002  -0.066984
     2  C   -0.367545   0.206660
     3  C    0.582704  -0.059249
     4  C   -0.502270   0.082314
     5  C    0.349951   0.012719
     6  C   -0.158098   0.182390
     7  C   -0.517439   0.148265
     8  O   -0.426430   0.276218
     9  C    0.125988   0.122386
    10  O   -0.413852   0.118501
    11  N    0.224085  -0.009004
    12  C   -0.100914  -0.018749
    13  C   -0.268901   0.008448
    14  C   -0.278272   0.002157
    15  N    0.093059   0.000028
    16  C    0.000851  -0.000369
    17  C   -0.334169  -0.002574
    18  N   -0.075687   0.000107
    19  C   -0.392369  -0.000307
    20  H    0.113495   0.003556
    21  H    0.142769  -0.015505
    22  H    0.132777   0.005709
    23  H    0.157926  -0.009857
    24  H    0.123672  -0.001472
    25  H    0.206840   0.001440
    26  H    0.098974   0.008875
    27  H    0.225747   0.001269
    28  H    0.188317   0.001478
    29  H    0.185435  -0.000221
    30  H    0.128382   0.000336
    31  H    0.132736   0.000011
    32  H    0.160240   0.001422
 Sum of Mulliken charges =  -1.00000   1.00000

 Dipole moment (field-independent basis, Debye):
    X=            -10.8286    Y=             -1.1580    Z=             -1.3118  Tot=             10.9691
 Quadrupole moment (field-independent basis, Debye-Ang):
   XX=           -173.0721   YY=           -139.1397   ZZ=           -115.9614
   XY=             22.8483   XZ=             -1.5829   YZ=              0.5915

 Summary of Natural Population Analysis:

                                       Natural Population
                Natural  -----------------------------------------------
    Atom  No    Charge         Core      Valence    Rydberg      Total
 -----------------------------------------------------------------------
      C    1   -0.14659      0.99958     2.13749    0.00952     3.14659
      C    2   -0.04313      0.99959     2.03397    0.00957     3.04313
      C    3   -0.16077      0.99952     2.15297    0.00828     3.16077
      C    4    0.13314      0.99945     1.85657    0.01084     2.86686
      C    5   -0.07817      0.99945     2.06916    0.00956     3.07817
      C    6   -0.04553      0.99954     2.03728    0.00871     3.04553
      C    7    0.25430      0.99959     1.72448    0.02164     2.74570
      O    8   -0.19192      0.99987     3.18486    0.00718     4.19192
      C    9    0.33449      0.99965     1.64023    0.02563     2.66551
      O   10   -0.28405      0.99987     3.27732    0.00685     4.28405
      N   11   -0.26099      0.99960     2.75016    0.01123     3.76099
      C   12   -0.08556      0.99963     2.07544    0.01050     3.08556
      C   13   -0.20062      0.99962     2.19450    0.00650     3.20062
      C   14   -0.08176      0.99961     2.07363    0.00852     3.08176
      N   15   -0.21061      0.99965     2.69905    0.01192     3.71061
      C   16   -0.04796      0.99957     2.03817    0.01022     3.04796
      C   17   -0.03861      0.99960     2.02507    0.01394     3.03861
      N   18   -0.25512      0.99973     2.74409    0.01130     3.75512
      C   19    0.11594      0.99965     1.86815    0.01626     2.88406
      H   20    0.09172      0.00000     0.40723    0.00105     0.40828
      H   21    0.09154      0.00000     0.40769    0.00078     0.40846
      H   22    0.10086      0.00000     0.39742    0.00172     0.39914
      H   23    0.09818      0.00000     0.40000    0.00183     0.40182
      H   24    0.09890      0.00000     0.39999    0.00111     0.40110
      H   25    0.10311      0.00000     0.39579    0.00110     0.39689
      H   26    0.09075      0.00000     0.40816    0.00108     0.40925
      H   27    0.11757      0.00000     0.38122    0.00121     0.38243
      H   28    0.09418      0.00000     0.40472    0.00111     0.40582
      H   29    0.11017      0.00000     0.38890    0.00093     0.38983
      H   30    0.10237      0.00000     0.39665    0.00098     0.39763
      H   31    0.09461      0.00000     0.40444    0.00096     0.40539
      H   32    0.09959      0.00000     0.39933    0.00108     0.40041
 =======================================================================
   * Total *    0.00001     18.99276    47.77414    0.23309    66.99999

 Normal termination of Gaussian 16 at Sun Dec 13 13:45:59 2020.
