 Gaussian 16, Revision A.03,

 -----------------------------------------------------------
 # opt freq B3LYP/6-31G(d) empiricaldispersion=gd3bj scf=xqc
 -----------------------------------------------------------

 ------------------------------
 CID_90915523_JID_1527_neutraal
 ------------------------------
 Symbolic Z-matrix:
 Charge =  0 Multiplicity = 1

 SCF Done:  E(RB3LYP) =  -863.095048943     A.U. after   14 cycles
 SCF Done:  E(RB3LYP) =  -863.097967304     A.U. after   12 cycles
 SCF Done:  E(RB3LYP) =  -863.098505693     A.U. after   12 cycles
 SCF Done:  E(RB3LYP) =  -863.098679270     A.U. after   12 cycles
 SCF Done:  E(RB3LYP) =  -863.098729704     A.U. after   11 cycles
 SCF Done:  E(RB3LYP) =  -863.098751737     A.U. after   11 cycles
 SCF Done:  E(RB3LYP) =  -863.098755935     A.U. after    9 cycles
 SCF Done:  E(RB3LYP) =  -863.098757318     A.U. after    8 cycles
 SCF Done:  E(RB3LYP) =  -863.098757657     A.U. after    7 cycles
 Optimization completed.
    -- Stationary point found.
 Normal termination of Gaussian 16 at Tue Dec  8 20:22:52 2020.

 --------------------------------------------------------------------
 #N Geom=AllCheck Guess=TCheck SCRF=Check GenChk RB3LYP/6-31G(d) Freq
 --------------------------------------------------------------------

 Structure from the checkpoint file:  "JID_1527.chk"
 ------------------------------
 CID_90915523_JID_1527_neutraal
 ------------------------------
 Charge =  0 Multiplicity = 1

 SCF Done:  E(RB3LYP) =  -863.098757657     A.U. after    1 cycles

  Exact polarizability: 137.911  -1.449  96.573  -0.388  -2.888  91.556
 Approx polarizability: 183.406  -2.306 137.583   0.060 -10.974 144.708

                      1                      2                      3
                      A                      A                      A
 Frequencies --     21.7473                38.4504                58.3371
 Red. masses --      4.0037                 4.4147                 2.7443
 Frc consts  --      0.0011                 0.0038                 0.0055
 IR Inten    --      1.3972                 3.5741                 0.4989

                      4                      5                      6
                      A                      A                      A
 Frequencies --     77.7837               102.6209               158.2675
 Red. masses --      3.7492                 2.5085                 1.8376
 Frc consts  --      0.0134                 0.0156                 0.0271
 IR Inten    --      1.3766                 2.6125                 0.1068

                      7                      8                      9
                      A                      A                      A
 Frequencies --    187.2811               211.2049               235.4395
 Red. masses --      1.0864                 2.8120                 1.8033
 Frc consts  --      0.0225                 0.0739                 0.0589
 IR Inten    --      1.0359                 2.2369                 0.5075

                     10                     11                     12
                      A                      A                      A
 Frequencies --    269.0361               282.5331               295.6581
 Red. masses --      2.3806                 2.4093                 2.9758
 Frc consts  --      0.1015                 0.1133                 0.1533
 IR Inten    --      2.0544                 1.0425                 1.4081

                     13                     14                     15
                      A                      A                      A
 Frequencies --    315.7400               345.3918               394.3303
 Red. masses --      2.1664                 3.7446                 2.1042
 Frc consts  --      0.1272                 0.2632                 0.1928
 IR Inten    --      0.6228                 2.4997                 0.9516

                     16                     17                     18
                      A                      A                      A
 Frequencies --    439.4872               490.0134               491.2180
 Red. masses --      4.2966                 3.9896                 2.6105
 Frc consts  --      0.4889                 0.5644                 0.3711
 IR Inten    --     29.6870                33.4288                 5.6547

                     19                     20                     21
                      A                      A                      A
 Frequencies --    553.0260               654.9188               735.1371
 Red. masses --      2.8149                 4.5020                 2.2582
 Frc consts  --      0.5072                 1.1377                 0.7190
 IR Inten    --      3.1399                 8.3479                32.2493

                     22                     23                     24
                      A                      A                      A
 Frequencies --    747.5051               811.4456               849.0773
 Red. masses --      1.5114                 2.0050                 1.7538
 Frc consts  --      0.4976                 0.7778                 0.7450
 IR Inten    --     11.2863                 0.8837                 4.1357

                     25                     26                     27
                      A                      A                      A
 Frequencies --    866.6586               911.4428               953.3774
 Red. masses --      1.6608                 1.8385                 1.9171
 Frc consts  --      0.7350                 0.8999                 1.0267
 IR Inten    --      1.1988                18.8620                 2.1522

                     28                     29                     30
                      A                      A                      A
 Frequencies --    969.5647               985.9741               993.8348
 Red. masses --      1.6079                 1.3389                 1.4997
 Frc consts  --      0.8905                 0.7669                 0.8727
 IR Inten    --      2.5555                 1.5677                16.7855

                     31                     32                     33
                      A                      A                      A
 Frequencies --   1019.0454              1047.5768              1073.3449
 Red. masses --      1.1441                 1.4951                 2.3464
 Frc consts  --      0.7000                 0.9667                 1.5927
 IR Inten    --     26.0282                 7.9983                10.5853

                     34                     35                     36
                      A                      A                      A
 Frequencies --   1099.7796              1121.4465              1135.6248
 Red. masses --      2.3421                 3.5584                 1.9681
 Frc consts  --      1.6690                 2.6367                 1.4955
 IR Inten    --     64.1936                73.8600                26.0115

                     37                     38                     39
                      A                      A                      A
 Frequencies --   1145.5447              1187.6848              1240.1085
 Red. masses --      1.8934                 1.4101                 1.2957
 Frc consts  --      1.4639                 1.1720                 1.1741
 IR Inten    --     44.4635                 5.0050                 2.3763

                     40                     41                     42
                      A                      A                      A
 Frequencies --   1268.8878              1277.1964              1320.7756
 Red. masses --      1.4386                 1.3774                 2.6479
 Frc consts  --      1.3647                 1.3238                 2.7215
 IR Inten    --     14.6392                10.7247               110.7200

                     43                     44                     45
                      A                      A                      A
 Frequencies --   1330.9132              1343.2447              1360.1641
 Red. masses --      1.4726                 1.2784                 1.2852
 Frc consts  --      1.5368                 1.3590                 1.4009
 IR Inten    --     34.0990                 2.3539                17.0849

                     46                     47                     48
                      A                      A                      A
 Frequencies --   1370.1805              1380.1346              1396.8662
 Red. masses --      1.2185                 1.4394                 1.3186
 Frc consts  --      1.3479                 1.6154                 1.5159
 IR Inten    --     13.4590                 3.0623                10.6660

                     49                     50                     51
                      A                      A                      A
 Frequencies --   1412.0358              1444.6610              1476.4877
 Red. masses --      1.4394                 1.2583                 1.0921
 Frc consts  --      1.6910                 1.5472                 1.4027
 IR Inten    --      2.1403                 7.2449                 1.9428

                     52                     53                     54
                      A                      A                      A
 Frequencies --   1484.9882              1487.8789              1510.3035
 Red. masses --      1.0746                 1.0508                 1.0789
 Frc consts  --      1.3962                 1.3706                 1.4500
 IR Inten    --     13.7390                 7.4800                 2.0583

                     55                     56                     57
                      A                      A                      A
 Frequencies --   1521.2710              1523.6587              1534.1238
 Red. masses --      1.0964                 1.0611                 1.0579
 Frc consts  --      1.4950                 1.4514                 1.4669
 IR Inten    --      6.4288                 2.0388                 7.9611

                     58                     59                     60
                      A                      A                      A
 Frequencies --   1540.6655              1747.5198              3032.8623
 Red. masses --      1.0686                 5.8771                 1.0600
 Frc consts  --      1.4944                10.5745                 5.7445
 IR Inten    --      2.3302                 2.4780                26.9902

                     61                     62                     63
                      A                      A                      A
 Frequencies --   3034.7899              3042.0432              3047.5400
 Red. masses --      1.0654                 1.0575                 1.0424
 Frc consts  --      5.7815                 5.7660                 5.7041
 IR Inten    --     24.2588                 4.0968                29.0844

                     64                     65                     66
                      A                      A                      A
 Frequencies --   3066.5919              3075.4638              3076.0813
 Red. masses --      1.0971                 1.0916                 1.0676
 Frc consts  --      6.0786                 6.0833                 5.9520
 IR Inten    --     24.8407                56.7889                 3.4754

                     67                     68                     69
                      A                      A                      A
 Frequencies --   3088.0007              3088.8755              3110.7249
 Red. masses --      1.0328                 1.0986                 1.1022
 Frc consts  --      5.8028                 6.1757                 6.2840
 IR Inten    --      0.5186                40.4727                57.4517

                     70                     71                     72
                      A                      A                      A
 Frequencies --   3116.9567              3135.4926              3140.1677
 Red. masses --      1.1017                 1.1052                 1.0897
 Frc consts  --      6.3063                 6.4017                 6.3311
 IR Inten    --     39.8643                 0.6332                22.4123

                     73                     74                     75
                      A                      A                      A
 Frequencies --   3182.7701              3186.7569              3197.4705
 Red. masses --      1.0895                 1.1064                 1.1071
 Frc consts  --      6.5025                 6.6199                 6.6687
 IR Inten    --      7.7140                 1.5360                 1.0499

 - Thermochemistry -
 -------------------
 Temperature   298.150 Kelvin.  Pressure   1.00000 Atm.
 Atom     1 has atomic number  6 and mass  12.00000

 Molecular mass:   176.08710 amu.
 Principal axes and moments of inertia in atomic units:
                           1         2         3
     Eigenvalues --   967.965404579.580284824.33006
           X            0.99998  -0.00656  -0.00033
           Y            0.00656   0.99993   0.00936
           Z            0.00026  -0.00936   0.99996
 This molecule is an asymmetric top.
 Rotational symmetry number  1.
 Warning -- assumption of classical behavior for rotation
           may cause significant error
 Rotational temperatures (Kelvin)      0.08948     0.01891     0.01795
 Rotational constants (GHZ):           1.86447     0.39408     0.37409
 Zero-point vibrational energy     615306.4 (Joules/Mol)
                                  147.06177 (Kcal/Mol)
 Warning -- explicit consideration of  19 degrees of freedom as
           vibrations may cause significant error
 Vibrational temperatures:     31.29    55.32    83.93   111.91   147.65
          (Kelvin)            227.71   269.46   303.88   338.74   387.08
                              406.50   425.39   454.28   496.94   567.35
                              632.32   705.02   706.75   795.68   942.28
                             1057.70  1075.49  1167.49  1221.63  1246.93
                             1311.36  1371.70  1394.99  1418.60  1429.91
                             1466.18  1507.23  1544.30  1582.34  1613.51
                             1633.91  1648.18  1708.81  1784.24  1825.65
                             1837.60  1900.30  1914.89  1932.63  1956.97
                             1971.38  1985.71  2009.78  2031.60  2078.54
                             2124.34  2136.57  2140.73  2172.99  2188.77
                             2192.21  2207.26  2216.67  2514.29  4363.61
                             4366.39  4376.82  4384.73  4412.14  4424.91
                             4425.79  4442.94  4444.20  4475.64  4484.61
                             4511.27  4518.00  4579.30  4585.03  4600.45

 Zero-point correction=                           0.234358 (Hartree/Particle)
 Thermal correction to Energy=                    0.247961
 Thermal correction to Enthalpy=                  0.248906
 Thermal correction to Gibbs Free Energy=         0.192442
 Sum of electronic and zero-point Energies=           -862.864400
 Sum of electronic and thermal Energies=              -862.850796
 Sum of electronic and thermal Enthalpies=            -862.849852
 Sum of electronic and thermal Free Energies=         -862.906315

                     E (Thermal)             CV                S
                      KCal/Mol        Cal/Mol-Kelvin    Cal/Mol-Kelvin
 Total                  155.598             48.747            118.837
 Electronic               0.000              0.000              0.000
 Translational            0.889              2.981             41.405
 Rotational               0.889              2.981             31.437
 Vibrational            153.821             42.785             45.996
 Vibration     1          0.593              1.985              6.468
 Vibration     2          0.594              1.982              5.337
 Vibration     3          0.596              1.974              4.513
 Vibration     4          0.599              1.964              3.946
 Vibration     5          0.605              1.947              3.404
 Vibration     6          0.621              1.893              2.570
 Vibration     7          0.632              1.857              2.255
 Vibration     8          0.643              1.824              2.033
 Vibration     9          0.655              1.787              1.837
 Vibration    10          0.673              1.730              1.602
 Vibration    11          0.682              1.706              1.518
 Vibration    12          0.690              1.682              1.441
 Vibration    13          0.703              1.644              1.332
 Vibration    14          0.724              1.585              1.187
 Vibration    15          0.761              1.482              0.984
 Vibration    16          0.800              1.384              0.828
 Vibration    17          0.846              1.272              0.684
 Vibration    18          0.847              1.270              0.680
 Vibration    19          0.908              1.133              0.538

                           ! Non-Optimized Parameters !
 Normal termination of Gaussian 16 at Tue Dec  8 20:28:44 2020.

 ----------------------------------------------------------------------
 # B3LYP/6-311++G(d,p) empiricaldispersion=gd3bj scf=xqc pop=npa geom=c
 heck
 ----------------------------------------------------------------------

 --------------------------------------
 CID_90915523_JID_1527_Energie_neutraal
 --------------------------------------
 Structure from the checkpoint file:  "JID_1527.chk"
 Charge =  0 Multiplicity = 1

 SCF Done:  E(RB3LYP) =  -863.263363606     A.U. after   14 cycles
 Normal termination of Gaussian 16 at Tue Dec  8 20:32:14 2020.

 ----------------------------------------------------------------------
 # B3LYP/6-311++G(d,p) empiricaldispersion=gd3bj scf=xqc pop=npa geom=c
 heck
 ----------------------------------------------------------------------

 ------------------------------------
 CID_90915523_JID_1527_Energie_kation
 ------------------------------------
 Structure from the checkpoint file:  "JID_1527.chk"
 Charge =  1 Multiplicity = 2

 SCF Done:  E(UB3LYP) =  -862.926872379     A.U. after   20 cycles
 Normal termination of Gaussian 16 at Tue Dec  8 20:38:13 2020.
 Gaussian 16:  ES64L-G16RevA.03 25-Dec-2016

 ----------------------------------------------------------------------
 # B3LYP/6-311++G(d,p) empiricaldispersion=gd3bj scf=xqc pop=npa geom=c
 heck
 ----------------------------------------------------------------------

 -----------------------------------
 CID_90915523_JID_1527_Energie_anion
 -----------------------------------
 Structure from the checkpoint file:  "JID_1527.chk"
 Charge = -1 Multiplicity = 2

                         Standard orientation:
 ---------------------------------------------------------------------
 Center     Atomic      Atomic             Coordinates (Angstroms)
 Number     Number       Type             X           Y           Z
 ---------------------------------------------------------------------
      1          6           0       -4.211071    0.885282   -0.832857
      2          6           0       -3.184117    1.079056    0.286691
      3          6           0       -2.861490   -0.202481    1.068944
      4          6           0       -2.298515   -1.364871    0.220972
      5          6           0       -1.064571   -0.983276   -0.544437
      6          6           0        0.176012   -1.371078   -0.233418
      7          6           0        1.393871   -0.914995   -0.966198
      8         16           0        2.428444    0.203745    0.051477
      9          8           0        2.648752   -0.447362    1.352728
     10          8           0        3.565882    0.634783   -0.775962
     11          6           0        1.356964    1.633139    0.324770
     12          1           0       -3.837891    0.218323   -1.618512
     13          1           0       -4.464054    1.840151   -1.306174
     14          1           0       -5.139055    0.448740   -0.443706
     15          1           0       -2.259204    1.497410   -0.133315
     16          1           0       -3.558725    1.829609    0.994273
     17          1           0       -2.134574    0.032632    1.857275
     18          1           0       -3.770896   -0.553731    1.575113
     19          1           0       -2.072722   -2.207553    0.884794
     20          1           0       -3.070849   -1.711962   -0.478006
     21          1           0       -1.205330   -0.319370   -1.399019
     22          1           0        0.348323   -2.023696    0.620217
     23          1           0        2.085041   -1.731477   -1.204122
     24          1           0        1.162493   -0.373038   -1.887957
     25          1           0        1.145612    2.114052   -0.632263
     26          1           0        0.439233    1.305718    0.814547
     27          1           0        1.917919    2.310245    0.972287
 ---------------------------------------------------------------------

 SCF Done:  E(UB3LYP) =  -863.254636755     A.U. after   31 cycles

 The electronic state is 2-A.
 Alpha  occ. eigenvalues --  -88.94458 -19.01657 -19.01597 -10.11859 -10.10662
 Alpha  occ. eigenvalues --  -10.08256 -10.08115 -10.07443 -10.06656 -10.05999
 Alpha  occ. eigenvalues --  -10.05350  -8.01011  -5.97262  -5.97148  -5.97110
 Alpha  occ. eigenvalues --   -1.00862  -0.90587  -0.73433  -0.70294  -0.67301
 Alpha  occ. eigenvalues --   -0.64608  -0.60080  -0.54679  -0.50416  -0.47984
 Alpha  occ. eigenvalues --   -0.45322  -0.40881  -0.39562  -0.38664  -0.36755
 Alpha  occ. eigenvalues --   -0.36626  -0.35308  -0.33729  -0.32910  -0.32656
 Alpha  occ. eigenvalues --   -0.31170  -0.29590  -0.29029  -0.27164  -0.26032
 Alpha  occ. eigenvalues --   -0.23947  -0.23166  -0.22751  -0.22495  -0.22171
 Alpha  occ. eigenvalues --   -0.20881  -0.20436  -0.16002   0.04264
 Alpha virt. eigenvalues --    0.06774   0.07248   0.07596   0.08399   0.09169
 Alpha virt. eigenvalues --    0.09628   0.09800   0.10577   0.10854   0.12017
 Alpha virt. eigenvalues --    0.12205   0.12627   0.13089   0.13669   0.14407

  Beta  occ. eigenvalues --  -88.94442 -19.01646 -19.01589 -10.11832 -10.10601
  Beta  occ. eigenvalues --  -10.08212 -10.08049 -10.07436 -10.06631 -10.05959
  Beta  occ. eigenvalues --  -10.05309  -8.00990  -5.97248  -5.97126  -5.97093
  Beta  occ. eigenvalues --   -1.00823  -0.90554  -0.73335  -0.70226  -0.67211
  Beta  occ. eigenvalues --   -0.64524  -0.59996  -0.54591  -0.50321  -0.47858
  Beta  occ. eigenvalues --   -0.45217  -0.40833  -0.39521  -0.38612  -0.36696
  Beta  occ. eigenvalues --   -0.36580  -0.35249  -0.33660  -0.32858  -0.32597
  Beta  occ. eigenvalues --   -0.31106  -0.29521  -0.28970  -0.27116  -0.25972
  Beta  occ. eigenvalues --   -0.23886  -0.23092  -0.22715  -0.22469  -0.22114
  Beta  occ. eigenvalues --   -0.20850  -0.20364  -0.15776
  Beta virt. eigenvalues --    0.06708   0.07470   0.07861   0.08078   0.08992
  Beta virt. eigenvalues --    0.09586   0.10123   0.10320   0.10939   0.11324
  Beta virt. eigenvalues --    0.12318   0.12600   0.12800   0.13238   0.14007

 Mulliken charges and spin densities:
               1          2
     1  C    1.323434  -1.951471
     2  C   -0.644860   0.526325
     3  C    0.566546  -0.850120
     4  C    0.230653  -0.547528
     5  C   -0.229893   0.354355
     6  C    0.312687  -0.352170
     7  C   -0.406686  -0.477219
     8  S    0.329265   0.144642
     9  O   -0.247153   0.019699
    10  O   -0.220292   0.015914
    11  C    0.164035  -0.843780
    12  H   -0.337922   0.483110
    13  H   -0.406774   0.550931
    14  H   -0.138468   0.276088
    15  H   -0.032137   0.163119
    16  H   -0.636816   0.795573
    17  H    0.041482   0.095113
    18  H   -0.248184   0.399255
    19  H   -0.100900   0.264522
    20  H   -0.055456   0.204346
    21  H   -0.217816   0.378831
    22  H    0.040991   0.149841
    23  H    0.091101   0.120894
    24  H    0.046093   0.206912
    25  H   -0.260890   0.471000
    26  H    0.090328   0.124544
    27  H   -0.052369   0.277275
 Sum of Mulliken charges =  -1.00000   1.00000

 Dipole moment (field-independent basis, Debye):
    X=              3.8613    Y=             -3.6981    Z=             -0.1403  Tot=              5.3484
 Quadrupole moment (field-independent basis, Debye-Ang):
   XX=           -166.4114   YY=           -113.5180   ZZ=           -110.0831
   XY=              7.0369   XZ=             -2.0056   YZ=              4.5324

 Summary of Natural Population Analysis:

                                       Natural Population
                Natural  -----------------------------------------------
    Atom  No    Charge         Core      Valence    Rydberg      Total
 -----------------------------------------------------------------------
      C    1   -0.28506      0.99967     2.28057    0.00482     3.28506
      C    2   -0.19293      0.99964     2.18481    0.00848     3.19293
      C    3   -0.18290      0.99962     2.17423    0.00905     3.18290
      C    4   -0.20743      0.99961     2.19907    0.00875     3.20743
      C    5   -0.06180      0.99950     2.05126    0.01104     3.06180
      C    6   -0.11517      0.99950     2.10535    0.01032     3.11517
      C    7   -0.29626      0.99957     2.28288    0.01381     3.29626
      S    8    1.01856      4.99932     1.88845    0.09367     6.98144
      O    9   -0.47206      0.99991     3.46652    0.00564     4.47206
      O   10   -0.47226      0.99991     3.46651    0.00584     4.47226
      C   11   -0.39369      0.99961     2.38582    0.00826     3.39369
      H   12    0.09360      0.00000     0.40483    0.00156     0.40640
      H   13    0.10127      0.00000     0.39710    0.00163     0.39873
      H   14    0.09516      0.00000     0.40334    0.00150     0.40484
      H   15    0.09504      0.00000     0.40251    0.00245     0.40496
      H   16    0.09810      0.00000     0.40016    0.00174     0.40190
      H   17    0.09574      0.00000     0.40279    0.00147     0.40426
      H   18    0.09660      0.00000     0.40200    0.00140     0.40340
      H   19    0.09965      0.00000     0.39905    0.00130     0.40035
      H   20    0.10275      0.00000     0.39577    0.00148     0.39725
      H   21    0.09308      0.00000     0.40521    0.00171     0.40692
      H   22    0.10099      0.00000     0.39774    0.00127     0.39901
      H   23    0.11669      0.00000     0.38224    0.00107     0.38331
      H   24    0.11531      0.00000     0.38344    0.00125     0.38469
      H   25    0.11718      0.00000     0.38117    0.00165     0.38282
      H   26    0.12088      0.00000     0.37764    0.00148     0.37912
      H   27    0.11896      0.00000     0.37990    0.00114     0.38104
 =======================================================================
   * Total *    0.00000     14.99587    32.80035    0.20379    48.00000

 Normal termination of Gaussian 16 at Tue Dec  8 20:48:35 2020.
