 Gaussian 16, Revision A.03,

 -----------------------------------------------------------
 # opt freq B3LYP/6-31G(d) empiricaldispersion=gd3bj scf=xqc
 -----------------------------------------------------------

 --------------------------------
 CID_116386802_JID_10755_neutraal
 --------------------------------
 Symbolic Z-matrix:
 Charge =  0 Multiplicity = 1

 SCF Done:  E(RB3LYP) =  -1292.61091990     A.U. after   15 cycles
 SCF Done:  E(RB3LYP) =  -1292.61928383     A.U. after   13 cycles
 SCF Done:  E(RB3LYP) =  -1292.61837226     A.U. after   14 cycles
 SCF Done:  E(RB3LYP) =  -1292.62034393     A.U. after   13 cycles
 SCF Done:  E(RB3LYP) =  -1292.62137943     A.U. after   12 cycles
 SCF Done:  E(RB3LYP) =  -1292.62124575     A.U. after   12 cycles
 SCF Done:  E(RB3LYP) =  -1292.62158970     A.U. after   11 cycles
 SCF Done:  E(RB3LYP) =  -1292.62164945     A.U. after   11 cycles
 SCF Done:  E(RB3LYP) =  -1292.62167375     A.U. after   10 cycles
 SCF Done:  E(RB3LYP) =  -1292.62168385     A.U. after   10 cycles
 SCF Done:  E(RB3LYP) =  -1292.62169931     A.U. after   10 cycles
 SCF Done:  E(RB3LYP) =  -1292.62169974     A.U. after    9 cycles
 SCF Done:  E(RB3LYP) =  -1292.62169990     A.U. after    8 cycles
 SCF Done:  E(RB3LYP) =  -1292.62169996     A.U. after    8 cycles
 SCF Done:  E(RB3LYP) =  -1292.62169999     A.U. after    7 cycles
 Optimization completed.
    -- Stationary point found.
 Normal termination of Gaussian 16 at Mon Dec 14 17:54:14 2020.

 --------------------------------------------------------------------
 #N Geom=AllCheck Guess=TCheck SCRF=Check GenChk RB3LYP/6-31G(d) Freq
 --------------------------------------------------------------------

 Structure from the checkpoint file:  "JID_10755.chk"
 --------------------------------
 CID_116386802_JID_10755_neutraal
 --------------------------------
 Charge =  0 Multiplicity = 1

 SCF Done:  E(RB3LYP) =  -1292.62169999     A.U. after    1 cycles

  Exact polarizability: 217.901  -0.575 166.678  -6.229 -13.545 137.240
 Approx polarizability: 300.507  13.570 296.623 -18.782 -37.319 235.892

                      1                      2                      3
                      A                      A                      A
 Frequencies --     15.5084                26.7854                38.3812
 Red. masses --      6.8890                 7.3124                 5.8737
 Frc consts  --      0.0010                 0.0031                 0.0051
 IR Inten    --      0.2349                 0.0964                 0.5772

                      4                      5                      6
                      A                      A                      A
 Frequencies --     48.3672                71.2369                90.1241
 Red. masses --      5.6228                 6.1920                 6.0216
 Frc consts  --      0.0078                 0.0185                 0.0288
 IR Inten    --      1.3467                 0.7617                 3.4286

                      7                      8                      9
                      A                      A                      A
 Frequencies --    122.0280               151.1640               177.3171
 Red. masses --      4.7394                 4.3693                 1.7723
 Frc consts  --      0.0416                 0.0588                 0.0328
 IR Inten    --      0.8975                 1.3596                 0.6015

                     10                     11                     12
                      A                      A                      A
 Frequencies --    186.1840               197.3090               203.1967
 Red. masses --      1.5827                 1.8680                 2.2393
 Frc consts  --      0.0323                 0.0428                 0.0545
 IR Inten    --      0.3522                 0.2685                 0.0634

                     13                     14                     15
                      A                      A                      A
 Frequencies --    207.0942               222.4241               236.5926
 Red. masses --      1.9405                 3.6640                 1.9312
 Frc consts  --      0.0490                 0.1068                 0.0637
 IR Inten    --      0.1752                 2.0546                 0.5967

                     16                     17                     18
                      A                      A                      A
 Frequencies --    251.4125               316.4841               329.4129
 Red. masses --      2.8840                 4.3368                 4.5368
 Frc consts  --      0.1074                 0.2559                 0.2901
 IR Inten    --      1.9659                 1.5672                 0.5791

                     19                     20                     21
                      A                      A                      A
 Frequencies --    347.2225               397.6158               406.8569
 Red. masses --      3.0410                 5.0034                 4.0141
 Frc consts  --      0.2160                 0.4661                 0.3915
 IR Inten    --      2.1671                 1.5400                 3.3373

                     22                     23                     24
                      A                      A                      A
 Frequencies --    443.3786               476.9996               485.2709
 Red. masses --      2.3045                 5.0371                 3.2221
 Frc consts  --      0.2669                 0.6752                 0.4471
 IR Inten    --      2.4537                 1.6547                 5.8219

                     25                     26                     27
                      A                      A                      A
 Frequencies --    526.3294               536.6770               549.3103
 Red. masses --      5.2051                 4.7716                 4.2532
 Frc consts  --      0.8496                 0.8097                 0.7561
 IR Inten    --      4.3231                 9.8524                 4.4390

                     28                     29                     30
                      A                      A                      A
 Frequencies --    559.9838               608.0865               621.7669
 Red. masses --      3.7993                 6.4790                 3.4652
 Frc consts  --      0.7019                 1.4115                 0.7893
 IR Inten    --     29.8366                 1.7626                34.8503

                     31                     32                     33
                      A                      A                      A
 Frequencies --    622.3229               625.9911               677.7311
 Red. masses --      3.6231                 5.7357                 2.1065
 Frc consts  --      0.8267                 1.3243                 0.5701
 IR Inten    --     19.6558                 3.2271                32.2902

                     34                     35                     36
                      A                      A                      A
 Frequencies --    694.4357               703.8146               722.4445
 Red. masses --      4.4529                 2.9984                 4.0193
 Frc consts  --      1.2652                 0.8751                 1.2360
 IR Inten    --      0.7331                49.0007                 7.8697

                     37                     38                     39
                      A                      A                      A
 Frequencies --    738.3750               778.4150               789.1129
 Red. masses --      7.8629                 3.4129                 1.4239
 Frc consts  --      2.5257                 1.2184                 0.5224
 IR Inten    --      0.8378                19.0324                21.6759

                     40                     41                     42
                      A                      A                      A
 Frequencies --    800.4228               816.7835               864.5148
 Red. masses --      4.7682                 3.5139                 2.6903
 Frc consts  --      1.7999                 1.3812                 1.1847
 IR Inten    --     34.0982                37.0226                 1.7160

                     43                     44                     45
                      A                      A                      A
 Frequencies --    873.7184               913.1020               921.8869
 Red. masses --      4.2348                 1.7108                 1.8763
 Frc consts  --      1.9047                 0.8404                 0.9395
 IR Inten    --     51.2779                 4.0940                12.2933

                     46                     47                     48
                      A                      A                      A
 Frequencies --    975.1946              1012.3687              1058.0391
 Red. masses --      2.1957                 1.9160                 1.6386
 Frc consts  --      1.2303                 1.1570                 1.0807
 IR Inten    --      2.1599                10.5067                 5.1206

                     49                     50                     51
                      A                      A                      A
 Frequencies --   1064.0594              1071.2488              1075.7548
 Red. masses --      1.6712                 1.5774                 1.9240
 Frc consts  --      1.1148                 1.0666                 1.3118
 IR Inten    --     20.0672                 6.9347                 8.2781

                     52                     53                     54
                      A                      A                      A
 Frequencies --   1092.6973              1114.8873              1121.0307
 Red. masses --      2.6938                 3.0271                 2.6240
 Frc consts  --      1.8950                 2.2169                 1.9429
 IR Inten    --     13.4231               136.9562                23.3659

                     55                     56                     57
                      A                      A                      A
 Frequencies --   1149.3750              1162.3690              1182.1369
 Red. masses --      2.1623                 5.3968                 4.4144
 Frc consts  --      1.6831                 4.2961                 3.6346
 IR Inten    --     16.1635                 7.4331                21.6569

                     58                     59                     60
                      A                      A                      A
 Frequencies --   1208.3424              1243.9986              1263.6954
 Red. masses --      2.2133                 2.7064                 1.2755
 Frc consts  --      1.9040                 2.4677                 1.2001
 IR Inten    --    167.4338                 0.7018                22.3189

                     61                     62                     63
                      A                      A                      A
 Frequencies --   1308.8961              1325.2170              1342.8170
 Red. masses --      1.5824                 1.4467                 1.6614
 Frc consts  --      1.5973                 1.4970                 1.7651
 IR Inten    --     30.5316                 3.3188                 7.0690

                     64                     65                     66
                      A                      A                      A
 Frequencies --   1361.7440              1381.7314              1386.1756
 Red. masses --      2.3292                 2.4443                 1.7258
 Frc consts  --      2.5448                 2.7495                 1.9537
 IR Inten    --     48.3267                58.3172                74.3443

                     67                     68                     69
                      A                      A                      A
 Frequencies --   1404.4488              1430.1434              1443.1368
 Red. masses --      1.9770                 1.3358                 1.3538
 Frc consts  --      2.2976                 1.6098                 1.6612
 IR Inten    --     11.6593                40.5606                 4.8429

                     70                     71                     72
                      A                      A                      A
 Frequencies --   1446.0718              1457.0742              1474.5625
 Red. masses --      1.2243                 2.5434                 6.9717
 Frc consts  --      1.5084                 3.1814                 8.9313
 IR Inten    --      4.9231                17.7761                20.5026

                     73                     74                     75
                      A                      A                      A
 Frequencies --   1494.2971              1506.3129              1516.0108
 Red. masses --      1.1146                 1.2047                 1.1051
 Frc consts  --      1.4664                 1.6105                 1.4965
 IR Inten    --     47.9958                65.1724                 6.3651

                     76                     77                     78
                      A                      A                      A
 Frequencies --   1521.1716              1522.8152              1528.9455
 Red. masses --      1.0903                 1.1930                 1.0589
 Frc consts  --      1.4864                 1.6299                 1.4584
 IR Inten    --      5.5683                17.8569                20.2114

                     79                     80                     81
                      A                      A                      A
 Frequencies --   1531.0437              1568.1490              1574.8310
 Red. masses --      1.0631                 2.8712                 5.4345
 Frc consts  --      1.4682                 4.1599                 7.9411
 IR Inten    --      2.7415               128.9692                55.2060

                     82                     83                     84
                      A                      A                      A
 Frequencies --   1666.4776              1774.2943              1841.7698
 Red. masses --      7.3612                11.5903                10.1428
 Frc consts  --     12.0447                21.4980                20.2711
 IR Inten    --    169.5854               587.0548               213.6124

                     85                     86                     87
                      A                      A                      A
 Frequencies --   3065.0553              3069.6064              3071.2923
 Red. masses --      1.0600                 1.0363                 1.0658
 Frc consts  --      5.8674                 5.7534                 5.9236
 IR Inten    --      5.4805                16.0621                 8.5140

                     88                     89                     90
                      A                      A                      A
 Frequencies --   3073.3126              3126.8331              3131.0126
 Red. masses --      1.0393                 1.0972                 1.0593
 Frc consts  --      5.7835                 6.3204                 6.1184
 IR Inten    --      7.5328                 3.1006                13.1880

                     91                     92                     93
                      A                      A                      A
 Frequencies --   3136.3726              3140.4306              3155.3983
 Red. masses --      1.1010                 1.0969                 1.1031
 Frc consts  --      6.3810                 6.3740                 6.4708
 IR Inten    --     12.2651                23.1302                20.8619

                     94                     95                     96
                      A                      A                      A
 Frequencies --   3172.8461              3179.5760              3196.1814
 Red. masses --      1.1032                 1.1055                 1.0937
 Frc consts  --      6.5436                 6.5851                 6.5827
 IR Inten    --      6.2742                 4.4420                14.6671

                     97                     98                     99
                      A                      A                      A
 Frequencies --   3248.8306              3262.4219              3680.7203
 Red. masses --      1.0938                 1.0952                 1.0640
 Frc consts  --      6.8019                 6.8678                 8.4927
 IR Inten    --      1.1407                 1.4881                61.9017

 - Thermochemistry -
 -------------------
 Temperature   298.150 Kelvin.  Pressure   1.00000 Atm.
 Atom     1 has atomic number  6 and mass  12.00000

 Molecular mass:   293.08341 amu.
 Principal axes and moments of inertia in atomic units:
                           1         2         3
     Eigenvalues --  3151.181589860.73941**********
           X            0.99999  -0.00076  -0.00381
           Y            0.00058   0.99890  -0.04698
           Z            0.00384   0.04698   0.99889
 This molecule is an asymmetric top.
 Rotational symmetry number  1.
 Warning -- assumption of classical behavior for rotation
           may cause significant error
 Rotational temperatures (Kelvin)      0.02749     0.00878     0.00799
 Rotational constants (GHZ):           0.57272     0.18302     0.16653
 Zero-point vibrational energy     721987.1 (Joules/Mol)
                                  172.55906 (Kcal/Mol)
 Warning -- explicit consideration of  29 degrees of freedom as
           vibrations may cause significant error
 Vibrational temperatures:     22.31    38.54    55.22    69.59   102.49
          (Kelvin)            129.67   175.57   217.49   255.12   267.88
                              283.88   292.35   297.96   320.02   340.40
                              361.73   455.35   473.95   499.58   572.08
                              585.38   637.92   686.30   698.20   757.27
                              772.16   790.34   805.69   874.90   894.58
                              895.38   900.66   975.10   999.14  1012.63
                             1039.44  1062.36  1119.97  1135.36  1151.63
                             1175.17  1243.84  1257.09  1313.75  1326.39
                             1403.09  1456.57  1522.28  1530.94  1541.29
                             1547.77  1572.15  1604.07  1612.91  1653.69
                             1672.39  1700.83  1738.54  1789.84  1818.18
                             1883.21  1906.69  1932.01  1959.25  1988.00
                             1994.40  2020.69  2057.66  2076.35  2080.57
                             2096.40  2121.57  2149.96  2167.25  2181.20
                             2188.63  2190.99  2199.81  2202.83  2256.22
                             2265.83  2397.69  2552.81  2649.90  4409.93
                             4416.48  4418.90  4421.81  4498.82  4504.83
                             4512.54  4518.38  4539.91  4565.02  4574.70
                             4598.59  4674.34  4693.90  5295.74

 Zero-point correction=                           0.274990 (Hartree/Particle)
 Thermal correction to Energy=                    0.294036
 Thermal correction to Enthalpy=                  0.294980
 Thermal correction to Gibbs Free Energy=         0.225409
 Sum of electronic and zero-point Energies=          -1292.346710
 Sum of electronic and thermal Energies=             -1292.327664
 Sum of electronic and thermal Enthalpies=           -1292.326720
 Sum of electronic and thermal Free Energies=        -1292.396291

                     E (Thermal)             CV                S
                      KCal/Mol        Cal/Mol-Kelvin    Cal/Mol-Kelvin
 Total                  184.511             71.358            146.425
 Electronic               0.000              0.000              0.000
 Translational            0.889              2.981             42.923
 Rotational               0.889              2.981             34.176
 Vibrational            182.733             65.397             69.326
 Vibration     1          0.593              1.986              7.139
 Vibration     2          0.593              1.984              6.054
 Vibration     3          0.594              1.982              5.341
 Vibration     4          0.595              1.978              4.883
 Vibration     5          0.598              1.968              4.119
 Vibration     6          0.602              1.956              3.657
 Vibration     7          0.610              1.931              3.068
 Vibration     8          0.619              1.901              2.658
 Vibration     9          0.628              1.870              2.356
 Vibration    10          0.632              1.859              2.265
 Vibration    11          0.637              1.844              2.158
 Vibration    12          0.639              1.835              2.104
 Vibration    13          0.641              1.830              2.069
 Vibration    14          0.648              1.807              1.939
 Vibration    15          0.655              1.785              1.828
 Vibration    16          0.663              1.760              1.721
 Vibration    17          0.703              1.642              1.328
 Vibration    18          0.712              1.617              1.263
 Vibration    19          0.725              1.581              1.179
 Vibration    20          0.764              1.475              0.971
 Vibration    21          0.772              1.455              0.938
 Vibration    22          0.803              1.375              0.816
 Vibration    23          0.834              1.301              0.718
 Vibration    24          0.841              1.283              0.696
 Vibration    25          0.881              1.192              0.595
 Vibration    26          0.892              1.169              0.572
 Vibration    27          0.905              1.141              0.546
 Vibration    28          0.916              1.118              0.524
 Vibration    29          0.967              1.015              0.436

                           ! Non-Optimized Parameters !
 Normal termination of Gaussian 16 at Mon Dec 14 18:12:00 2020.

 ----------------------------------------------------------------------
 # B3LYP/6-311++G(d,p) empiricaldispersion=gd3bj scf=xqc pop=npa geom=c
 heck
 ----------------------------------------------------------------------

 ----------------------------------------
 CID_116386802_JID_10755_Energie_neutraal
 ----------------------------------------
 Structure from the checkpoint file:  "JID_10755.chk"
 Charge =  0 Multiplicity = 1

 SCF Done:  E(RB3LYP) =  -1292.90122395     A.U. after   17 cycles
 Normal termination of Gaussian 16 at Mon Dec 14 18:19:14 2020.

 ----------------------------------------------------------------------
 # B3LYP/6-311++G(d,p) empiricaldispersion=gd3bj scf=xqc pop=npa geom=c
 heck
 ----------------------------------------------------------------------

 --------------------------------------
 CID_116386802_JID_10755_Energie_kation
 --------------------------------------
 Structure from the checkpoint file:  "JID_10755.chk"
 Charge =  1 Multiplicity = 2

 SCF Done:  E(UB3LYP) =  -1292.60034752     A.U. after   32 cycles
 Normal termination of Gaussian 16 at Mon Dec 14 18:37:41 2020.
 Gaussian 16:  ES64L-G16RevA.03 25-Dec-2016

 ----------------------------------------------------------------------
 # B3LYP/6-311++G(d,p) empiricaldispersion=gd3bj scf=xqc pop=npa geom=c
 heck
 ----------------------------------------------------------------------

 -------------------------------------
 CID_116386802_JID_10755_Energie_anion
 -------------------------------------
 Structure from the checkpoint file:  "JID_10755.chk"
 Charge = -1 Multiplicity = 2

                         Standard orientation:
 ---------------------------------------------------------------------
 Center     Atomic      Atomic             Coordinates (Angstroms)
 Number     Number       Type             X           Y           Z
 ---------------------------------------------------------------------
      1          6           0        0.026727   -1.547358    1.534410
      2          6           0       -0.333037   -0.236895    0.886067
      3          6           0       -1.574798    0.053033    0.354760
      4          6           0       -1.764508    1.385500   -0.150839
      5          7           0       -0.822106    2.297531   -0.169389
      6          6           0        0.439560    2.012218    0.281859
      7          8           0        1.377310    2.798793    0.230624
      8          7           0        0.646254    0.722170    0.860371
      9          6           0        2.019326    0.492978    1.355118
     10          6           0        2.956731    0.011212    0.283159
     11          6           0        3.514628    0.739202   -0.734285
     12          7           0        4.333781    0.049425   -1.599260
     13          6           0        4.413271   -1.203085   -1.262957
     14         16           0        3.487038   -1.649223    0.152833
     15          6           0       -3.080557    1.842085   -0.732615
     16          6           0       -2.718020   -0.948155    0.391485
     17          6           0       -3.653802   -0.738434    1.594744
     18          6           0       -3.413271   -1.057393   -0.962114
     19          8           0       -2.846989   -1.025799   -2.031098
     20          8           0       -4.748415   -1.261406   -0.853102
     21          1           0        0.888842   -2.007342    1.042612
     22          1           0       -0.793779   -2.260028    1.498324
     23          1           0        0.281463   -1.401854    2.590229
     24          1           0        2.362899    1.463466    1.712298
     25          1           0        1.989058   -0.195783    2.197412
     26          1           0        3.331495    1.795942   -0.881929
     27          1           0        5.005547   -1.942210   -1.789223
     28          1           0       -3.116659    1.575394   -1.794700
     29          1           0       -3.951770    1.393923   -0.248988
     30          1           0       -3.136880    2.928694   -0.652274
     31          1           0       -2.290597   -1.952215    0.490180
     32          1           0       -4.123573    0.248590    1.573554
     33          1           0       -4.444593   -1.491947    1.618516
     34          1           0       -3.072351   -0.809217    2.519377
     35          1           0       -5.075955   -1.363884   -1.766927
 ---------------------------------------------------------------------

 SCF Done:  E(UB3LYP) =  -1292.91175958     A.U. after   33 cycles
 SCF Done:  E(UB3LYP) =  -1292.91175958     a.u. after    1 cycles

 The electronic state is 2-A.
 Alpha  occ. eigenvalues --  -88.77528 -19.08387 -19.01733 -18.94322 -14.22947
 Alpha  occ. eigenvalues --  -14.20835 -14.14262 -10.21091 -10.14710 -10.12209
 Alpha  occ. eigenvalues --  -10.10870 -10.09884 -10.09621 -10.08889 -10.08439
 Alpha  occ. eigenvalues --  -10.07292 -10.07214 -10.07161 -10.05100 -10.04252
 Alpha  occ. eigenvalues --   -7.86193  -5.82441  -5.82119  -5.81832  -1.02111
 Alpha  occ. eigenvalues --   -0.92785  -0.91277  -0.85531  -0.83261  -0.77547
 Alpha  occ. eigenvalues --   -0.71872  -0.70127  -0.66280  -0.64236  -0.62028
 Alpha  occ. eigenvalues --   -0.60319  -0.57738  -0.56786  -0.51797  -0.48596
 Alpha  occ. eigenvalues --   -0.48244  -0.47102  -0.44853  -0.42766  -0.40151
 Alpha  occ. eigenvalues --   -0.39546  -0.38539  -0.37669  -0.36230  -0.34252
 Alpha  occ. eigenvalues --   -0.33344  -0.32783  -0.32354  -0.31747  -0.31653
 Alpha  occ. eigenvalues --   -0.31409  -0.30665  -0.29935  -0.29765  -0.29198
 Alpha  occ. eigenvalues --   -0.28988  -0.28088  -0.27317  -0.26786  -0.25184
 Alpha  occ. eigenvalues --   -0.24863  -0.24686  -0.22997  -0.20183  -0.18598
 Alpha  occ. eigenvalues --   -0.18063  -0.17586  -0.17031  -0.14316  -0.13198
 Alpha  occ. eigenvalues --   -0.11686  -0.09670   0.03811
 Alpha virt. eigenvalues --    0.05723   0.06578   0.06884   0.07706   0.08509
 Alpha virt. eigenvalues --    0.08700   0.09743   0.10293   0.10708   0.11094
 Alpha virt. eigenvalues --    0.11292   0.12147   0.12419   0.12801   0.13080

  Beta  occ. eigenvalues --  -88.77510 -19.08370 -19.01712 -18.94297 -14.22746
  Beta  occ. eigenvalues --  -14.20833 -14.14059 -10.21089 -10.14708 -10.12080
  Beta  occ. eigenvalues --  -10.10883 -10.09872 -10.09517 -10.08420 -10.08390
  Beta  occ. eigenvalues --  -10.07216 -10.07196 -10.06927 -10.05235 -10.04280
  Beta  occ. eigenvalues --   -7.86176  -5.82429  -5.82111  -5.81776  -1.02081
  Beta  occ. eigenvalues --   -0.92749  -0.91113  -0.85435  -0.82899  -0.77060
  Beta  occ. eigenvalues --   -0.71773  -0.69967  -0.65958  -0.64026  -0.61728
  Beta  occ. eigenvalues --   -0.60223  -0.57708  -0.56735  -0.51631  -0.48450
  Beta  occ. eigenvalues --   -0.47840  -0.46934  -0.44670  -0.42589  -0.40073
  Beta  occ. eigenvalues --   -0.39444  -0.38433  -0.37420  -0.36064  -0.33954
  Beta  occ. eigenvalues --   -0.33251  -0.32543  -0.32104  -0.31586  -0.31505
  Beta  occ. eigenvalues --   -0.31121  -0.30493  -0.29846  -0.29507  -0.29030
  Beta  occ. eigenvalues --   -0.28860  -0.28033  -0.27123  -0.26627  -0.25098
  Beta  occ. eigenvalues --   -0.24752  -0.24496  -0.22936  -0.19202  -0.18544
  Beta  occ. eigenvalues --   -0.17789  -0.17144  -0.16003  -0.13804  -0.12999
  Beta  occ. eigenvalues --   -0.11448  -0.08892
  Beta virt. eigenvalues --    0.05912   0.07013   0.07356   0.07675   0.08488
  Beta virt. eigenvalues --    0.08589   0.09485   0.10099   0.10257   0.10825
  Beta virt. eigenvalues --    0.11094   0.11348   0.12115   0.12405   0.12906

 Mulliken charges and spin densities:
               1          2
     1  C   -0.532203  -0.215147
     2  C   -0.072387   0.464096
     3  C    1.167878  -0.264030
     4  C   -0.248077   0.052333
     5  N   -0.160509   0.113751
     6  C    0.155638   0.028737
     7  O   -0.375070   0.007574
     8  N    0.308758   0.083049
     9  C   -1.070961  -0.006378
    10  C    0.742924   0.051779
    11  C   -0.509008   0.015821
    12  N   -0.047297  -0.002167
    13  C   -0.231693   0.082845
    14  S    0.039387   0.035644
    15  C   -0.465608  -0.047699
    16  C   -0.654438   0.326010
    17  C   -0.439492  -0.274502
    18  C   -0.199731  -0.108971
    19  O   -0.238495   0.007075
    20  O   -0.090527  -0.000801
    21  H    0.045774   0.009634
    22  H    0.027207   0.091012
    23  H    0.068597   0.120733
    24  H    0.249841   0.003781
    25  H    0.118972  -0.004395
    26  H    0.216668  -0.000425
    27  H    0.209161   0.000566
    28  H    0.129383   0.085718
    29  H    0.125304  -0.011880
    30  H    0.180532  -0.000028
    31  H    0.150255   0.039327
    32  H    0.140735   0.017445
    33  H    0.021930   0.115875
    34  H    0.127724   0.015326
    35  H    0.108832   0.168292
 Sum of Mulliken charges =  -1.00000   1.00000

 Dipole moment (field-independent basis, Debye):
    X=             -1.7555    Y=             -6.2572    Z=              3.6776  Tot=              7.4672
 Quadrupole moment (field-independent basis, Debye-Ang):
   XX=           -173.2510   YY=           -158.2315   ZZ=           -143.3259
   XY=             -8.2112   XZ=              5.4174   YZ=              2.7495

 Summary of Natural Population Analysis:

                                       Natural Population
                Natural  -----------------------------------------------
    Atom  No    Charge         Core      Valence    Rydberg      Total
 -----------------------------------------------------------------------
      C    1   -0.30866      0.99964     2.30480    0.00423     3.30866
      C    2    0.22549      0.99948     1.76399    0.01104     2.77451
      C    3   -0.11045      0.99941     2.10022    0.01082     3.11045
      C    4    0.20954      0.99955     1.77749    0.01342     2.79046
      N    5   -0.26427      0.99963     2.75284    0.01180     3.76427
      C    6    0.39864      0.99967     1.57703    0.02466     2.60136
      O    7   -0.34464      0.99987     3.33898    0.00578     4.34464
      N    8   -0.20755      0.99960     2.69805    0.00991     3.70755
      C    9   -0.10674      0.99955     2.09602    0.01117     3.10674
      C   10   -0.09994      0.99949     2.09063    0.00982     3.09994
      C   11   -0.01517      0.99945     2.00115    0.01456     3.01517
      N   12   -0.23733      0.99969     2.72491    0.01273     3.73733
      C   13   -0.04093      0.99967     2.02435    0.01690     3.04093
      S   14    0.17441      4.99943     2.80614    0.02002     7.82559
      C   15   -0.31125      0.99963     2.30602    0.00560     3.31125
      C   16   -0.15794      0.99952     2.14730    0.01112     3.15794
      C   17   -0.28324      0.99965     2.27810    0.00549     3.28324
      C   18    0.41261      0.99969     1.56037    0.02733     2.58739
      O   19   -0.30254      0.99987     3.29634    0.00634     4.30254
      O   20   -0.35062      0.99987     3.34407    0.00668     4.35062
      H   21    0.10947      0.00000     0.38881    0.00172     0.39053
      H   22    0.10084      0.00000     0.39829    0.00087     0.39916
      H   23    0.10627      0.00000     0.39230    0.00142     0.39373
      H   24    0.12500      0.00000     0.37369    0.00131     0.37500
      H   25    0.10001      0.00000     0.39887    0.00112     0.39999
      H   26    0.11695      0.00000     0.38183    0.00122     0.38305
      H   27    0.09203      0.00000     0.40656    0.00141     0.40797
      H   28    0.11290      0.00000     0.38527    0.00184     0.38710
      H   29    0.09303      0.00000     0.40566    0.00130     0.40697
      H   30    0.11018      0.00000     0.38853    0.00129     0.38982
      H   31    0.11510      0.00000     0.38341    0.00150     0.38490
      H   32    0.10138      0.00000     0.39768    0.00094     0.39862
      H   33    0.09927      0.00000     0.39941    0.00133     0.40073
      H   34    0.10021      0.00000     0.39892    0.00088     0.39979
      H   35    0.23795      0.00000     0.25760    0.00445     0.26205
 =======================================================================
   * Total *    0.00000     23.99235    52.74561    0.26204    77.00000

 Normal termination of Gaussian 16 at Mon Dec 14 18:57:10 2020.
