 Gaussian 16, Revision A.03,

 -----------------------------------------------------------
 # opt freq B3LYP/6-31G(d) empiricaldispersion=gd3bj scf=xqc
 -----------------------------------------------------------

 -------------------------------
 CID_115539228_JID_8170_neutraal
 -------------------------------
 Symbolic Z-matrix:
 Charge =  0 Multiplicity = 1

 SCF Done:  E(RB3LYP) =  -829.033134742     A.U. after   14 cycles
 SCF Done:  E(RB3LYP) =  -829.037493711     A.U. after   12 cycles
 SCF Done:  E(RB3LYP) =  -829.031280539     A.U. after   14 cycles
 SCF Done:  E(RB3LYP) =  -829.038023982     A.U. after   12 cycles
 SCF Done:  E(RB3LYP) =  -829.039478059     A.U. after   14 cycles
 SCF Done:  E(RB3LYP) =  -829.039721069     A.U. after   12 cycles
 SCF Done:  E(RB3LYP) =  -829.040640826     A.U. after   12 cycles
 SCF Done:  E(RB3LYP) =  -829.040987656     A.U. after   12 cycles
 SCF Done:  E(RB3LYP) =  -829.041179324     A.U. after   12 cycles
 SCF Done:  E(RB3LYP) =  -829.041295479     A.U. after   12 cycles
 SCF Done:  E(RB3LYP) =  -829.041470235     A.U. after    9 cycles
 SCF Done:  E(RB3LYP) =  -829.041470317     A.U. after    8 cycles
 SCF Done:  E(RB3LYP) =  -829.041470420     A.U. after    8 cycles
 SCF Done:  E(RB3LYP) =  -829.041470503     A.U. after    7 cycles
 SCF Done:  E(RB3LYP) =  -829.041470551     A.U. after    7 cycles
 Optimization completed.
    -- Stationary point found.
 Normal termination of Gaussian 16 at Fri Dec 11 19:38:50 2020.

 --------------------------------------------------------------------
 #N Geom=AllCheck Guess=TCheck SCRF=Check GenChk RB3LYP/6-31G(d) Freq
 --------------------------------------------------------------------

 Structure from the checkpoint file:  "JID_8170.chk"
 -------------------------------
 CID_115539228_JID_8170_neutraal
 -------------------------------
 Charge =  0 Multiplicity = 1

 SCF Done:  E(RB3LYP) =  -829.041470551     A.U. after    1 cycles

  Exact polarizability: 166.253  -4.957 167.414   0.483   2.150 139.984
 Approx polarizability: 209.600  -2.511 217.963  -5.820   0.125 225.156

                      1                      2                      3
                      A                      A                      A
 Frequencies --     12.2156                21.8628                35.4862
 Red. masses --      4.2349                 3.4869                 4.5307
 Frc consts  --      0.0004                 0.0010                 0.0034
 IR Inten    --      1.5956                 0.0458                 1.5010

                      4                      5                      6
                      A                      A                      A
 Frequencies --     58.8105                68.4102                70.8269
 Red. masses --      3.1844                 2.7770                 2.8479
 Frc consts  --      0.0065                 0.0077                 0.0084
 IR Inten    --      0.4843                 0.5567                 0.5650

                      7                      8                      9
                      A                      A                      A
 Frequencies --     82.0176               114.7417               135.3861
 Red. masses --      3.8476                 4.1029                 2.9141
 Frc consts  --      0.0152                 0.0318                 0.0315
 IR Inten    --      0.2162                 0.7803                 1.7726

                     10                     11                     12
                      A                      A                      A
 Frequencies --    181.2595               196.7295               219.6849
 Red. masses --      3.5736                 3.4539                 1.6321
 Frc consts  --      0.0692                 0.0788                 0.0464
 IR Inten    --      1.3184                 0.8047                 3.1479

                     13                     14                     15
                      A                      A                      A
 Frequencies --    238.6744               242.0965               269.3238
 Red. masses --      1.9700                 1.8442                 2.5676
 Frc consts  --      0.0661                 0.0637                 0.1097
 IR Inten    --      2.2993                 2.7152                 1.9369

                     16                     17                     18
                      A                      A                      A
 Frequencies --    294.1436               309.4388               340.7413
 Red. masses --      3.1769                 2.7921                 2.3355
 Frc consts  --      0.1619                 0.1575                 0.1598
 IR Inten    --      0.6193                 1.6641                 8.6916

                     19                     20                     21
                      A                      A                      A
 Frequencies --    377.6596               402.0456               424.9172
 Red. masses --      2.8304                 2.5758                 2.0624
 Frc consts  --      0.2378                 0.2453                 0.2194
 IR Inten    --      5.2571                 1.0596                 0.8046

                     22                     23                     24
                      A                      A                      A
 Frequencies --    446.2554               456.9768               498.0000
 Red. masses --      3.6407                 2.7911                 2.2822
 Frc consts  --      0.4272                 0.3434                 0.3335
 IR Inten    --      0.4419                 3.0742                 5.7684

                     25                     26                     27
                      A                      A                      A
 Frequencies --    508.8001               571.5274               590.3890
 Red. masses --      3.0853                 2.0277                 1.8653
 Frc consts  --      0.4706                 0.3902                 0.3831
 IR Inten    --      1.3856                 0.8395                 4.2528

                     28                     29                     30
                      A                      A                      A
 Frequencies --    671.1731               723.7634               751.0234
 Red. masses --      3.2162                 4.1063                 3.9222
 Frc consts  --      0.8536                 1.2674                 1.3034
 IR Inten    --      4.8264                13.2258                 4.9531

                     31                     32                     33
                      A                      A                      A
 Frequencies --    772.8150               815.2682               818.3470
 Red. masses --      2.8184                 2.5433                 1.3595
 Frc consts  --      0.9917                 0.9960                 0.5364
 IR Inten    --     12.3154                 6.5766                 2.1301

                     34                     35                     36
                      A                      A                      A
 Frequencies --    850.0502               865.5510               881.5607
 Red. masses --      1.6877                 2.0410                 2.0297
 Frc consts  --      0.7185                 0.9009                 0.9294
 IR Inten    --      7.9261                 3.4449                 7.8980

                     37                     38                     39
                      A                      A                      A
 Frequencies --    884.7625               892.0108               901.8894
 Red. masses --      2.2665                 2.2877                 2.0015
 Frc consts  --      1.0454                 1.0725                 0.9592
 IR Inten    --      0.1185                10.7740                 5.4526

                     40                     41                     42
                      A                      A                      A
 Frequencies --    928.6210               938.7459               947.4077
 Red. masses --      1.8888                 2.1060                 2.7514
 Frc consts  --      0.9597                 1.0935                 1.4550
 IR Inten    --      4.8219                 2.8310                 1.8994

                     43                     44                     45
                      A                      A                      A
 Frequencies --    959.9741               968.8388               979.8780
 Red. masses --      1.8525                 2.3720                 2.1434
 Frc consts  --      1.0058                 1.3118                 1.2126
 IR Inten    --      0.9723                 4.2237                12.3614

                     46                     47                     48
                      A                      A                      A
 Frequencies --   1014.7470              1035.4032              1039.3931
 Red. masses --      2.0943                 2.0010                 2.4630
 Frc consts  --      1.2706                 1.2639                 1.5678
 IR Inten    --     13.3716                 2.1833                 5.4676

                     49                     50                     51
                      A                      A                      A
 Frequencies --   1047.8075              1080.0948              1085.7725
 Red. masses --      2.5096                 1.8846                 2.3147
 Frc consts  --      1.6234                 1.2954                 1.6077
 IR Inten    --     19.3019                 4.3259                40.7813

                     52                     53                     54
                      A                      A                      A
 Frequencies --   1107.3520              1118.2274              1130.8804
 Red. masses --      4.1741                 2.9957                 1.9711
 Frc consts  --      3.0156                 2.2070                 1.4852
 IR Inten    --    110.6771                43.2132                61.0667

                     55                     56                     57
                      A                      A                      A
 Frequencies --   1133.1550              1144.5619              1165.5922
 Red. masses --      1.9667                 2.1682                 1.9184
 Frc consts  --      1.4879                 1.6735                 1.5356
 IR Inten    --      8.0781                18.8868                95.9079

                     58                     59                     60
                      A                      A                      A
 Frequencies --   1175.2042              1200.6389              1206.2017
 Red. masses --      1.9420                 2.1156                 1.3883
 Frc consts  --      1.5803                 1.7968                 1.1900
 IR Inten    --      1.4307               162.3038                 8.6584

                     61                     62                     63
                      A                      A                      A
 Frequencies --   1214.2851              1220.8861              1230.1445
 Red. masses --      1.9392                 1.4137                 1.6467
 Frc consts  --      1.6847                 1.2415                 1.4681
 IR Inten    --    132.5234                16.8864                29.6445

                     64                     65                     66
                      A                      A                      A
 Frequencies --   1259.4036              1272.7605              1290.5674
 Red. masses --      1.6891                 1.3350                 1.2608
 Frc consts  --      1.5785                 1.2742                 1.2373
 IR Inten    --     10.4619                10.1085                 8.9183

                     67                     68                     69
                      A                      A                      A
 Frequencies --   1304.8712              1319.0326              1332.1741
 Red. masses --      1.2904                 1.2675                 1.3209
 Frc consts  --      1.2945                 1.2993                 1.3811
 IR Inten    --      3.0502                14.3891                 9.4435

                     70                     71                     72
                      A                      A                      A
 Frequencies --   1342.4690              1344.8284              1350.5061
 Red. masses --      1.1262                 1.2465                 1.2705
 Frc consts  --      1.1959                 1.3282                 1.3652
 IR Inten    --     10.8879                 3.0111                36.0323

                     73                     74                     75
                      A                      A                      A
 Frequencies --   1360.6440              1380.8329              1383.9335
 Red. masses --      1.3200                 1.3732                 1.3844
 Frc consts  --      1.4398                 1.5427                 1.5622
 IR Inten    --      0.2244                 8.6113                 2.6314

                     76                     77                     78
                      A                      A                      A
 Frequencies --   1388.9661              1401.3617              1404.6230
 Red. masses --      1.3324                 1.3267                 1.4520
 Frc consts  --      1.5144                 1.5350                 1.6878
 IR Inten    --      2.2874                18.2268                 2.8274

                     79                     80                     81
                      A                      A                      A
 Frequencies --   1408.0168              1413.7046              1416.5316
 Red. masses --      1.3572                 1.3514                 1.2864
 Frc consts  --      1.5852                 1.5913                 1.5208
 IR Inten    --     10.5794                 6.4266                21.0500

                     82                     83                     84
                      A                      A                      A
 Frequencies --   1421.2069              1428.3663              1441.8633
 Red. masses --      1.4706                 1.4739                 1.3398
 Frc consts  --      1.7501                 1.7717                 1.6412
 IR Inten    --      6.1187                 6.2954                 5.2047

                     85                     86                     87
                      A                      A                      A
 Frequencies --   1446.5578              1506.1857              1508.4651
 Red. masses --      1.4196                 1.0950                 1.0917
 Frc consts  --      1.7502                 1.4635                 1.4636
 IR Inten    --     17.4311                 1.8657                 4.0261

                     88                     89                     90
                      A                      A                      A
 Frequencies --   1514.1571              1516.1213              1516.7020
 Red. masses --      1.0862                 1.0577                 1.0750
 Frc consts  --      1.4673                 1.4324                 1.4570
 IR Inten    --      1.1316                 1.4798                17.5080

                     91                     92                     93
                      A                      A                      A
 Frequencies --   1517.9317              1519.5293              1525.6221
 Red. masses --      1.0906                 1.0809                 1.1035
 Frc consts  --      1.4805                 1.4704                 1.5133
 IR Inten    --      5.2226                 3.5954                 6.5861

                     94                     95                     96
                      A                      A                      A
 Frequencies --   1532.4670              1537.1853              1537.6516
 Red. masses --      1.0982                 1.0985                 1.0583
 Frc consts  --      1.5195                 1.5294                 1.4742
 IR Inten    --      0.8497                 4.2656                 5.1588

                     97                     98                     99
                      A                      A                      A
 Frequencies --   1560.8647              1825.0529              2911.9371
 Red. masses --      1.0975                11.0553                 1.0731
 Frc consts  --      1.5754                21.6955                 5.3610
 IR Inten    --      3.0971               158.2377                62.2370

                    100                    101                    102
                      A                      A                      A
 Frequencies --   2982.0411              2992.9381              2994.0455
 Red. masses --      1.0836                 1.0792                 1.0735
 Frc consts  --      5.6775                 5.6955                 5.6697
 IR Inten    --     76.1939                45.4577                49.2229

                    103                    104                    105
                      A                      A                      A
 Frequencies --   3028.1477              3044.0397              3048.0641
 Red. masses --      1.0664                 1.0651                 1.0615
 Frc consts  --      5.7614                 5.8151                 5.8103
 IR Inten    --     29.7025                12.6006                24.6517

                    106                    107                    108
                      A                      A                      A
 Frequencies --   3049.6131              3055.8848              3056.4586
 Red. masses --      1.0721                 1.0672                 1.0605
 Frc consts  --      5.8747                 5.8720                 5.8372
 IR Inten    --     24.5602                29.9462                11.3709

                    109                    110                    111
                      A                      A                      A
 Frequencies --   3061.2940              3062.0634              3079.3052
 Red. masses --      1.0639                 1.0362                 1.0898
 Frc consts  --      5.8742                 5.7245                 6.0885
 IR Inten    --     34.1501                14.8260                55.0285

                    112                    113                    114
                      A                      A                      A
 Frequencies --   3081.7134              3085.9694              3088.2803
 Red. masses --      1.0908                 1.0909                 1.1015
 Frc consts  --      6.1037                 6.1209                 6.1897
 IR Inten    --     54.6871                63.7565                29.6230

                    115                    116                    117
                      A                      A                      A
 Frequencies --   3093.3390              3096.1175              3105.9781
 Red. masses --      1.1053                 1.0591                 1.1059
 Frc consts  --      6.2313                 5.9814                 6.2860
 IR Inten    --     40.3000                23.3219                35.2778

                    118                    119                    120
                      A                      A                      A
 Frequencies --   3116.2146              3123.6898              3128.1248
 Red. masses --      1.1029                 1.0938                 1.1017
 Frc consts  --      6.3102                 6.2883                 6.3515
 IR Inten    --     38.4676                20.3250                24.7960

                    121                    122                    123
                      A                      A                      A
 Frequencies --   3140.9063              3159.3913              3160.3406
 Red. masses --      1.1042                 1.0944                 1.1077
 Frc consts  --      6.4179                 6.4362                 6.5184
 IR Inten    --      6.7378                 5.1895                25.3859

 - Thermochemistry -
 -------------------
 Temperature   298.150 Kelvin.  Pressure   1.00000 Atm.
 Atom     1 has atomic number  6 and mass  12.00000

 Molecular mass:   255.18344 amu.
 Principal axes and moments of inertia in atomic units:
                           1         2         3
     Eigenvalues --  4011.335885614.361247972.26047
           X            0.99999  -0.00445   0.00050
           Y            0.00444   0.99999   0.00163
           Z           -0.00050  -0.00163   1.00000
 This molecule is an asymmetric top.
 Rotational symmetry number  1.
 Warning -- assumption of classical behavior for rotation
           may cause significant error
 Rotational temperatures (Kelvin)      0.02159     0.01543     0.01086
 Rotational constants (GHZ):           0.44991     0.32145     0.22638
 Zero-point vibrational energy    1017109.9 (Joules/Mol)
                                  243.09511 (Kcal/Mol)
 Warning -- explicit consideration of  27 degrees of freedom as
           vibrations may cause significant error
 Vibrational temperatures:     17.58    31.46    51.06    84.62    98.43
          (Kelvin)            101.90   118.01   165.09   194.79   260.79
                              283.05   316.08   343.40   348.32   387.50
                              423.21   445.21   490.25   543.37   578.45
                              611.36   642.06   657.49   716.51   732.05
                              822.30   849.44   965.67  1041.33  1080.56
                             1111.91  1172.99  1177.42  1223.03  1245.33
                             1268.37  1272.98  1283.40  1297.62  1336.08
                             1350.65  1363.11  1381.19  1393.94  1409.83
                             1459.99  1489.71  1495.45  1507.56  1554.02
                             1562.18  1593.23  1608.88  1627.08  1630.36
                             1646.77  1677.03  1690.86  1727.45  1735.46
                             1747.09  1756.58  1769.90  1812.00  1831.22
                             1856.84  1877.42  1897.79  1916.70  1931.51
                             1934.91  1943.08  1957.66  1986.71  1991.17
                             1998.41  2016.25  2020.94  2025.82  2034.01
                             2038.07  2044.80  2055.10  2074.52  2081.27
                             2167.07  2170.34  2178.53  2181.36  2182.20
                             2183.97  2186.26  2195.03  2204.88  2211.67
                             2212.34  2245.74  2625.84  4189.63  4290.49
                             4306.17  4307.76  4356.83  4379.69  4385.48
                             4387.71  4396.74  4397.56  4404.52  4405.63
                             4430.43  4433.90  4440.02  4443.35  4450.62
                             4454.62  4468.81  4483.54  4494.29  4500.67
                             4519.06  4545.66  4547.03

 Zero-point correction=                           0.387397 (Hartree/Particle)
 Thermal correction to Energy=                    0.405876
 Thermal correction to Enthalpy=                  0.406820
 Thermal correction to Gibbs Free Energy=         0.337714
 Sum of electronic and zero-point Energies=           -828.654074
 Sum of electronic and thermal Energies=              -828.635595
 Sum of electronic and thermal Enthalpies=            -828.634651
 Sum of electronic and thermal Free Energies=         -828.703757

                     E (Thermal)             CV                S
                      KCal/Mol        Cal/Mol-Kelvin    Cal/Mol-Kelvin
 Total                  254.691             69.394            145.446
 Electronic               0.000              0.000              0.000
 Translational            0.889              2.981             42.510
 Rotational               0.889              2.981             33.551
 Vibrational            252.913             63.432             69.385
 Vibration     1          0.593              1.987              7.613
 Vibration     2          0.593              1.985              6.457
 Vibration     3          0.594              1.982              5.496
 Vibration     4          0.596              1.974              4.497
 Vibration     5          0.598              1.969              4.199
 Vibration     6          0.598              1.968              4.130
 Vibration     7          0.600              1.961              3.842
 Vibration     8          0.608              1.937              3.187
 Vibration     9          0.613              1.918              2.868
 Vibration    10          0.630              1.865              2.315
 Vibration    11          0.636              1.844              2.163
 Vibration    12          0.647              1.811              1.962
 Vibration    13          0.657              1.781              1.813
 Vibration    14          0.658              1.776              1.787
 Vibration    15          0.674              1.730              1.601
 Vibration    16          0.689              1.685              1.450
 Vibration    17          0.699              1.656              1.365
 Vibration    18          0.720              1.594              1.209
 Vibration    19          0.748              1.518              1.049
 Vibration    20          0.768              1.466              0.955
 Vibration    21          0.787              1.416              0.875
 Vibration    22          0.806              1.369              0.807
 Vibration    23          0.815              1.345              0.775
 Vibration    24          0.853              1.254              0.663
 Vibration    25          0.864              1.230              0.636
 Vibration    26          0.928              1.093              0.501
 Vibration    27          0.948              1.052              0.466

 Optimization completed on the basis of negligible forces.
    -- Stationary point found.
 Normal termination of Gaussian 16 at Fri Dec 11 20:01:20 2020.

 ----------------------------------------------------------------------
 # B3LYP/6-311++G(d,p) empiricaldispersion=gd3bj scf=xqc pop=npa geom=c
 heck
 ----------------------------------------------------------------------

 ---------------------------------------
 CID_115539228_JID_8170_Energie_neutraal
 ---------------------------------------
 Structure from the checkpoint file:  "JID_8170.chk"
 Charge =  0 Multiplicity = 1

 SCF Done:  E(RB3LYP) =  -829.274069411     A.U. after   16 cycles
 Normal termination of Gaussian 16 at Fri Dec 11 20:12:52 2020.

 ----------------------------------------------------------------------
 # B3LYP/6-311++G(d,p) empiricaldispersion=gd3bj scf=xqc pop=npa geom=c
 heck
 ----------------------------------------------------------------------

 -------------------------------------
 CID_115539228_JID_8170_Energie_kation
 -------------------------------------
 Structure from the checkpoint file:  "JID_8170.chk"
 Charge =  1 Multiplicity = 2

 SCF Done:  E(UB3LYP) =  -828.992786111     A.U. after   23 cycles
 Normal termination of Gaussian 16 at Fri Dec 11 20:36:44 2020.
 Gaussian 16:  ES64L-G16RevA.03 25-Dec-2016

 ----------------------------------------------------------------------
 # B3LYP/6-311++G(d,p) empiricaldispersion=gd3bj scf=xqc pop=npa geom=c
 heck
 ----------------------------------------------------------------------

 ------------------------------------
 CID_115539228_JID_8170_Energie_anion
 ------------------------------------
 Structure from the checkpoint file:  "JID_8170.chk"
 Charge = -1 Multiplicity = 2

                         Standard orientation:
 ---------------------------------------------------------------------
 Center     Atomic      Atomic             Coordinates (Angstroms)
 Number     Number       Type             X           Y           Z
 ---------------------------------------------------------------------
      1          6           0        2.295110    3.892877    0.036853
      2          6           0        0.884034    3.337437   -0.062858
      3          8           0        0.829942    1.967130    0.400979
      4          6           0        1.204031    1.017876   -0.491982
      5          8           0        1.526861    1.259019   -1.633745
      6          6           0        1.229809   -0.344510    0.183824
      7          6           0        2.652762   -0.510616    0.770768
      8          6           0        2.801345   -1.869652    1.456916
      9          6           0        2.411307   -2.989079    0.488992
     10          6           0        1.015560   -2.731981   -0.079753
     11          7           0        0.942590   -1.431859   -0.739838
     12          6           0       -0.220972   -1.296204   -1.619204
     13          6           0       -1.651814   -1.409004   -1.041086
     14          6           0       -2.301242   -0.136871   -0.483669
     15          6           0       -2.065654    0.198288    0.999974
     16          6           0       -3.396673    0.831989    1.423193
     17          6           0       -4.393036    0.011333    0.606171
     18          8           0       -3.732904   -0.284632   -0.622003
     19          1           0        2.672116    3.810345    1.061407
     20          1           0        2.301434    4.950548   -0.249426
     21          1           0        2.966550    3.350767   -0.634192
     22          1           0        0.191697    3.870344    0.592554
     23          1           0        0.514511    3.372892   -1.090366
     24          1           0        0.527197   -0.316058    1.032441
     25          1           0        2.845007    0.308129    1.473311
     26          1           0        3.367658   -0.425806   -0.056080
     27          1           0        3.828239   -2.001357    1.818042
     28          1           0        2.145758   -1.904332    2.339076
     29          1           0        3.128448   -3.027413   -0.340226
     30          1           0        2.430699   -3.963658    0.991710
     31          1           0        0.762475   -3.497384   -0.821860
     32          1           0        0.274192   -2.824547    0.739974
     33          1           0       -0.121015   -0.356479   -2.168736
     34          1           0       -0.110717   -2.093161   -2.364436
     35          1           0       -2.294966   -1.715616   -1.874377
     36          1           0       -1.717703   -2.213837   -0.297717
     37          1           0       -1.999158    0.718406   -1.110171
     38          1           0       -1.884279   -0.722514    1.569284
     39          1           0       -1.217585    0.867323    1.148854
     40          1           0       -3.579047    0.784142    2.501302
     41          1           0       -3.430726    1.884429    1.117365
     42          1           0       -4.655484   -0.921686    1.130751
     43          1           0       -5.322042    0.546098    0.379700
 ---------------------------------------------------------------------

 SCF Done:  E(UB3LYP) =  -829.261014103     A.U. after   33 cycles
 SCF Done:  E(UB3LYP) =  -829.261014103     a.u. after    1 cycles

 The electronic state is 2-A.
 Alpha  occ. eigenvalues --  -19.07846 -19.02617 -19.02412 -14.21598 -10.21153
 Alpha  occ. eigenvalues --  -10.13663 -10.12867 -10.12298 -10.12193 -10.10383
 Alpha  occ. eigenvalues --  -10.10234 -10.08225 -10.07899 -10.07781 -10.07622
 Alpha  occ. eigenvalues --  -10.07575 -10.07503 -10.07435  -1.01847  -0.94247
 Alpha  occ. eigenvalues --   -0.93348  -0.84370  -0.71986  -0.69827  -0.69413
 Alpha  occ. eigenvalues --   -0.68213  -0.66801  -0.62538  -0.58738  -0.55999
 Alpha  occ. eigenvalues --   -0.54345  -0.51907  -0.50828  -0.48234  -0.47588
 Alpha  occ. eigenvalues --   -0.45614  -0.43045  -0.41122  -0.40340  -0.39817
 Alpha  occ. eigenvalues --   -0.39304  -0.38831  -0.36838  -0.36415  -0.35363
 Alpha  occ. eigenvalues --   -0.34590  -0.34341  -0.33879  -0.32379  -0.32062
 Alpha  occ. eigenvalues --   -0.31320  -0.31150  -0.29720  -0.29405  -0.28696
 Alpha  occ. eigenvalues --   -0.28205  -0.27229  -0.26598  -0.25998  -0.25291
 Alpha  occ. eigenvalues --   -0.24743  -0.24416  -0.24017  -0.23831  -0.23018
 Alpha  occ. eigenvalues --   -0.22466  -0.21673  -0.18818  -0.16235  -0.12600
 Alpha  occ. eigenvalues --    0.04074
 Alpha virt. eigenvalues --    0.05713   0.06054   0.07105   0.07521   0.07832
 Alpha virt. eigenvalues --    0.08248   0.08627   0.08766   0.09146   0.09693
 Alpha virt. eigenvalues --    0.10037   0.10709   0.10785   0.11129   0.11710

  Beta  occ. eigenvalues --  -19.07845 -19.02618 -19.02403 -14.21594 -10.21138
  Beta  occ. eigenvalues --  -10.13640 -10.12863 -10.12284 -10.12192 -10.10373
  Beta  occ. eigenvalues --  -10.10230 -10.08215 -10.07875 -10.07760 -10.07607
  Beta  occ. eigenvalues --  -10.07563 -10.07469 -10.07431  -1.01832  -0.94243
  Beta  occ. eigenvalues --   -0.93334  -0.84360  -0.71964  -0.69800  -0.69387
  Beta  occ. eigenvalues --   -0.68192  -0.66769  -0.62515  -0.58696  -0.55966
  Beta  occ. eigenvalues --   -0.54306  -0.51876  -0.50776  -0.48201  -0.47542
  Beta  occ. eigenvalues --   -0.45586  -0.43025  -0.41101  -0.40314  -0.39788
  Beta  occ. eigenvalues --   -0.39270  -0.38793  -0.36812  -0.36389  -0.35341
  Beta  occ. eigenvalues --   -0.34571  -0.34312  -0.33854  -0.32352  -0.32027
  Beta  occ. eigenvalues --   -0.31286  -0.31125  -0.29677  -0.29379  -0.28666
  Beta  occ. eigenvalues --   -0.28180  -0.27206  -0.26579  -0.25969  -0.25264
  Beta  occ. eigenvalues --   -0.24720  -0.24388  -0.23988  -0.23806  -0.22996
  Beta  occ. eigenvalues --   -0.22451  -0.21652  -0.18806  -0.16227  -0.12577
  Beta virt. eigenvalues --    0.06079   0.06591   0.06705   0.07440   0.07905
  Beta virt. eigenvalues --    0.08168   0.08511   0.08911   0.09024   0.09435
  Beta virt. eigenvalues --    0.10093   0.10357   0.10893   0.11033   0.11296

 Mulliken charges and spin densities:
               1          2
     1  C    0.827580  -1.323712
     2  C   -0.124697   0.102088
     3  O    0.098820   0.029691
     4  C   -0.784386   0.308891
     5  O   -0.146967   0.000770
     6  C    0.356994  -0.579795
     7  C   -0.400832  -0.039278
     8  C    0.102341  -0.493676
     9  C   -0.044091  -0.465075
    10  C    0.074213  -0.140616
    11  N    0.313977   0.065247
    12  C   -0.039922  -0.228840
    13  C    0.015973  -0.188435
    14  C   -0.841954   0.392727
    15  C    0.032908  -0.110322
    16  C   -0.028850  -0.490591
    17  C    0.339801  -0.592178
    18  O   -0.100359   0.017665
    19  H   -0.083803   0.241547
    20  H   -0.333058   0.486260
    21  H   -0.108433   0.279117
    22  H   -0.601166   0.768503
    23  H    0.176308  -0.009747
    24  H    0.511510  -0.290848
    25  H    0.012362   0.135868
    26  H    0.166898   0.011101
    27  H   -0.333541   0.523862
    28  H   -0.148222   0.277956
    29  H    0.131325  -0.000515
    30  H   -0.278423   0.456948
    31  H   -0.002718   0.151185
    32  H    0.017531   0.096824
    33  H    0.207720  -0.018321
    34  H    0.136353   0.031641
    35  H    0.141966   0.045102
    36  H    0.064314   0.110976
    37  H    0.047428   0.137719
    38  H   -0.105112   0.272716
    39  H    0.118147   0.045433
    40  H   -0.371581   0.530804
    41  H    0.025254   0.126217
    42  H    0.013692   0.115491
    43  H   -0.055298   0.209599
 Sum of Mulliken charges =  -1.00000   1.00000

 Dipole moment (field-independent basis, Debye):
    X=             -0.9826    Y=             -2.8615    Z=             -3.5869  Tot=              4.6925
 Quadrupole moment (field-independent basis, Debye-Ang):
   XX=           -180.9274   YY=           -184.9673   ZZ=           -156.0514
   XY=              0.4183   XZ=             -0.2658   YZ=              2.5786

 Summary of Natural Population Analysis:

                                       Natural Population
                Natural  -----------------------------------------------
    Atom  No    Charge         Core      Valence    Rydberg      Total
 -----------------------------------------------------------------------
      C    1   -0.29938      0.99966     2.29477    0.00495     3.29938
      C    2   -0.01642      0.99957     2.00494    0.01191     3.01642
      O    3   -0.28412      0.99986     3.27474    0.00952     4.28412
      C    4    0.41503      0.99965     1.55774    0.02757     2.58497
      O    5   -0.30499      0.99987     3.30003    0.00509     4.30499
      C    6   -0.05295      0.99952     2.04019    0.01324     3.05295
      C    7   -0.18505      0.99961     2.17621    0.00924     3.18505
      C    8   -0.18949      0.99962     2.18144    0.00842     3.18949
      C    9   -0.19305      0.99963     2.18405    0.00937     3.19305
      C   10   -0.08285      0.99961     2.07215    0.01108     3.08285
      N   11   -0.27666      0.99969     2.76593    0.01103     3.77666
      C   12   -0.08561      0.99961     2.07549    0.01051     3.08561
      C   13   -0.21057      0.99959     2.20226    0.00872     3.21057
      C   14    0.06677      0.99956     1.91962    0.01405     2.93323
      C   15   -0.21012      0.99961     2.20170    0.00881     3.21012
      C   16   -0.20165      0.99964     2.19448    0.00753     3.20165
      C   17   -0.00831      0.99960     1.99603    0.01268     3.00831
      O   18   -0.30867      0.99989     3.30077    0.00801     4.30867
      H   19    0.10212      0.00000     0.39663    0.00125     0.39788
      H   20    0.10402      0.00000     0.39461    0.00138     0.39598
      H   21    0.10433      0.00000     0.39466    0.00101     0.39567
      H   22    0.09411      0.00000     0.40408    0.00181     0.40589
      H   23    0.09346      0.00000     0.40524    0.00130     0.40654
      H   24    0.09663      0.00000     0.40010    0.00327     0.40337
      H   25    0.10479      0.00000     0.39414    0.00107     0.39521
      H   26    0.10047      0.00000     0.39800    0.00153     0.39953
      H   27    0.10170      0.00000     0.39711    0.00119     0.39830
      H   28    0.09606      0.00000     0.40238    0.00156     0.40394
      H   29    0.09575      0.00000     0.40295    0.00130     0.40425
      H   30    0.10009      0.00000     0.39882    0.00110     0.39991
      H   31    0.09636      0.00000     0.40260    0.00103     0.40364
      H   32    0.08042      0.00000     0.41786    0.00173     0.41958
      H   33    0.10442      0.00000     0.39424    0.00134     0.39558
      H   34    0.09381      0.00000     0.40528    0.00091     0.40619
      H   35    0.10590      0.00000     0.39283    0.00127     0.39410
      H   36    0.09768      0.00000     0.40091    0.00141     0.40232
      H   37    0.08038      0.00000     0.41785    0.00177     0.41962
      H   38    0.09652      0.00000     0.40187    0.00161     0.40348
      H   39    0.11366      0.00000     0.38442    0.00192     0.38634
      H   40    0.10479      0.00000     0.39381    0.00141     0.39521
      H   41    0.09774      0.00000     0.40097    0.00128     0.40226
      H   42    0.07669      0.00000     0.42193    0.00137     0.42331
      H   43    0.08619      0.00000     0.41262    0.00119     0.41381
 =======================================================================
   * Total *    0.00000     17.99379    51.77844    0.22777    70.00000

 Normal termination of Gaussian 16 at Fri Dec 11 21:11:44 2020.
