 Gaussian 16, Revision A.03,

 -----------------------------------------------------------
 # opt freq B3LYP/6-31G(d) empiricaldispersion=gd3bj scf=xqc
 -----------------------------------------------------------

 -----------------------------
 CID_5212348_JID_9399_neutraal
 -----------------------------
 Symbolic Z-matrix:
 Charge =  0 Multiplicity = 1

 SCF Done:  E(RB3LYP) =  -1106.87047029     A.U. after   18 cycles
 SCF Done:  E(RB3LYP) =  -1106.88438988     A.U. after   15 cycles
 SCF Done:  E(RB3LYP) =  -1106.88430959     A.U. after   15 cycles
 SCF Done:  E(RB3LYP) =  -1106.87952361     A.U. after   15 cycles
 SCF Done:  E(RB3LYP) =  -1106.87822404     A.U. after   15 cycles
 SCF Done:  E(RB3LYP) =  -1106.88507091     A.U. after   12 cycles
 SCF Done:  E(RB3LYP) =  -1106.88592815     A.U. after   14 cycles
 SCF Done:  E(RB3LYP) =  -1106.88511655     A.U. after   15 cycles
 SCF Done:  E(RB3LYP) =  -1106.88576360     A.U. after   15 cycles
 SCF Done:  E(RB3LYP) =  -1106.88638731     A.U. after   11 cycles
 SCF Done:  E(RB3LYP) =  -1106.88701812     A.U. after   11 cycles
 SCF Done:  E(RB3LYP) =  -1106.88701833     A.U. after   10 cycles
 SCF Done:  E(RB3LYP) =  -1106.88701838     A.U. after    9 cycles
 SCF Done:  E(RB3LYP) =  -1106.88701839     A.U. after    8 cycles
 Optimization completed.
    -- Stationary point found.
 Normal termination of Gaussian 16 at Sun Dec 13 12:41:27 2020.

 --------------------------------------------------------------------
 #N Geom=AllCheck Guess=TCheck SCRF=Check GenChk RB3LYP/6-31G(d) Freq
 --------------------------------------------------------------------

 Structure from the checkpoint file:  "JID_9399.chk"
 -----------------------------
 CID_5212348_JID_9399_neutraal
 -----------------------------
 Charge =  0 Multiplicity = 1

 SCF Done:  E(RB3LYP) =  -1106.88701838     A.U. after    1 cycles

  Exact polarizability: 155.927 -10.150 117.883 -13.281   2.081  85.574
 Approx polarizability: 239.319 -12.829 226.936 -21.952   7.737 165.777

                      1                      2                      3
                      A                      A                      A
 Frequencies --     12.1154                29.3996                35.2949
 Red. masses --     11.0438                 9.5408                 9.6624
 Frc consts  --      0.0010                 0.0049                 0.0071
 IR Inten    --      0.2869                 0.1764                 0.2436

                      4                      5                      6
                      A                      A                      A
 Frequencies --     51.9094                59.0781                90.7896
 Red. masses --      8.1311                 9.1649                12.0155
 Frc consts  --      0.0129                 0.0188                 0.0584
 IR Inten    --      0.7103                 0.3174                 0.2606

                      7                      8                      9
                      A                      A                      A
 Frequencies --    107.1833               128.5673               160.0393
 Red. masses --     10.4488                 7.7549                11.7469
 Frc consts  --      0.0707                 0.0755                 0.1773
 IR Inten    --      0.5541                 0.5808                 0.3626

                     10                     11                     12
                      A                      A                      A
 Frequencies --    174.5682               190.4392               212.2156
 Red. masses --      8.7273                10.7315                13.1949
 Frc consts  --      0.1567                 0.2293                 0.3501
 IR Inten    --      1.6702                 3.8766                 2.9249

                     13                     14                     15
                      A                      A                      A
 Frequencies --    232.7895               253.0283               301.8015
 Red. masses --     12.3003                 6.9750                 9.6566
 Frc consts  --      0.3927                 0.2631                 0.5182
 IR Inten    --      2.8458                 9.8746                 2.3533

                     16                     17                     18
                      A                      A                      A
 Frequencies --    353.2479               372.2794               393.4945
 Red. masses --      3.4127                 9.1163                14.8162
 Frc consts  --      0.2509                 0.7444                 1.3516
 IR Inten    --     13.1074                 6.1056                 0.4120

                     19                     20                     21
                      A                      A                      A
 Frequencies --    417.6600               450.6380               522.6868
 Red. masses --     10.4706                 6.8559                 7.4329
 Frc consts  --      1.0761                 0.8203                 1.1964
 IR Inten    --      2.6367                 0.5153                 9.3232

                     22                     23                     24
                      A                      A                      A
 Frequencies --    538.7311               573.3582               629.7121
 Red. masses --      7.7066                 2.0949                 3.5467
 Frc consts  --      1.3178                 0.4058                 0.8286
 IR Inten    --     15.5670                43.4754                 0.1706

                     25                     26                     27
                      A                      A                      A
 Frequencies --    645.6219               668.3165               697.9834
 Red. masses --      8.8529                 8.3592                 2.3505
 Frc consts  --      2.1742                 2.1998                 0.6747
 IR Inten    --     14.8411                 3.5683                17.6406

                     28                     29                     30
                      A                      A                      A
 Frequencies --    735.7429               757.0312               777.9229
 Red. masses --      7.9307                 5.3180                 5.3841
 Frc consts  --      2.5294                 1.7957                 1.9197
 IR Inten    --      1.7868                50.2993                 4.9625

                     31                     32                     33
                      A                      A                      A
 Frequencies --    806.6613               820.0562               825.7678
 Red. masses --     11.0888                10.6235                 1.2570
 Frc consts  --      4.2512                 4.2093                 0.5050
 IR Inten    --     52.4546                59.0673                40.3769

                     34                     35                     36
                      A                      A                      A
 Frequencies --    866.4765               897.3555               899.5194
 Red. masses --     13.3477                 4.7260                 1.3458
 Frc consts  --      5.9043                 2.2422                 0.6416
 IR Inten    --     19.4122                19.8515                 1.1372

                     37                     38                     39
                      A                      A                      A
 Frequencies --    944.8299               980.0768              1023.2921
 Red. masses --      5.7831                 7.2728                 8.0129
 Frc consts  --      3.0417                 4.1159                 4.9436
 IR Inten    --     16.5623                71.3042                33.1871

                     40                     41                     42
                      A                      A                      A
 Frequencies --   1065.9267              1087.7712              1127.6885
 Red. masses --      1.5329                 3.5519                 2.6034
 Frc consts  --      1.0261                 2.4762                 1.9506
 IR Inten    --     47.6647                31.1475                 9.4304

                     43                     44                     45
                      A                      A                      A
 Frequencies --   1156.8966              1165.3178              1178.7467
 Red. masses --      2.2957                 7.6930                 6.6855
 Frc consts  --      1.8103                 6.1551                 5.4730
 IR Inten    --     18.6529                 7.4892               479.2641

                     46                     47                     48
                      A                      A                      A
 Frequencies --   1277.6823              1316.8252              1336.2334
 Red. masses --      1.9426                 1.1842                 2.8556
 Frc consts  --      1.8685                 1.2099                 3.0041
 IR Inten    --     11.4966                11.5911               147.7724

                     49                     50                     51
                      A                      A                      A
 Frequencies --   1361.1548              1369.2916              1370.9431
 Red. masses --      3.8426                14.6825                14.4268
 Frc consts  --      4.1946                16.2196                15.9756
 IR Inten    --    127.1407               123.6061               132.6515

                     52                     53                     54
                      A                      A                      A
 Frequencies --   1409.9069              1441.9798              1467.3742
 Red. masses --      1.9225                 3.4975                 2.9757
 Frc consts  --      2.2516                 4.2848                 3.7750
 IR Inten    --     31.0551                24.2503                40.5457

                     55                     56                     57
                      A                      A                      A
 Frequencies --   1489.6068              1502.1696              1603.3629
 Red. masses --      4.2978                 1.1395                 3.9510
 Frc consts  --      5.6188                 1.5149                 5.9844
 IR Inten    --     32.6145                30.8571                42.8862

                     58                     59                     60
                      A                      A                      A
 Frequencies --   1702.3307              1706.9510              1720.9071
 Red. masses --     14.3936                14.5212                14.4238
 Frc consts  --     24.5758                24.9285                25.1678
 IR Inten    --    322.0613               216.1302               184.4409

                     61                     62                     63
                      A                      A                      A
 Frequencies --   1819.2717              3124.8428              3185.8780
 Red. masses --     12.2472                 1.0566                 1.1104
 Frc consts  --     23.8826                 6.0790                 6.6406
 IR Inten    --    283.1368                16.7467                 5.6436

                     64                     65                     66
                      A                      A                      A
 Frequencies --   3274.2601              3301.0825              3649.6125
 Red. masses --      1.0946                 1.1009                 1.0818
 Frc consts  --      6.9141                 7.0680                 8.4893
 IR Inten    --      3.8622                 0.3855               102.7090

 - Thermochemistry -
 -------------------
 Temperature   298.150 Kelvin.  Pressure   1.00000 Atm.
 Atom     1 has atomic number  6 and mass  12.00000

 Molecular mass:   275.01381 amu.
 Principal axes and moments of inertia in atomic units:
                           1         2         3
     Eigenvalues --  2144.936807834.172438330.11778
           X            0.99998  -0.00604  -0.00254
           Y            0.00607   0.99992   0.01148
           Z            0.00247  -0.01149   0.99993
 This molecule is an asymmetric top.
 Rotational symmetry number  1.
 Warning -- assumption of classical behavior for rotation
           may cause significant error
 Rotational temperatures (Kelvin)      0.04038     0.01106     0.01040
 Rotational constants (GHZ):           0.84140     0.23037     0.21665
 Zero-point vibrational energy     393880.6 (Joules/Mol)
                                   94.13972 (Kcal/Mol)
 Warning -- explicit consideration of  23 degrees of freedom as
           vibrations may cause significant error
 Vibrational temperatures:     17.43    42.30    50.78    74.69    85.00
          (Kelvin)            130.63   154.21   184.98   230.26   251.16
                              274.00   305.33   334.93   364.05   434.23
                              508.24   535.63   566.15   600.92   648.37
                              752.03   775.11   824.93   906.02   928.91
                              961.56  1004.24  1058.57  1089.20  1119.26
                             1160.61  1179.88  1188.10  1246.67  1291.09
                             1294.21  1359.40  1410.11  1472.29  1533.63
                             1565.06  1622.49  1664.52  1676.63  1695.95
                             1838.30  1894.62  1922.54  1958.40  1970.11
                             1972.48  2028.54  2074.69  2111.22  2143.21
                             2161.29  2306.88  2449.27  2455.92  2476.00
                             2617.53  4495.95  4583.77  4710.93  4749.52
                             5250.98

 Zero-point correction=                           0.150021 (Hartree/Particle)
 Thermal correction to Energy=                    0.166758
 Thermal correction to Enthalpy=                  0.167702
 Thermal correction to Gibbs Free Energy=         0.101659
 Sum of electronic and zero-point Energies=          -1106.736997
 Sum of electronic and thermal Energies=             -1106.720260
 Sum of electronic and thermal Enthalpies=           -1106.719316
 Sum of electronic and thermal Free Energies=        -1106.785359

                     E (Thermal)             CV                S
                      KCal/Mol        Cal/Mol-Kelvin    Cal/Mol-Kelvin
 Total                  104.642             58.530            138.999
 Electronic               0.000              0.000              0.000
 Translational            0.889              2.981             42.734
 Rotational               0.889              2.981             33.303
 Vibrational            102.865             52.568             62.962
 Vibration     1          0.593              1.987              7.630
 Vibration     2          0.593              1.984              5.870
 Vibration     3          0.594              1.982              5.507
 Vibration     4          0.596              1.977              4.743
 Vibration     5          0.596              1.974              4.488
 Vibration     6          0.602              1.956              3.643
 Vibration     7          0.606              1.943              3.319
 Vibration     8          0.611              1.925              2.967
 Vibration     9          0.622              1.891              2.549
 Vibration    10          0.627              1.874              2.386
 Vibration    11          0.634              1.853              2.224
 Vibration    12          0.643              1.822              2.025
 Vibration    13          0.654              1.791              1.857
 Vibration    14          0.664              1.758              1.709
 Vibration    15          0.694              1.670              1.407
 Vibration    16          0.729              1.569              1.152
 Vibration    17          0.744              1.529              1.070
 Vibration    18          0.761              1.484              0.987
 Vibration    19          0.781              1.432              0.900
 Vibration    20          0.809              1.359              0.794
 Vibration    21          0.878              1.200              0.604
 Vibration    22          0.894              1.164              0.568
 Vibration    23          0.930              1.089              0.498

 Optimization completed.
    -- Stationary point found.
 Normal termination of Gaussian 16 at Sun Dec 13 12:50:07 2020.

 ----------------------------------------------------------------------
 # B3LYP/6-311++G(d,p) empiricaldispersion=gd3bj scf=xqc pop=npa geom=c
 heck
 ----------------------------------------------------------------------

 -------------------------------------
 CID_5212348_JID_9399_Energie_neutraal
 -------------------------------------
 Structure from the checkpoint file:  "JID_9399.chk"
 Charge =  0 Multiplicity = 1

 SCF Done:  E(RB3LYP) =  -1107.21888064     A.U. after   19 cycles
 Normal termination of Gaussian 16 at Sun Dec 13 12:53:37 2020.

 ----------------------------------------------------------------------
 # B3LYP/6-311++G(d,p) empiricaldispersion=gd3bj scf=xqc pop=npa geom=c
 heck
 ----------------------------------------------------------------------

 -----------------------------------
 CID_5212348_JID_9399_Energie_kation
 -----------------------------------
 Structure from the checkpoint file:  "JID_9399.chk"
 Charge =  1 Multiplicity = 2

 SCF Done:  E(UB3LYP) =  -1106.84896702     A.U. after   33 cycles
 SCF Done:  E(UB3LYP) =  -1106.84896702     a.u. after    2 cycles
 Normal termination of Gaussian 16 at Sun Dec 13 13:11:26 2020.
 Gaussian 16:  ES64L-G16RevA.03 25-Dec-2016

 ----------------------------------------------------------------------
 # B3LYP/6-311++G(d,p) empiricaldispersion=gd3bj scf=xqc pop=npa geom=c
 heck
 ----------------------------------------------------------------------

 ----------------------------------
 CID_5212348_JID_9399_Energie_anion
 ----------------------------------
 Structure from the checkpoint file:  "JID_9399.chk"
 Charge = -1 Multiplicity = 2

                         Standard orientation:
 ---------------------------------------------------------------------
 Center     Atomic      Atomic             Coordinates (Angstroms)
 Number     Number       Type             X           Y           Z
 ---------------------------------------------------------------------
      1          6           0       -3.169093    1.220098   -0.216598
      2          6           0       -2.803464   -0.120088   -0.255932
      3          7           0       -3.911696   -0.825622    0.110932
      4          7           0       -4.960726   -0.047921    0.384941
      5          6           0       -4.516376    1.202538    0.186471
      6          6           0       -1.573767   -0.823297   -0.578251
      7          8           0       -1.429737   -2.026432   -0.546821
      8          8           0       -0.585783    0.057396   -0.945609
      9          6           0        0.693176   -0.501288   -1.180508
     10          6           0        1.662740   -0.006239   -0.108055
     11          7           0        1.449304   -0.680235    1.246804
     12          8           0        2.428097   -1.174787    1.777664
     13          8           0        0.303033   -0.655861    1.659149
     14          7           0        3.106565   -0.279664   -0.524055
     15          8           0        3.944482    0.533921   -0.185336
     16          8           0        3.268552   -1.316225   -1.149864
     17          7           0        1.542860    1.508538    0.086153
     18          8           0        1.555137    2.140921   -0.957190
     19          8           0        1.472496    1.929209    1.223756
     20          1           0       -2.541674    2.067608   -0.445762
     21          1           0       -3.977657   -1.830864    0.194861
     22          1           0       -5.185771    2.036760    0.343369
     23          1           0        0.658103   -1.591238   -1.168959
     24          1           0        1.053330   -0.143419   -2.145693
 ---------------------------------------------------------------------

 SCF Done:  E(UB3LYP) =  -1107.29684470     A.U. after   33 cycles
 SCF Done:  E(UB3LYP) =  -1107.29684470     a.u. after    1 cycles

 The electronic state is 2-A.
 Alpha  occ. eigenvalues --  -19.08967 -19.04165 -19.03035 -19.02989 -19.02918
 Alpha  occ. eigenvalues --  -19.02895 -19.01373 -19.01358 -14.41046 -14.40899
 Alpha  occ. eigenvalues --  -14.39128 -14.32936 -14.27697 -10.23797 -10.19800
 Alpha  occ. eigenvalues --  -10.15255 -10.15205 -10.13083 -10.11098  -1.12046
 Alpha  occ. eigenvalues --   -1.10301  -1.09149  -1.03320  -0.99432  -0.95254
 Alpha  occ. eigenvalues --   -0.94385  -0.94088  -0.92854  -0.76744  -0.76009
 Alpha  occ. eigenvalues --   -0.73153  -0.64810  -0.58070  -0.57637  -0.56578
 Alpha  occ. eigenvalues --   -0.54779  -0.52763  -0.47544  -0.45911  -0.45077
 Alpha  occ. eigenvalues --   -0.43681  -0.42981  -0.41339  -0.40563  -0.39744
 Alpha  occ. eigenvalues --   -0.39333  -0.38963  -0.38733  -0.38636  -0.37813
 Alpha  occ. eigenvalues --   -0.37674  -0.37172  -0.35677  -0.34300  -0.33192
 Alpha  occ. eigenvalues --   -0.28402  -0.24236  -0.23850  -0.22098  -0.20929
 Alpha  occ. eigenvalues --   -0.20498  -0.20365  -0.19750  -0.19341  -0.19021
 Alpha  occ. eigenvalues --   -0.18824  -0.18391  -0.17358  -0.16798  -0.16576
 Alpha  occ. eigenvalues --   -0.00714
 Alpha virt. eigenvalues --    0.02034   0.03131   0.03965   0.06579   0.07975
 Alpha virt. eigenvalues --    0.09513   0.09670   0.11033   0.12359   0.12859
 Alpha virt. eigenvalues --    0.13655   0.14536   0.15554   0.16064   0.16246

  Beta  occ. eigenvalues --  -19.08969 -19.04159 -19.02820 -19.02795 -19.02724
  Beta  occ. eigenvalues --  -19.02649 -19.01072 -19.01026 -14.40637 -14.40488
  Beta  occ. eigenvalues --  -14.38587 -14.32936 -14.27697 -10.23797 -10.19825
  Beta  occ. eigenvalues --  -10.15255 -10.15200 -10.13083 -10.11098  -1.11452
  Beta  occ. eigenvalues --   -1.09757  -1.08399  -1.03317  -0.99431  -0.95236
  Beta  occ. eigenvalues --   -0.93983  -0.93689  -0.92263  -0.76635  -0.75772
  Beta  occ. eigenvalues --   -0.73118  -0.64662  -0.57313  -0.57150  -0.56004
  Beta  occ. eigenvalues --   -0.54778  -0.52633  -0.47410  -0.45451  -0.44396
  Beta  occ. eigenvalues --   -0.42894  -0.42334  -0.41279  -0.40224  -0.39197
  Beta  occ. eigenvalues --   -0.38736  -0.38320  -0.38286  -0.37725  -0.37405
  Beta  occ. eigenvalues --   -0.36976  -0.36608  -0.35462  -0.33999  -0.33064
  Beta  occ. eigenvalues --   -0.28375  -0.24186  -0.23846  -0.22047  -0.20484
  Beta  occ. eigenvalues --   -0.20299  -0.19616  -0.19197  -0.18766  -0.18742
  Beta  occ. eigenvalues --   -0.17688  -0.17249  -0.16601  -0.16518  -0.16199
  Beta virt. eigenvalues --    0.02089   0.05440   0.05977   0.06576   0.07265
  Beta virt. eigenvalues --    0.07976   0.09513   0.09674   0.11056   0.12353
  Beta virt. eigenvalues --    0.12873   0.13674   0.14542   0.15587   0.16082

 Mulliken charges and spin densities:
               1          2
     1  C    0.350860   0.000345
     2  C   -0.387473   0.002089
     3  N   -0.023569  -0.000072
     4  N   -0.203894   0.000073
     5  C   -0.365982  -0.000186
     6  C   -0.109836   0.000352
     7  O   -0.236974   0.001087
     8  O    0.068131  -0.001564
     9  C   -0.187264  -0.024813
    10  C   -0.727080   0.059701
    11  N    0.040000   0.110630
    12  O   -0.020637   0.082613
    13  O   -0.110239   0.070137
    14  N   -0.053046   0.157674
    15  O   -0.082299   0.128004
    16  O   -0.129461   0.111792
    17  N    0.162592   0.121883
    18  O   -0.109410   0.062527
    19  O   -0.074372   0.093057
    20  H    0.198504   0.001074
    21  H    0.328053   0.000019
    22  H    0.160804  -0.000144
    23  H    0.266705  -0.000731
    24  H    0.245887   0.024454
 Sum of Mulliken charges =  -1.00000   1.00000

 Dipole moment (field-independent basis, Debye):
    X=             -9.4035    Y=             -0.3708    Z=             -2.8790  Tot=              9.8414
 Quadrupole moment (field-independent basis, Debye-Ang):
   XX=           -163.3522   YY=           -124.2655   ZZ=           -121.9608
   XY=             -2.5427   XZ=              1.2991   YZ=              1.0539

 Summary of Natural Population Analysis:

                                       Natural Population
                Natural  -----------------------------------------------
    Atom  No    Charge         Core      Valence    Rydberg      Total
 -----------------------------------------------------------------------
      C    1   -0.12709      0.99954     2.12011    0.00743     3.12709
      C    2    0.01853      0.99951     1.97045    0.01152     2.98147
      N    3   -0.15118      0.99966     2.63950    0.01202     3.65118
      N    4   -0.14010      0.99975     2.62669    0.01365     3.64010
      C    5   -0.02223      0.99966     2.00793    0.01464     3.02223
      C    6    0.39446      0.99960     1.58258    0.02336     2.60554
      O    7   -0.29786      0.99987     3.29223    0.00576     4.29786
      O    8   -0.27323      0.99986     3.26338    0.00999     4.27323
      C    9   -0.04314      0.99948     2.03014    0.01353     3.04314
      C   10    0.16799      0.99952     1.80826    0.02423     2.83201
      N   11    0.28068      0.99970     2.19010    0.02952     3.21932
      O   12   -0.16397      0.99989     3.15606    0.00802     4.16397
      O   13   -0.18680      0.99989     3.17737    0.00954     4.18680
      N   14    0.29368      0.99971     2.17665    0.02996     3.20632
      O   15   -0.15878      0.99989     3.15079    0.00810     4.15878
      O   16   -0.18539      0.99989     3.17745    0.00805     4.18539
      N   17    0.28361      0.99971     2.18580    0.03088     3.21639
      O   18   -0.19154      0.99989     3.18325    0.00840     4.19154
      O   19   -0.15771      0.99989     3.14958    0.00824     4.15771
      H   20    0.12115      0.00000     0.37798    0.00087     0.37885
      H   21    0.20731      0.00000     0.29080    0.00189     0.29269
      H   22    0.09905      0.00000     0.40002    0.00093     0.40095
      H   23    0.12002      0.00000     0.37830    0.00168     0.37998
      H   24    0.11254      0.00000     0.38591    0.00154     0.38746
 =======================================================================
   * Total *   -0.00000     18.99493    50.72134    0.28374    70.00000

 Normal termination of Gaussian 16 at Sun Dec 13 13:19:45 2020.
