 Gaussian 16, Revision A.03,

 -----------------------------------------------------------
 # opt freq B3LYP/6-31G(d) empiricaldispersion=gd3bj scf=xqc
 -----------------------------------------------------------

 -------------------------------
 CID_17359292_JID_10726_neutraal
 -------------------------------
 Symbolic Z-matrix:
 Charge =  0 Multiplicity = 1

 SCF Done:  E(RB3LYP) =  -1288.85156442     A.U. after   16 cycles
 SCF Done:  E(RB3LYP) =  -1288.85670334     A.U. after   16 cycles
 SCF Done:  E(RB3LYP) =  -1288.85211014     A.U. after   17 cycles
 SCF Done:  E(RB3LYP) =  -1288.85831154     A.U. after   15 cycles
 SCF Done:  E(RB3LYP) =  -1288.85935271     A.U. after   15 cycles
 SCF Done:  E(RB3LYP) =  -1288.85964032     A.U. after   14 cycles
 SCF Done:  E(RB3LYP) =  -1288.85971056     A.U. after   14 cycles
 SCF Done:  E(RB3LYP) =  -1288.85974534     A.U. after   11 cycles
 SCF Done:  E(RB3LYP) =  -1288.85975713     A.U. after   12 cycles
 SCF Done:  E(RB3LYP) =  -1288.85976182     A.U. after   11 cycles
 SCF Done:  E(RB3LYP) =  -1288.85976351     A.U. after   10 cycles
 SCF Done:  E(RB3LYP) =  -1288.85976523     A.U. after   10 cycles
 SCF Done:  E(RB3LYP) =  -1288.85976586     A.U. after    9 cycles
 SCF Done:  E(RB3LYP) =  -1288.85976599     A.U. after    9 cycles
 SCF Done:  E(RB3LYP) =  -1288.85976602     A.U. after    8 cycles
 Optimization completed.
    -- Stationary point found.
 Normal termination of Gaussian 16 at Mon Dec 14 18:55:00 2020.

 --------------------------------------------------------------------
 #N Geom=AllCheck Guess=TCheck SCRF=Check GenChk RB3LYP/6-31G(d) Freq
 --------------------------------------------------------------------

 Structure from the checkpoint file:  "JID_10726.chk"
 -------------------------------
 CID_17359292_JID_10726_neutraal
 -------------------------------
 Charge =  0 Multiplicity = 1

 SCF Done:  E(RB3LYP) =  -1288.85976602     A.U. after    1 cycles

  Exact polarizability: 360.440   9.204 193.826  -0.190  -0.895  70.025
 Approx polarizability: 494.306   7.955 390.934  -1.049  -6.455 115.009

                      1                      2                      3
                      A                      A                      A
 Frequencies --     26.3976                32.1179                36.4512
 Red. masses --      7.7881                 8.5514                 5.4827
 Frc consts  --      0.0032                 0.0052                 0.0043
 IR Inten    --      0.1357                 0.6404                 0.1903

                      4                      5                      6
                      A                      A                      A
 Frequencies --     49.2818                73.7597               103.7820
 Red. masses --      6.7555                 8.5849                 8.0149
 Frc consts  --      0.0097                 0.0275                 0.0509
 IR Inten    --      0.2533                 5.2371                 0.0011

                      7                      8                      9
                      A                      A                      A
 Frequencies --    133.5115               156.3867               197.4722
 Red. masses --      7.1799                 5.1068                11.4519
 Frc consts  --      0.0754                 0.0736                 0.2631
 IR Inten    --      1.8340                 0.7713                 0.2589

                     10                     11                     12
                      A                      A                      A
 Frequencies --    216.3438               240.7785               271.6023
 Red. masses --      2.8024                 1.1905                 7.8727
 Frc consts  --      0.0773                 0.0407                 0.3422
 IR Inten    --      0.8508                 0.2241                 3.0288

                     13                     14                     15
                      A                      A                      A
 Frequencies --    285.9009               328.7316               354.0508
 Red. masses --      6.9202                 4.7866                 8.1174
 Frc consts  --      0.3333                 0.3048                 0.5995
 IR Inten    --      0.4880                 1.3409                 0.2029

                     16                     17                     18
                      A                      A                      A
 Frequencies --    366.6414               415.9072               449.4564
 Red. masses --      6.7781                 6.8495                 3.3312
 Frc consts  --      0.5368                 0.6981                 0.3965
 IR Inten    --      3.6692                 1.4127                 1.8244

                     19                     20                     21
                      A                      A                      A
 Frequencies --    469.6812               494.4998               517.4013
 Red. masses --      6.8434                 5.8729                 9.2639
 Frc consts  --      0.8895                 0.8461                 1.4612
 IR Inten    --      3.6756                 0.8653                 0.0484

                     22                     23                     24
                      A                      A                      A
 Frequencies --    559.9823               574.5120               578.7906
 Red. masses --      4.7378                 5.7963                 3.3159
 Frc consts  --      0.8753                 1.1272                 0.6545
 IR Inten    --      1.4677                 1.7857                 0.3769

                     25                     26                     27
                      A                      A                      A
 Frequencies --    593.9370               667.2735               691.6217
 Red. masses --      4.9175                 9.9582                 5.9188
 Frc consts  --      1.0221                 2.6124                 1.6681
 IR Inten    --      0.1256                 4.9990                 0.1555

                     28                     29                     30
                      A                      A                      A
 Frequencies --    706.7077               713.0392               721.4345
 Red. masses --      4.4757                 6.1057                 1.3014
 Frc consts  --      1.3170                 1.8290                 0.3991
 IR Inten    --     11.3733                 2.2714                36.6237

                     31                     32                     33
                      A                      A                      A
 Frequencies --    741.1227               756.2816               773.0064
 Red. masses --      5.5487                 6.7393                 6.0213
 Frc consts  --      1.7956                 2.2711                 2.1198
 IR Inten    --     48.3755                 6.5781                 3.6959

                     34                     35                     36
                      A                      A                      A
 Frequencies --    840.8883               850.0165               868.1868
 Red. masses --      8.2841                 1.3386                 4.3732
 Frc consts  --      3.4512                 0.5698                 1.9421
 IR Inten    --     25.4470                 3.2155                30.9658

                     37                     38                     39
                      A                      A                      A
 Frequencies --    872.9828               901.6839               909.2359
 Red. masses --      1.4930                 6.8144                 1.4128
 Frc consts  --      0.6704                 3.2643                 0.6881
 IR Inten    --     14.3314                52.5169                10.4868

                     40                     41                     42
                      A                      A                      A
 Frequencies --    920.1212               955.8404               994.0152
 Red. masses --      1.3374                 9.3528                 1.4098
 Frc consts  --      0.6671                 5.0346                 0.8207
 IR Inten    --      0.5423                 0.0948                 1.8191

                     43                     44                     45
                      A                      A                      A
 Frequencies --    998.2991              1024.0573              1042.7288
 Red. masses --      5.6662                 4.5431                 1.8014
 Frc consts  --      3.3271                 2.8071                 1.1540
 IR Inten    --      7.0904                 0.3756                 1.5874

                     46                     47                     48
                      A                      A                      A
 Frequencies --   1074.5274              1076.6861              1095.2285
 Red. masses --      1.6168                 2.4034                 2.6210
 Frc consts  --      1.0999                 1.6415                 1.8523
 IR Inten    --      8.5934                23.1900                70.9934

                     49                     50                     51
                      A                      A                      A
 Frequencies --   1108.7958              1118.8977              1131.0461
 Red. masses --      4.4908                 1.4434                 2.3338
 Frc consts  --      3.2530                 1.0647                 1.7590
 IR Inten    --      4.2246                 0.4675                40.0442

                     52                     53                     54
                      A                      A                      A
 Frequencies --   1191.6286              1219.5570              1266.0798
 Red. masses --      1.4811                 2.3690                 1.5047
 Frc consts  --      1.2391                 2.0759                 1.4211
 IR Inten    --      7.5153                24.2219                 2.9581

                     55                     56                     57
                      A                      A                      A
 Frequencies --   1300.5972              1322.8820              1369.6722
 Red. masses --      3.1161                 2.0112                 6.6045
 Frc consts  --      3.1057                 2.0737                 7.3000
 IR Inten    --      8.2146                 4.9801                44.9414

                     58                     59                     60
                      A                      A                      A
 Frequencies --   1390.5557              1391.7103              1398.3927
 Red. masses --      6.6826                 3.0945                 7.8395
 Frc consts  --      7.6133                 3.5313                 9.0323
 IR Inten    --    381.7280                91.2334                40.4289

                     61                     62                     63
                      A                      A                      A
 Frequencies --   1436.7830              1448.4990              1478.1674
 Red. masses --      2.8370                 1.2588                 5.7238
 Frc consts  --      3.4505                 1.5561                 7.3685
 IR Inten    --      0.3453                 3.5589                17.0340

                     64                     65                     66
                      A                      A                      A
 Frequencies --   1507.0500              1514.0797              1530.2987
 Red. masses --      1.0679                 1.2986                 2.2046
 Frc consts  --      1.4290                 1.7540                 3.0418
 IR Inten    --      7.1259                23.7832                23.2745

                     67                     68                     69
                      A                      A                      A
 Frequencies --   1543.0653              1592.7900              1610.9876
 Red. masses --      5.1973                 8.4928                10.2786
 Frc consts  --      7.2912                12.6946                15.7170
 IR Inten    --    127.8135                12.4578                84.4017

                     70                     71                     72
                      A                      A                      A
 Frequencies --   1635.8641              1651.9532              1673.0982
 Red. masses --      8.9002                 7.4173                 6.9286
 Frc consts  --     14.0328                11.9259                11.4271
 IR Inten    --    232.8322                84.7708                70.3289

                     73                     74                     75
                      A                      A                      A
 Frequencies --   3071.6701              3142.2962              3145.3275
 Red. masses --      1.0359                 1.1010                 1.1031
 Frc consts  --      5.7586                 6.4053                 6.4298
 IR Inten    --     12.0440                 6.2941                14.2494

                     76                     77                     78
                      A                      A                      A
 Frequencies --   3219.4927              3230.9275              3236.3601
 Red. masses --      1.0904                 1.0888                 1.0908
 Frc consts  --      6.6589                 6.6964                 6.7316
 IR Inten    --      2.5331                 7.1679                 0.2140

                     79                     80                     81
                      A                      A                      A
 Frequencies --   3245.3424              3259.5810              3273.1121
 Red. masses --      1.0958                 1.0931                 1.0974
 Frc consts  --      6.7997                 6.8427                 6.9270
 IR Inten    --      1.4985                 1.3994                 0.6553

 - Thermochemistry -
 -------------------
 Temperature   298.150 Kelvin.  Pressure   1.00000 Atm.
 Atom     1 has atomic number  6 and mass  12.00000

 Molecular mass:   287.03646 amu.
 Principal axes and moments of inertia in atomic units:
                           1         2         3
     Eigenvalues --  1678.01795********************
           X            0.99999   0.00317   0.00002
           Y           -0.00317   0.99999   0.00213
           Z           -0.00002  -0.00213   1.00000
 This molecule is an asymmetric top.
 Rotational symmetry number  1.
 Warning -- assumption of classical behavior for rotation
           may cause significant error
 Rotational temperatures (Kelvin)      0.05162     0.00551     0.00499
 Rotational constants (GHZ):           1.07552     0.11487     0.10395
 Zero-point vibrational energy     540586.0 (Joules/Mol)
                                  129.20316 (Kcal/Mol)
 Warning -- explicit consideration of  25 degrees of freedom as
           vibrations may cause significant error
 Vibrational temperatures:     37.98    46.21    52.45    70.91   106.12
          (Kelvin)            149.32   192.09   225.01   284.12   311.27
                              346.43   390.78   411.35   472.97   509.40
                              527.52   598.40   646.67   675.77   711.47
                              744.43   805.69   826.59   832.75   854.54
                              960.06   995.09  1016.79  1025.90  1037.98
                             1066.31  1088.12  1112.18  1209.85  1222.98
                             1249.13  1256.03  1297.32  1308.19  1323.85
                             1375.24  1430.17  1436.33  1473.39  1500.25
                             1546.01  1549.11  1575.79  1595.31  1609.84
                             1627.32  1714.49  1754.67  1821.61  1871.27
                             1903.33  1970.65  2000.70  2002.36  2011.98
                             2067.21  2084.07  2126.75  2168.31  2178.42
                             2201.76  2220.13  2291.67  2317.85  2353.64
                             2376.79  2407.22  4419.45  4521.06  4525.42
                             4632.13  4648.58  4656.40  4669.32  4689.81
                             4709.28

 Zero-point correction=                           0.205898 (Hartree/Particle)
 Thermal correction to Energy=                    0.222257
 Thermal correction to Enthalpy=                  0.223201
 Thermal correction to Gibbs Free Energy=         0.159013
 Sum of electronic and zero-point Energies=          -1288.653868
 Sum of electronic and thermal Energies=             -1288.637509
 Sum of electronic and thermal Enthalpies=           -1288.636565
 Sum of electronic and thermal Free Energies=        -1288.700753

                     E (Thermal)             CV                S
                      KCal/Mol        Cal/Mol-Kelvin    Cal/Mol-Kelvin
 Total                  139.468             61.766            135.095
 Electronic               0.000              0.000              0.000
 Translational            0.889              2.981             42.861
 Rotational               0.889              2.981             34.481
 Vibrational            137.691             55.805             57.753
 Vibration     1          0.593              1.985              6.083
 Vibration     2          0.594              1.983              5.694
 Vibration     3          0.594              1.982              5.443
 Vibration     4          0.595              1.978              4.846
 Vibration     5          0.599              1.966              4.050
 Vibration     6          0.605              1.946              3.382
 Vibration     7          0.613              1.920              2.895
 Vibration     8          0.620              1.896              2.593
 Vibration     9          0.637              1.843              2.157
 Vibration    10          0.645              1.816              1.989
 Vibration    11          0.658              1.778              1.797
 Vibration    12          0.675              1.726              1.586
 Vibration    13          0.684              1.700              1.498
 Vibration    14          0.712              1.618              1.266
 Vibration    15          0.730              1.567              1.148
 Vibration    16          0.740              1.541              1.094
 Vibration    17          0.779              1.436              0.906
 Vibration    18          0.808              1.362              0.797
 Vibration    19          0.827              1.317              0.738
 Vibration    20          0.850              1.262              0.672
 Vibration    21          0.872              1.211              0.616
 Vibration    22          0.916              1.118              0.524
 Vibration    23          0.931              1.086              0.496
 Vibration    24          0.935              1.077              0.488
 Vibration    25          0.952              1.045              0.460

 Optimization completed.
    -- Stationary point found.
 Normal termination of Gaussian 16 at Mon Dec 14 19:08:08 2020.

 ----------------------------------------------------------------------
 # B3LYP/6-311++G(d,p) empiricaldispersion=gd3bj scf=xqc pop=npa geom=c
 heck
 ----------------------------------------------------------------------

 ---------------------------------------
 CID_17359292_JID_10726_Energie_neutraal
 ---------------------------------------
 Structure from the checkpoint file:  "JID_10726.chk"
 Charge =  0 Multiplicity = 1

 SCF Done:  E(RB3LYP) =  -1289.12106675     A.U. after   17 cycles
 Normal termination of Gaussian 16 at Mon Dec 14 19:14:14 2020.

 ----------------------------------------------------------------------
 # B3LYP/6-311++G(d,p) empiricaldispersion=gd3bj scf=xqc pop=npa geom=c
 heck
 ----------------------------------------------------------------------

 -------------------------------------
 CID_17359292_JID_10726_Energie_kation
 -------------------------------------
 Structure from the checkpoint file:  "JID_10726.chk"
 Charge =  1 Multiplicity = 2

 SCF Done:  E(UB3LYP) =  -1288.81845532     A.U. after   27 cycles
 Normal termination of Gaussian 16 at Mon Dec 14 19:28:16 2020.
 Gaussian 16:  ES64L-G16RevA.03 25-Dec-2016

 ----------------------------------------------------------------------
 # B3LYP/6-311++G(d,p) empiricaldispersion=gd3bj scf=xqc pop=npa geom=c
 heck
 ----------------------------------------------------------------------

 ------------------------------------
 CID_17359292_JID_10726_Energie_anion
 ------------------------------------
 Structure from the checkpoint file:  "JID_10726.chk"
 Charge = -1 Multiplicity = 2

                         Standard orientation:
 ---------------------------------------------------------------------
 Center     Atomic      Atomic             Coordinates (Angstroms)
 Number     Number       Type             X           Y           Z
 ---------------------------------------------------------------------
      1          6           0       -3.330627    2.477349    0.052350
      2          6           0       -2.938619    1.021828    0.017628
      3          6           0       -3.834092   -0.064712   -0.000538
      4          6           0       -3.397962   -1.393522   -0.015732
      5          6           0       -2.045050   -1.681328   -0.027128
      6          6           0       -1.121469   -0.624361   -0.008898
      7          6           0       -1.577282    0.698334    0.019266
      8          6           0        0.299581   -0.924966   -0.015709
      9          7           0        0.880329   -2.090434   -0.039373
     10          7           0        2.246903   -1.861308   -0.035975
     11          6           0        2.406453   -0.565058   -0.010381
     12          8           0        1.211394    0.098387    0.003734
     13          6           0        3.627213    0.189532    0.003549
     14          6           0        3.777551    1.559371    0.029115
     15          6           0        5.140919    1.958975    0.036220
     16          6           0        6.001482    0.891625    0.015921
     17         16           0        5.170394   -0.626115   -0.012195
     18          7           0       -5.291205    0.135880   -0.003222
     19          8           0       -6.000908   -0.835881    0.257458
     20          8           0       -5.726998    1.256129   -0.273109
     21          1           0       -3.816623    2.779549   -0.879067
     22          1           0       -4.044949    2.687105    0.852429
     23          1           0       -2.439011    3.092702    0.202847
     24          1           0       -4.139618   -2.181404   -0.018714
     25          1           0       -1.689168   -2.704796   -0.047622
     26          1           0       -0.852937    1.505092    0.043179
     27          1           0        2.936428    2.242137    0.042066
     28          1           0        5.467925    2.991982    0.055446
     29          1           0        7.082971    0.909039    0.015902
 ---------------------------------------------------------------------

 SCF Done:  E(UB3LYP) =  -1289.18483388     A.U. after   24 cycles

 The electronic state is 2-A.
 Alpha  occ. eigenvalues --  -88.79548 -19.09786 -18.99713 -18.99691 -14.38399
 Alpha  occ. eigenvalues --  -14.23438 -14.22474 -10.16552 -10.15461 -10.12797
 Alpha  occ. eigenvalues --  -10.11893 -10.10181 -10.09816 -10.09566 -10.08608
 Alpha  occ. eigenvalues --  -10.07952 -10.06878 -10.06784 -10.06570 -10.06356
 Alpha  occ. eigenvalues --   -7.88156  -5.84453  -5.84079  -5.83754  -1.07650
 Alpha  occ. eigenvalues --   -1.05106  -0.90409  -0.87542  -0.80778  -0.77110
 Alpha  occ. eigenvalues --   -0.74074  -0.68258  -0.66859  -0.65975  -0.64966
 Alpha  occ. eigenvalues --   -0.60373  -0.57290  -0.55755  -0.51814  -0.49822
 Alpha  occ. eigenvalues --   -0.48122  -0.46394  -0.46224  -0.44230  -0.41809
 Alpha  occ. eigenvalues --   -0.40073  -0.39532  -0.39374  -0.37585  -0.35901
 Alpha  occ. eigenvalues --   -0.35276  -0.33561  -0.32819  -0.32354  -0.31513
 Alpha  occ. eigenvalues --   -0.31261  -0.30886  -0.30756  -0.28962  -0.27185
 Alpha  occ. eigenvalues --   -0.26769  -0.26555  -0.24565  -0.24445  -0.22092
 Alpha  occ. eigenvalues --   -0.21564  -0.17929  -0.17900  -0.17612  -0.16857
 Alpha  occ. eigenvalues --   -0.16668  -0.15118  -0.14751  -0.12377  -0.01164
 Alpha virt. eigenvalues --    0.02981   0.05759   0.07485   0.07730   0.08295
 Alpha virt. eigenvalues --    0.09051   0.09681   0.09852   0.10643   0.10853
 Alpha virt. eigenvalues --    0.11283   0.11698   0.12200   0.12496   0.12897

  Beta  occ. eigenvalues --  -88.79527 -19.09628 -18.99403 -18.99369 -14.38081
  Beta  occ. eigenvalues --  -14.23505 -14.22386 -10.16405 -10.15378 -10.12803
  Beta  occ. eigenvalues --  -10.11771 -10.10228 -10.09684 -10.09457 -10.08561
  Beta  occ. eigenvalues --  -10.07777 -10.06842 -10.06780 -10.06502 -10.06360
  Beta  occ. eigenvalues --   -7.88137  -5.84443  -5.84069  -5.83684  -1.07037
  Beta  occ. eigenvalues --   -1.04877  -0.89820  -0.87417  -0.80659  -0.76847
  Beta  occ. eigenvalues --   -0.73844  -0.67913  -0.66597  -0.65822  -0.64843
  Beta  occ. eigenvalues --   -0.60031  -0.56985  -0.55556  -0.51528  -0.49715
  Beta  occ. eigenvalues --   -0.47973  -0.46259  -0.45931  -0.44144  -0.41555
  Beta  occ. eigenvalues --   -0.39787  -0.38873  -0.37891  -0.37086  -0.35750
  Beta  occ. eigenvalues --   -0.34984  -0.33458  -0.32710  -0.32267  -0.31322
  Beta  occ. eigenvalues --   -0.31154  -0.30832  -0.30407  -0.28865  -0.27082
  Beta  occ. eigenvalues --   -0.26653  -0.25899  -0.24502  -0.23941  -0.22059
  Beta  occ. eigenvalues --   -0.20807  -0.17559  -0.17533  -0.16457  -0.16005
  Beta  occ. eigenvalues --   -0.15640  -0.14530  -0.14348  -0.11685
  Beta virt. eigenvalues --    0.03013   0.05010   0.05752   0.07473   0.08278
  Beta virt. eigenvalues --    0.09203   0.09638   0.09683   0.09871   0.10661
  Beta virt. eigenvalues --    0.11278   0.11369   0.11738   0.12216   0.12531

 Mulliken charges and spin densities:
               1          2
     1  C   -0.344839   0.002483
     2  C    1.574710   0.053989
     3  C   -1.627852   0.027185
     4  C   -1.040438   0.078362
     5  C   -0.646757   0.026414
     6  C    0.956239   0.087202
     7  C   -0.285605   0.051363
     8  C   -0.038416   0.043059
     9  N   -0.212281   0.044895
    10  N    0.085087  -0.033558
    11  C   -0.014107   0.092569
    12  O   -0.028506   0.039097
    13  C   -0.506885  -0.013521
    14  C    1.343732   0.091838
    15  C   -1.094832  -0.028695
    16  C    0.304394   0.080534
    17  S   -0.466975   0.028112
    18  N   -0.213856   0.108086
    19  O   -0.097668   0.107752
    20  O   -0.143265   0.123765
    21  H    0.182359   0.002464
    22  H    0.173581   0.002265
    23  H    0.110625   0.000320
    24  H    0.227699  -0.002993
    25  H    0.187082  -0.000200
    26  H    0.092473  -0.002914
    27  H    0.179711  -0.006259
    28  H    0.121336   0.002205
    29  H    0.223255  -0.005818
 Sum of Mulliken charges =  -1.00000   1.00000

 Dipole moment (field-independent basis, Debye):
    X=             10.2047    Y=              3.8400    Z=              0.0847  Tot=             10.9036
 Quadrupole moment (field-independent basis, Debye-Ang):
   XX=           -235.5276   YY=           -137.7949   ZZ=           -129.4476
   XY=             10.6409   XZ=              0.2267   YZ=              1.2559

 Summary of Natural Population Analysis:

                                       Natural Population
                Natural  -----------------------------------------------
    Atom  No    Charge         Core      Valence    Rydberg      Total
 -----------------------------------------------------------------------
      C    1   -0.29111      0.99964     2.28628    0.00520     3.29111
      C    2   -0.00495      0.99950     1.99552    0.00993     3.00495
      C    3    0.04983      0.99938     1.93382    0.01697     2.95017
      C    4   -0.04523      0.99956     2.03972    0.00594     3.04523
      C    5   -0.09365      0.99947     2.08061    0.01357     3.09365
      C    6   -0.02459      0.99937     2.01495    0.01027     3.02459
      C    7   -0.08150      0.99944     2.07306    0.00900     3.08150
      C    8    0.26569      0.99955     1.71668    0.01807     2.73431
      N    9   -0.15060      0.99967     2.63796    0.01296     3.65060
      N   10   -0.17262      0.99968     2.66027    0.01266     3.67262
      C   11    0.25221      0.99951     1.73019    0.01809     2.74779
      O   12   -0.23166      0.99985     3.21931    0.01249     4.23166
      C   13   -0.12981      0.99936     2.11801    0.01244     3.12981
      C   14   -0.08450      0.99940     2.07586    0.00924     3.08450
      C   15   -0.14732      0.99957     2.13709    0.01065     3.14732
      C   16   -0.17566      0.99956     2.16422    0.01188     3.17566
      S   17    0.23432      4.99943     2.74589    0.02036     7.76568
      N   18    0.27189      0.99972     2.20047    0.02792     3.22811
      O   19   -0.19922      0.99990     3.19026    0.00907     4.19922
      O   20   -0.18948      0.99990     3.18136    0.00823     4.18948
      H   21    0.11164      0.00000     0.38719    0.00117     0.38836
      H   22    0.11020      0.00000     0.38854    0.00126     0.38980
      H   23    0.09073      0.00000     0.40814    0.00113     0.40927
      H   24    0.10991      0.00000     0.38828    0.00181     0.39009
      H   25    0.10711      0.00000     0.39099    0.00190     0.39289
      H   26    0.10032      0.00000     0.39849    0.00119     0.39968
      H   27    0.10983      0.00000     0.38894    0.00123     0.39017
      H   28    0.10363      0.00000     0.39522    0.00115     0.39637
      H   29    0.10475      0.00000     0.39415    0.00109     0.39525
 =======================================================================
   * Total *    0.00018     23.99148    49.74147    0.26688    73.99982

 Normal termination of Gaussian 16 at Mon Dec 14 19:40:43 2020.
