 Gaussian 16, Revision A.03,

 -----------------------------------------------------------
 # opt freq B3LYP/6-31G(d) empiricaldispersion=gd3bj scf=xqc
 -----------------------------------------------------------

 -------------------------------
 CID_150419180_JID_2397_neutraal
 -------------------------------
 Symbolic Z-matrix:
 Charge =  0 Multiplicity = 1

 SCF Done:  E(RB3LYP) =  -620.071981662     A.U. after   16 cycles
 SCF Done:  E(RB3LYP) =  -620.079089814     A.U. after   15 cycles
 SCF Done:  E(RB3LYP) =  -620.080671944     A.U. after   14 cycles
 SCF Done:  E(RB3LYP) =  -620.081690902     A.U. after   13 cycles
 SCF Done:  E(RB3LYP) =  -620.081219251     A.U. after   15 cycles
 SCF Done:  E(RB3LYP) =  -620.082716855     A.U. after   14 cycles
 SCF Done:  E(RB3LYP) =  -620.083209272     A.U. after   15 cycles
 SCF Done:  E(RB3LYP) =  -620.084538848     A.U. after   14 cycles
 SCF Done:  E(RB3LYP) =  -620.086189533     A.U. after   16 cycles
 SCF Done:  E(RB3LYP) =  -620.086887375     A.U. after   14 cycles
 SCF Done:  E(RB3LYP) =  -620.088921137     A.U. after   10 cycles
 SCF Done:  E(RB3LYP) =  -620.088923176     A.U. after    9 cycles
 SCF Done:  E(RB3LYP) =  -620.088924154     A.U. after    8 cycles
 SCF Done:  E(RB3LYP) =  -620.088924809     A.U. after    8 cycles
 SCF Done:  E(RB3LYP) =  -620.088925073     A.U. after    8 cycles
 SCF Done:  E(RB3LYP) =  -620.088925138     A.U. after    8 cycles
 Optimization completed.
    -- Stationary point found.
 Normal termination of Gaussian 16 at Wed Dec  9 17:27:05 2020.

 --------------------------------------------------------------------
 #N Geom=AllCheck Guess=TCheck SCRF=Check GenChk RB3LYP/6-31G(d) Freq
 --------------------------------------------------------------------

 Structure from the checkpoint file:  "JID_2397.chk"
 -------------------------------
 CID_150419180_JID_2397_neutraal
 -------------------------------
 Charge =  0 Multiplicity = 1

 SCF Done:  E(RB3LYP) =  -620.088925138     A.U. after    1 cycles

  Exact polarizability:  97.112  -9.959 101.254   2.865  -8.138  70.159
 Approx polarizability: 128.985 -28.491 171.918  15.430 -31.772 129.760

                      1                      2                      3
                      A                      A                      A
 Frequencies --     26.1273                45.5671                77.3418
 Red. masses --      5.1620                 5.0914                 5.7179
 Frc consts  --      0.0021                 0.0062                 0.0202
 IR Inten    --      1.1216                 1.5485                 0.6170

                      4                      5                      6
                      A                      A                      A
 Frequencies --     83.8871                94.3470               142.7454
 Red. masses --      3.5481                 2.0951                 5.8411
 Frc consts  --      0.0147                 0.0110                 0.0701
 IR Inten    --      1.7006                 8.7711                 4.3139

                      7                      8                      9
                      A                      A                      A
 Frequencies --    170.1330               213.0143               228.5786
 Red. masses --      3.4003                 4.9413                 1.6018
 Frc consts  --      0.0580                 0.1321                 0.0493
 IR Inten    --      4.8526                 0.8594                50.2671

                     10                     11                     12
                      A                      A                      A
 Frequencies --    238.2706               258.8567               317.4148
 Red. masses --      2.9297                 1.3029                 6.6883
 Frc consts  --      0.0980                 0.0514                 0.3970
 IR Inten    --      8.1231                26.3600                27.0955

                     13                     14                     15
                      A                      A                      A
 Frequencies --    333.9504               414.4489               466.7231
 Red. masses --      6.4656                 4.0474                 3.4807
 Frc consts  --      0.4248                 0.4096                 0.4467
 IR Inten    --     25.7541                 5.6545                 1.1827

                     16                     17                     18
                      A                      A                      A
 Frequencies --    478.0100               545.5378               565.5692
 Red. masses --      4.6311                 5.2827                 4.1501
 Frc consts  --      0.6235                 0.9263                 0.7821
 IR Inten    --      0.7638                 4.5878                13.9618

                     19                     20                     21
                      A                      A                      A
 Frequencies --    571.4825               686.6905               746.5890
 Red. masses --     10.5529                 3.8475                 4.1796
 Frc consts  --      2.0306                 1.0689                 1.3726
 IR Inten    --     27.5050                 7.1856                 5.4282

                     22                     23                     24
                      A                      A                      A
 Frequencies --    777.8397               839.1101               862.3221
 Red. masses --      3.3738                 2.8935                 1.5164
 Frc consts  --      1.2027                 1.2004                 0.6644
 IR Inten    --      6.5699                19.6470               110.7955

                     25                     26                     27
                      A                      A                      A
 Frequencies --    916.0094               945.3031               952.5854
 Red. masses --      2.3882                 2.2633                 1.7979
 Frc consts  --      1.1807                 1.1916                 0.9612
 IR Inten    --     54.8947                12.0319               265.3692

                     28                     29                     30
                      A                      A                      A
 Frequencies --   1006.9459              1081.8094              1096.6730
 Red. masses --      2.9857                 3.3035                 5.1158
 Frc consts  --      1.7837                 2.2779                 3.6251
 IR Inten    --     12.5889                21.4509                76.3490

                     31                     32                     33
                      A                      A                      A
 Frequencies --   1143.8655              1167.6692              1168.9131
 Red. masses --      1.3284                 1.6968                 2.5387
 Frc consts  --      1.0241                 1.3631                 2.0437
 IR Inten    --      6.0426                17.0852                24.2246

                     34                     35                     36
                      A                      A                      A
 Frequencies --   1195.0414              1268.8416              1316.2115
 Red. masses --      1.3654                 1.6192                 2.8304
 Frc consts  --      1.1489                 1.5359                 2.8890
 IR Inten    --     11.3660                68.8466                59.1207

                     37                     38                     39
                      A                      A                      A
 Frequencies --   1342.1048              1366.2191              1381.9669
 Red. masses --      1.3480                 1.7735                 1.4239
 Frc consts  --      1.4306                 1.9504                 1.6022
 IR Inten    --      8.0131                75.6960                 3.5145

                     40                     41                     42
                      A                      A                      A
 Frequencies --   1407.3349              1413.7150              1473.1962
 Red. masses --      1.1953                 1.3854                 1.0936
 Frc consts  --      1.3948                 1.6314                 1.3984
 IR Inten    --      1.6674                 6.5581                14.5839

                     43                     44                     45
                      A                      A                      A
 Frequencies --   1488.4370              1702.7121              1713.5030
 Red. masses --      1.0820                 1.0882                 1.0842
 Frc consts  --      1.4123                 1.8589                 1.8756
 IR Inten    --     16.5938                28.2968                17.9935

                     46                     47                     48
                      A                      A                      A
 Frequencies --   1794.7354              1828.6932              2262.6317
 Red. masses --     11.3744                11.7866                13.9032
 Frc consts  --     21.5864                23.2232                41.9364
 IR Inten    --    151.3355                73.4123               425.0017

                     49                     50                     51
                      A                      A                      A
 Frequencies --   3032.0544              3047.6795              3087.7983
 Red. masses --      1.0647                 1.0632                 1.0991
 Frc consts  --      5.7670                 5.8182                 6.1742
 IR Inten    --     41.2364                10.8713                 6.2755

                     52                     53                     54
                      A                      A                      A
 Frequencies --   3096.3828              3104.2031              3471.4753
 Red. masses --      1.0825                 1.0971                 1.0504
 Frc consts  --      6.1150                 6.2289                 7.4583
 IR Inten    --     11.1787                 4.7759                 0.1990

                     55                     56                     57
                      A                      A                      A
 Frequencies --   3498.6206              3548.5753              3586.2710
 Red. masses --      1.0503                 1.0910                 1.0936
 Frc consts  --      7.5746                 8.0946                 8.2870
 IR Inten    --      0.4194                 0.5698                 3.1933

 - Thermochemistry -
 -------------------
 Temperature   298.150 Kelvin.  Pressure   1.00000 Atm.
 Atom     1 has atomic number  6 and mass  12.00000

 Molecular mass:   171.07562 amu.
 Principal axes and moments of inertia in atomic units:
                           1         2         3
     Eigenvalues --  1705.457652199.737773390.46720
           X            0.99993   0.01022   0.00568
           Y           -0.01022   0.99995  -0.00004
           Z           -0.00568  -0.00002   0.99998
 This molecule is an asymmetric top.
 Rotational symmetry number  1.
 Warning -- assumption of classical behavior for rotation
           may cause significant error
 Rotational temperatures (Kelvin)      0.05079     0.03937     0.02555
 Rotational constants (GHZ):           1.05822     0.82043     0.53230
 Zero-point vibrational energy     425229.0 (Joules/Mol)
                                  101.63217 (Kcal/Mol)
 Warning -- explicit consideration of  19 degrees of freedom as
           vibrations may cause significant error
 Vibrational temperatures:     37.59    65.56   111.28   120.69   135.74
          (Kelvin)            205.38   244.78   306.48   328.87   342.82
                              372.44   456.69   480.48   596.30   671.51
                              687.75   784.91   813.73   822.24   987.99
                             1074.18  1119.14  1207.29  1240.69  1317.93
                             1360.08  1370.56  1448.77  1556.48  1577.87
                             1645.77  1680.02  1681.81  1719.40  1825.58
                             1893.73  1930.99  1965.68  1988.34  2024.84
                             2034.02  2119.60  2141.53  2449.82  2465.35
                             2582.22  2631.08  3255.42  4362.45  4384.93
                             4442.65  4455.00  4466.26  4994.68  5033.73
                             5105.61  5159.84

 Zero-point correction=                           0.161961 (Hartree/Particle)
 Thermal correction to Energy=                    0.175042
 Thermal correction to Enthalpy=                  0.175986
 Thermal correction to Gibbs Free Energy=         0.120930
 Sum of electronic and zero-point Energies=           -619.926964
 Sum of electronic and thermal Energies=              -619.913883
 Sum of electronic and thermal Enthalpies=            -619.912939
 Sum of electronic and thermal Free Energies=         -619.967995

                     E (Thermal)             CV                S
                      KCal/Mol        Cal/Mol-Kelvin    Cal/Mol-Kelvin
 Total                  109.840             45.186            115.876
 Electronic               0.000              0.000              0.000
 Translational            0.889              2.981             41.319
 Rotational               0.889              2.981             30.920
 Vibrational            108.063             39.224             43.637
 Vibration     1          0.593              1.985              6.104
 Vibration     2          0.595              1.979              5.001
 Vibration     3          0.599              1.964              3.957
 Vibration     4          0.601              1.960              3.798
 Vibration     5          0.603              1.953              3.568
 Vibration     6          0.616              1.910              2.767
 Vibration     7          0.625              1.879              2.434
 Vibration     8          0.644              1.821              2.018
 Vibration     9          0.651              1.797              1.890
 Vibration    10          0.656              1.782              1.816
 Vibration    11          0.668              1.748              1.669
 Vibration    12          0.704              1.640              1.323
 Vibration    13          0.715              1.608              1.241
 Vibration    14          0.778              1.439              0.911
 Vibration    15          0.824              1.324              0.747
 Vibration    16          0.835              1.299              0.715
 Vibration    17          0.901              1.149              0.553
 Vibration    18          0.921              1.106              0.513
 Vibration    19          0.928              1.093              0.501

 Optimization completed.
    -- Stationary point found.
 Normal termination of Gaussian 16 at Wed Dec  9 17:31:41 2020.

 ----------------------------------------------------------------------
 # B3LYP/6-311++G(d,p) empiricaldispersion=gd3bj scf=xqc pop=npa geom=c
 heck
 ----------------------------------------------------------------------

 ---------------------------------------
 CID_150419180_JID_2397_Energie_neutraal
 ---------------------------------------
 Structure from the checkpoint file:  "JID_2397.chk"
 Charge =  0 Multiplicity = 1

 SCF Done:  E(RB3LYP) =  -620.285323925     A.U. after   16 cycles
 Normal termination of Gaussian 16 at Wed Dec  9 17:34:07 2020.

 ----------------------------------------------------------------------
 # B3LYP/6-311++G(d,p) empiricaldispersion=gd3bj scf=xqc pop=npa geom=c
 heck
 ----------------------------------------------------------------------

 -------------------------------------
 CID_150419180_JID_2397_Energie_kation
 -------------------------------------
 Structure from the checkpoint file:  "JID_2397.chk"
 Charge =  1 Multiplicity = 2

 SCF Done:  E(UB3LYP) =  -619.965577006     A.U. after   27 cycles
 Normal termination of Gaussian 16 at Wed Dec  9 17:40:22 2020.
 Gaussian 16:  ES64L-G16RevA.03 25-Dec-2016

 ----------------------------------------------------------------------
 # B3LYP/6-311++G(d,p) empiricaldispersion=gd3bj scf=xqc pop=npa geom=c
 heck
 ----------------------------------------------------------------------

 ------------------------------------
 CID_150419180_JID_2397_Energie_anion
 ------------------------------------
 Structure from the checkpoint file:  "JID_2397.chk"
 Charge = -1 Multiplicity = 2

                         Standard orientation:
 ---------------------------------------------------------------------
 Center     Atomic      Atomic             Coordinates (Angstroms)
 Number     Number       Type             X           Y           Z
 ---------------------------------------------------------------------
      1          6           0       -2.180229   -0.743613    0.206988
      2          6           0       -0.673040   -0.938493    0.029225
      3          8           0       -0.220841   -1.916683   -0.534046
      4          6           0        0.270125    0.135848    0.621904
      5          6           0        1.404274    0.450072   -0.374236
      6          8           0        1.378239    1.459049   -1.044464
      7          6           0        2.507764   -0.593650   -0.486979
      8          7           0        2.878008   -1.130280    0.822835
      9          7           0       -0.411333    1.329627    1.114627
     10          7           0       -0.889586    2.104147    0.268928
     11          7           0       -1.424012    2.897316   -0.350821
     12          7           0       -2.994430   -1.858814   -0.237695
     13          1           0       -2.479327    0.163252   -0.336557
     14          1           0       -2.379013   -0.523817    1.263512
     15          1           0        0.737494   -0.335843    1.492605
     16          1           0        2.074411   -1.409449   -1.076751
     17          1           0        3.324410   -0.141901   -1.067439
     18          1           0        3.290890   -2.053124    0.724388
     19          1           0        3.575159   -0.537150    1.266754
     20          1           0       -2.774894   -2.058239   -1.212852
     21          1           0       -2.712207   -2.697612    0.267889
 ---------------------------------------------------------------------

 SCF Done:  E(UB3LYP) =  -620.287557344     A.U. after   31 cycles

 The electronic state is 2-A.
 Alpha  occ. eigenvalues --  -18.98749 -18.96305 -14.33837 -14.23794 -14.22438
 Alpha  occ. eigenvalues --  -14.19561 -14.17856 -10.12882 -10.10213 -10.09134
 Alpha  occ. eigenvalues --  -10.09012 -10.06876  -1.00186  -0.92605  -0.90398
 Alpha  occ. eigenvalues --   -0.84251  -0.78443  -0.76623  -0.65136  -0.58837
 Alpha  occ. eigenvalues --   -0.56276  -0.45620  -0.44043  -0.40342  -0.39153
 Alpha  occ. eigenvalues --   -0.38658  -0.37929  -0.36193  -0.34390  -0.33554
 Alpha  occ. eigenvalues --   -0.32942  -0.31198  -0.30191  -0.29803  -0.29173
 Alpha  occ. eigenvalues --   -0.27841  -0.25953  -0.23607  -0.22833  -0.18588
 Alpha  occ. eigenvalues --   -0.16266  -0.14693  -0.14269  -0.11854  -0.10060
 Alpha  occ. eigenvalues --    0.04965
 Alpha virt. eigenvalues --    0.07072   0.08415   0.09116   0.09950   0.10577
 Alpha virt. eigenvalues --    0.11037   0.11218   0.11799   0.13185   0.13912
 Alpha virt. eigenvalues --    0.14621   0.15133   0.15964   0.17025   0.17720

  Beta  occ. eigenvalues --  -18.98566 -18.95953 -14.33682 -14.23593 -14.22462
  Beta  occ. eigenvalues --  -14.19561 -14.17787 -10.12686 -10.09920 -10.09143
  Beta  occ. eigenvalues --  -10.09026 -10.06897  -0.99886  -0.92250  -0.89762
  Beta  occ. eigenvalues --   -0.84090  -0.78427  -0.76456  -0.64811  -0.58619
  Beta  occ. eigenvalues --   -0.56089  -0.45323  -0.43588  -0.40153  -0.38886
  Beta  occ. eigenvalues --   -0.38232  -0.37738  -0.35786  -0.34157  -0.33424
  Beta  occ. eigenvalues --   -0.32542  -0.30734  -0.29968  -0.29409  -0.28871
  Beta  occ. eigenvalues --   -0.27583  -0.25567  -0.22797  -0.21351  -0.18256
  Beta  occ. eigenvalues --   -0.16143  -0.14576  -0.14095  -0.11663  -0.09805
  Beta virt. eigenvalues --    0.07930   0.08483   0.09258   0.10450   0.11020
  Beta virt. eigenvalues --    0.11427   0.11470   0.11640   0.12390   0.13368
  Beta virt. eigenvalues --    0.14217   0.14643   0.15350   0.16021   0.17068

 Mulliken charges and spin densities:
               1          2
     1  C   -0.581414  -0.057765
     2  C    0.074884   0.141420
     3  O   -0.271636   0.055295
     4  C   -0.021282  -0.030579
     5  C   -0.289012   0.443197
     6  O   -0.331653   0.115684
     7  C    0.294302  -0.905699
     8  N   -0.322725  -0.011749
     9  N   -0.349985  -0.028518
    10  N    0.581171   0.067352
    11  N   -0.346271   0.111609
    12  N   -0.352844   0.000957
    13  H    0.191755   0.001038
    14  H    0.127031   0.057258
    15  H    0.317257   0.014842
    16  H   -0.047645   0.278099
    17  H    0.106742   0.036246
    18  H   -0.191479   0.433147
    19  H   -0.064019   0.277228
    20  H    0.240930   0.001727
    21  H    0.235893  -0.000789
 Sum of Mulliken charges =  -1.00000   1.00000

 Dipole moment (field-independent basis, Debye):
    X=             -2.8966    Y=             -1.2235    Z=              0.8930  Tot=              3.2687
 Quadrupole moment (field-independent basis, Debye-Ang):
   XX=           -111.1985   YY=           -104.9552   ZZ=            -84.9998
   XY=              9.7953   XZ=             -0.8760   YZ=              3.3694

 Summary of Natural Population Analysis:

                                       Natural Population
                Natural  -----------------------------------------------
    Atom  No    Charge         Core      Valence    Rydberg      Total
 -----------------------------------------------------------------------
      C    1   -0.14384      0.99960     2.13161    0.01262     3.14384
      C    2    0.30524      0.99966     1.67138    0.02372     2.69476
      O    3   -0.28433      0.99987     3.27730    0.00715     4.28433
      C    4   -0.10864      0.99947     2.09418    0.01499     3.10864
      C    5    0.32199      0.99966     1.65388    0.02447     2.67801
      O    6   -0.25814      0.99987     3.25185    0.00642     4.25814
      C    7   -0.14172      0.99958     2.12919    0.01295     3.14172
      N    8   -0.42271      0.99977     2.91174    0.01120     3.92271
      N    9   -0.19746      0.99970     2.68429    0.01347     3.69746
      N   10    0.12943      0.99970     2.35331    0.01755     3.37057
      N   11   -0.03186      0.99981     2.51944    0.01260     3.53186
      N   12   -0.41521      0.99978     2.90676    0.00867     3.91521
      H   13    0.10515      0.00000     0.39327    0.00157     0.39485
      H   14    0.10360      0.00000     0.39477    0.00163     0.39640
      H   15    0.13396      0.00000     0.36469    0.00136     0.36604
      H   16    0.11706      0.00000     0.38111    0.00183     0.38294
      H   17    0.08723      0.00000     0.41103    0.00173     0.41277
      H   18    0.17942      0.00000     0.31648    0.00410     0.32058
      H   19    0.17279      0.00000     0.32547    0.00174     0.32721
      H   20    0.17537      0.00000     0.32313    0.00150     0.32463
      H   21    0.17264      0.00000     0.32589    0.00147     0.32736
 =======================================================================
   * Total *   -0.00000     11.99648    32.82077    0.18275    45.00000

 Normal termination of Gaussian 16 at Wed Dec  9 17:48:58 2020.
