 Gaussian 16, Revision A.03,

 -----------------------------------------------------------
 # opt freq B3LYP/6-31G(d) empiricaldispersion=gd3bj scf=xqc
 -----------------------------------------------------------

 -----------------------------
 CID_88285020_JID_247_neutraal
 -----------------------------
 Symbolic Z-matrix:
 Charge =  0 Multiplicity = 1

 SCF Done:  E(RB3LYP) =  -515.630633201     A.U. after   14 cycles
 SCF Done:  E(RB3LYP) =  -515.637103162     A.U. after   13 cycles
 SCF Done:  E(RB3LYP) =  -515.637855003     A.U. after   12 cycles
 SCF Done:  E(RB3LYP) =  -515.637966462     A.U. after   12 cycles
 SCF Done:  E(RB3LYP) =  -515.638120356     A.U. after   11 cycles
 SCF Done:  E(RB3LYP) =  -515.638147064     A.U. after   10 cycles
 SCF Done:  E(RB3LYP) =  -515.638156943     A.U. after   10 cycles
 SCF Done:  E(RB3LYP) =  -515.638160962     A.U. after   10 cycles
 SCF Done:  E(RB3LYP) =  -515.638164950     A.U. after   10 cycles
 SCF Done:  E(RB3LYP) =  -515.638175706     A.U. after   11 cycles
 SCF Done:  E(RB3LYP) =  -515.638750907     A.U. after   11 cycles
 SCF Done:  E(RB3LYP) =  -515.638757230     A.U. after   11 cycles
 SCF Done:  E(RB3LYP) =  -515.638779844     A.U. after   10 cycles
 SCF Done:  E(RB3LYP) =  -515.638783158     A.U. after    9 cycles
 SCF Done:  E(RB3LYP) =  -515.638783592     A.U. after    8 cycles
 SCF Done:  E(RB3LYP) =  -515.638783634     A.U. after    7 cycles
 Optimization completed.
    -- Stationary point found.
 Normal termination of Gaussian 16 at Tue Dec  8 10:27:54 2020.

 --------------------------------------------------------------------
 #N Geom=AllCheck Guess=TCheck SCRF=Check GenChk RB3LYP/6-31G(d) Freq
 --------------------------------------------------------------------

 Structure from the checkpoint file:  "JID_247.chk"
 -----------------------------
 CID_88285020_JID_247_neutraal
 -----------------------------
 Charge =  0 Multiplicity = 1

 SCF Done:  E(RB3LYP) =  -515.638783634     A.U. after    1 cycles

  Exact polarizability:  78.772   1.244  73.330  -3.250   0.437  74.652
 Approx polarizability:  96.864   0.426  99.580  -7.598  -4.606 119.563

                      1                      2                      3
                      A                      A                      A
 Frequencies --     57.1669                80.4762                97.5951
 Red. masses --      3.0007                 1.7345                 2.1093
 Frc consts  --      0.0058                 0.0066                 0.0118
 IR Inten    --      1.5992                 1.9612                 2.8746

                      4                      5                      6
                      A                      A                      A
 Frequencies --    102.8625               124.4902               150.6422
 Red. masses --      1.7032                 5.7893                 5.5357
 Frc consts  --      0.0106                 0.0529                 0.0740
 IR Inten    --      3.4574                 5.0550                 6.2825

                      7                      8                      9
                      A                      A                      A
 Frequencies --    161.4879               176.8991               193.1269
 Red. masses --      1.3256                 1.5214                 1.6152
 Frc consts  --      0.0204                 0.0281                 0.0355
 IR Inten    --      0.5564                 0.8045                 3.7077

                     10                     11                     12
                      A                      A                      A
 Frequencies --    259.4056               285.7684               313.4338
 Red. masses --      3.2312                 4.3141                 3.5329
 Frc consts  --      0.1281                 0.2076                 0.2045
 IR Inten    --      7.6376                20.1294                 0.1753

                     13                     14                     15
                      A                      A                      A
 Frequencies --    367.6003               433.3338               471.0543
 Red. masses --      3.6094                 4.8778                 3.2560
 Frc consts  --      0.2874                 0.5397                 0.4257
 IR Inten    --      1.8705                 0.3887                 5.0169

                     16                     17                     18
                      A                      A                      A
 Frequencies --    490.7630               627.3275               655.0509
 Red. masses --      4.7011                 6.6567                 6.1418
 Frc consts  --      0.6671                 1.5435                 1.5527
 IR Inten    --      1.1830                 2.2567                 3.8044

                     19                     20                     21
                      A                      A                      A
 Frequencies --    692.2882               902.3714               967.9355
 Red. masses --      4.9815                 2.4731                 4.4360
 Frc consts  --      1.4067                 1.1865                 2.4487
 IR Inten    --     16.2467                15.6611                40.9139

                     22                     23                     24
                      A                      A                      A
 Frequencies --   1029.1795              1078.3322              1111.2172
 Red. masses --      5.5520                 5.2576                 5.2347
 Frc consts  --      3.4648                 3.6020                 3.8084
 IR Inten    --     64.6721                40.2534               165.6344

                     25                     26                     27
                      A                      A                      A
 Frequencies --   1138.9306              1178.2503              1190.2655
 Red. masses --      2.7318                 3.5024                 1.2928
 Frc consts  --      2.0878                 2.8648                 1.0791
 IR Inten    --    164.9316               113.8471                 1.3101

                     28                     29                     30
                      A                      A                      A
 Frequencies --   1191.4439              1194.1001              1208.1217
 Red. masses --      1.3234                 1.3691                 2.1160
 Frc consts  --      1.1068                 1.1502                 1.8196
 IR Inten    --      9.2958                19.6465                63.8730

                     31                     32                     33
                      A                      A                      A
 Frequencies --   1229.9168              1243.3865              1254.7465
 Red. masses --      1.7150                 1.8202                 2.2416
 Frc consts  --      1.5285                 1.6580                 2.0793
 IR Inten    --     23.2634                 9.8598                73.7860

                     34                     35                     36
                      A                      A                      A
 Frequencies --   1340.5202              1415.8557              1494.6359
 Red. masses --      1.2525                 1.2864                 1.1527
 Frc consts  --      1.3261                 1.5194                 1.5172
 IR Inten    --     39.1744                 9.3036                 0.5607

                     37                     38                     39
                      A                      A                      A
 Frequencies --   1496.0625              1503.4870              1513.7385
 Red. masses --      1.1016                 1.1348                 1.0931
 Frc consts  --      1.4527                 1.5114                 1.4757
 IR Inten    --      2.2179                 1.0191                 4.1751

                     40                     41                     42
                      A                      A                      A
 Frequencies --   1518.2102              1522.2816              1525.2496
 Red. masses --      1.0517                 1.0481                 1.0776
 Frc consts  --      1.4282                 1.4310                 1.4771
 IR Inten    --      3.4862                 7.2089                 1.1771

                     43                     44                     45
                      A                      A                      A
 Frequencies --   1538.1582              1538.2109              1539.5765
 Red. masses --      1.0577                 1.0562                 1.0501
 Frc consts  --      1.4743                 1.4724                 1.4664
 IR Inten    --     14.7786                 0.6783                11.6077

                     46                     47                     48
                      A                      A                      A
 Frequencies --   2354.6615              3011.3002              3034.3845
 Red. masses --     12.7236                 1.0424                 1.0378
 Frc consts  --     41.5639                 5.5694                 5.6301
 IR Inten    --      0.7124                59.1032                21.7170

                     49                     50                     51
                      A                      A                      A
 Frequencies --   3048.3813              3049.7717              3083.6587
 Red. masses --      1.0432                 1.0517                 1.0965
 Frc consts  --      5.7118                 5.7633                 6.1433
 IR Inten    --     59.1245                21.3149                32.9142

                     52                     53                     54
                      A                      A                      A
 Frequencies --   3097.9629              3114.5687              3126.2728
 Red. masses --      1.1040                 1.1045                 1.0998
 Frc consts  --      6.2428                 6.3125                 6.3332
 IR Inten    --     37.0993                18.4639                27.7675

                     55                     56                     57
                      A                      A                      A
 Frequencies --   3150.9170              3160.5150              3172.6309
 Red. masses --      1.1000                 1.1011                 1.1045
 Frc consts  --      6.4346                 6.4801                 6.5504
 IR Inten    --     26.3157                19.3336                17.9872

 - Thermochemistry -
 -------------------
 Temperature   298.150 Kelvin.  Pressure   1.00000 Atm.
 Atom     1 has atomic number  6 and mass  12.00000

 Molecular mass:   145.07389 amu.
 Principal axes and moments of inertia in atomic units:
                           1         2         3
     Eigenvalues --  1126.850791735.165771878.70006
           X            0.99950   0.03123   0.00447
           Y           -0.03152   0.99473   0.09751
           Z           -0.00140  -0.09761   0.99522
 This molecule is an asymmetric top.
 Rotational symmetry number  1.
 Warning -- assumption of classical behavior for rotation
           may cause significant error
 Rotational temperatures (Kelvin)      0.07686     0.04992     0.04610
 Rotational constants (GHZ):           1.60158     1.04010     0.96063
 Zero-point vibrational energy     454640.7 (Joules/Mol)
                                  108.66173 (Kcal/Mol)
 Warning -- explicit consideration of  16 degrees of freedom as
           vibrations may cause significant error
 Vibrational temperatures:     82.25   115.79   140.42   148.00   179.11
          (Kelvin)            216.74   232.35   254.52   277.87   373.23
                              411.16   450.96   528.89   623.47   677.74
                              706.10   902.58   942.47   996.05  1298.31
                             1392.64  1480.76  1551.48  1598.79  1638.67
                             1695.24  1712.53  1714.22  1718.04  1738.22
                             1769.58  1788.96  1805.30  1928.71  2037.10
                             2150.45  2152.50  2163.18  2177.93  2184.37
                             2190.22  2194.49  2213.07  2213.14  2215.11
                             3387.83  4332.59  4365.80  4385.94  4387.94
                             4436.70  4457.28  4481.17  4498.01  4533.47
                             4547.28  4564.71

 Zero-point correction=                           0.173163 (Hartree/Particle)
 Thermal correction to Energy=                    0.185379
 Thermal correction to Enthalpy=                  0.186323
 Thermal correction to Gibbs Free Energy=         0.134746
 Sum of electronic and zero-point Energies=           -515.465620
 Sum of electronic and thermal Energies=              -515.453404
 Sum of electronic and thermal Enthalpies=            -515.452460
 Sum of electronic and thermal Free Energies=         -515.504037

                     E (Thermal)             CV                S
                      KCal/Mol        Cal/Mol-Kelvin    Cal/Mol-Kelvin
 Total                  116.327             41.186            108.553
 Electronic               0.000              0.000              0.000
 Translational            0.889              2.981             40.827
 Rotational               0.889              2.981             29.686
 Vibrational            114.550             35.224             38.040
 Vibration     1          0.596              1.975              4.553
 Vibration     2          0.600              1.962              3.879
 Vibration     3          0.603              1.951              3.502
 Vibration     4          0.605              1.947              3.399
 Vibration     5          0.610              1.929              3.029
 Vibration     6          0.618              1.902              2.664
 Vibration     7          0.622              1.890              2.532
 Vibration     8          0.628              1.871              2.361
 Vibration     9          0.635              1.849              2.198
 Vibration    10          0.668              1.747              1.666
 Vibration    11          0.684              1.700              1.499
 Vibration    12          0.701              1.648              1.344
 Vibration    13          0.740              1.539              1.090
 Vibration    14          0.794              1.398              0.848
 Vibration    15          0.828              1.314              0.735
 Vibration    16          0.847              1.271              0.682

 Optimization completed.
    -- Stationary point found.
 Normal termination of Gaussian 16 at Tue Dec  8 10:31:43 2020.

 ----------------------------------------------------------------------
 # B3LYP/6-311++G(d,p) empiricaldispersion=gd3bj scf=xqc pop=npa geom=c
 heck
 ----------------------------------------------------------------------

 -------------------------------------
 CID_88285020_JID_247_Energie_neutraal
 -------------------------------------
 Structure from the checkpoint file:  "JID_247.chk"
 Charge =  0 Multiplicity = 1

 SCF Done:  E(RB3LYP) =  -515.793988386     A.U. after   13 cycles
 Normal termination of Gaussian 16 at Tue Dec  8 10:33:08 2020.

 ----------------------------------------------------------------------
 # B3LYP/6-311++G(d,p) empiricaldispersion=gd3bj scf=xqc pop=npa geom=c
 heck
 ----------------------------------------------------------------------

 -----------------------------------
 CID_88285020_JID_247_Energie_kation
 -----------------------------------
 Structure from the checkpoint file:  "JID_247.chk"
 Charge =  1 Multiplicity = 2

 SCF Done:  E(UB3LYP) =  -515.445934111     A.U. after   23 cycles
 Normal termination of Gaussian 16 at Tue Dec  8 10:37:34 2020.
 Gaussian 16:  ES64L-G16RevA.03 25-Dec-2016

 ----------------------------------------------------------------------
 # B3LYP/6-311++G(d,p) empiricaldispersion=gd3bj scf=xqc pop=npa geom=c
 heck
 ----------------------------------------------------------------------

 ----------------------------------
 CID_88285020_JID_247_Energie_anion
 ----------------------------------
 Structure from the checkpoint file:  "JID_247.chk"
 Charge = -1 Multiplicity = 2

                         Standard orientation:
 ---------------------------------------------------------------------
 Center     Atomic      Atomic             Coordinates (Angstroms)
 Number     Number       Type             X           Y           Z
 ---------------------------------------------------------------------
      1          6           0       -2.967929   -0.040311    0.185635
      2          8           0       -1.984934    0.662206   -0.560981
      3          6           0       -0.937833   -0.137440   -1.052294
      4          6           0        0.373056    0.061789   -0.264784
      5          6           0        0.138529   -0.112858    1.208272
      6          7           0       -0.032034   -0.263197    2.345972
      7          8           0        1.367093   -0.839116   -0.717729
      8          6           0        1.309079   -2.182409   -0.247960
      9          8           0        0.801939    1.351189   -0.537269
     10          6           0        2.006072    1.757727    0.118062
     11          1           0       -3.712589    0.699315    0.487904
     12          1           0       -2.549020   -0.509288    1.084566
     13          1           0       -3.458140   -0.811180   -0.428154
     14          1           0       -1.202717   -1.202455   -1.050455
     15          1           0       -0.708508    0.166337   -2.078824
     16          1           0        1.428963   -2.235117    0.840772
     17          1           0        0.370944   -2.679341   -0.527124
     18          1           0        2.140277   -2.698958   -0.730926
     19          1           0        1.881718    1.750299    1.208252
     20          1           0        2.842342    1.111379   -0.162555
     21          1           0        2.192326    2.778163   -0.219010
 ---------------------------------------------------------------------

 SCF Done:  E(UB3LYP) =  -515.777612099     A.U. after   30 cycles

 The electronic state is 2-A.
 Alpha  occ. eigenvalues --  -19.05534 -19.04961 -19.03493 -14.23153 -10.22555
 Alpha  occ. eigenvalues --  -10.13140 -10.12367 -10.12311 -10.11461 -10.11305
 Alpha  occ. eigenvalues --   -1.00442  -0.94722  -0.93426  -0.82292  -0.69282
 Alpha  occ. eigenvalues --   -0.62135  -0.59867  -0.57557  -0.54581  -0.45473
 Alpha  occ. eigenvalues --   -0.43709  -0.41785  -0.38659  -0.38036  -0.35734
 Alpha  occ. eigenvalues --   -0.35019  -0.34286  -0.33512  -0.30996  -0.29234
 Alpha  occ. eigenvalues --   -0.28687  -0.26379  -0.25890  -0.25150  -0.24344
 Alpha  occ. eigenvalues --   -0.23021  -0.20281  -0.20008  -0.16396   0.04831
 Alpha virt. eigenvalues --    0.06745   0.07505   0.09064   0.09349   0.09596
 Alpha virt. eigenvalues --    0.09810   0.10612   0.11235   0.12059   0.12220
 Alpha virt. eigenvalues --    0.12928   0.13435   0.15067   0.15074   0.16580

  Beta  occ. eigenvalues --  -19.05525 -19.04951 -19.03484 -14.23141 -10.22553
  Beta  occ. eigenvalues --  -10.13115 -10.12344 -10.12311 -10.11395 -10.11267
  Beta  occ. eigenvalues --   -1.00426  -0.94704  -0.93407  -0.82280  -0.69256
  Beta  occ. eigenvalues --   -0.62079  -0.59795  -0.57500  -0.54516  -0.45418
  Beta  occ. eigenvalues --   -0.43666  -0.41750  -0.38607  -0.38007  -0.35704
  Beta  occ. eigenvalues --   -0.34973  -0.34236  -0.33456  -0.30955  -0.29199
  Beta  occ. eigenvalues --   -0.28651  -0.26349  -0.25864  -0.25111  -0.24307
  Beta  occ. eigenvalues --   -0.22964  -0.20265  -0.19979  -0.16372
  Beta virt. eigenvalues --    0.07191   0.07831   0.08742   0.09362   0.09564
  Beta virt. eigenvalues --    0.09762   0.10697   0.11278   0.11569   0.12571
  Beta virt. eigenvalues --    0.13161   0.13287   0.13663   0.15068   0.15614

 Mulliken charges and spin densities:
               1          2
     1  C    0.708006  -0.977218
     2  O   -0.173383   0.048601
     3  C    0.337786  -0.667596
     4  C   -1.751466   1.576414
     5  C    1.101581  -1.050314
     6  N   -0.354770   0.081255
     7  O   -0.128545   0.034553
     8  C    1.646492  -1.944733
     9  O   -0.045792   0.011812
    10  C    0.523591  -0.743335
    11  H   -0.092008   0.244341
    12  H   -0.120930   0.270529
    13  H   -0.632569   0.767584
    14  H    0.300827  -0.140414
    15  H   -0.090289   0.312301
    16  H   -0.371097   0.530872
    17  H   -0.739572   0.891483
    18  H   -0.763057   0.927124
    19  H   -0.116916   0.263092
    20  H   -0.114592   0.293149
    21  H   -0.123299   0.270498
 Sum of Mulliken charges =  -1.00000   1.00000

 Dipole moment (field-independent basis, Debye):
    X=              0.0292    Y=              5.6589    Z=              0.5699  Tot=              5.6876
 Quadrupole moment (field-independent basis, Debye-Ang):
   XX=           -112.9679   YY=           -111.9709   ZZ=            -94.1085
   XY=              1.8169   XZ=             -0.4042   YZ=             -3.6687

 Summary of Natural Population Analysis:

                                       Natural Population
                Natural  -----------------------------------------------
    Atom  No    Charge         Core      Valence    Rydberg      Total
 -----------------------------------------------------------------------
      C    1   -0.09854      0.99960     2.08955    0.00939     3.09854
      O    2   -0.29555      0.99989     3.28570    0.00996     4.29555
      C    3   -0.01529      0.99952     1.99975    0.01602     3.01529
      C    4    0.24150      0.99946     1.73686    0.02218     2.75850
      C    5    0.13459      0.99961     1.84575    0.02005     2.86541
      N    6   -0.16889      0.99979     2.65658    0.01252     3.66889
      O    7   -0.29666      0.99987     3.28659    0.01020     4.29666
      C    8   -0.10466      0.99959     2.09497    0.01009     3.10466
      O    9   -0.28311      0.99986     3.27397    0.00928     4.28311
      C   10   -0.10668      0.99959     2.09798    0.00911     3.10668
      H   11    0.08936      0.00000     0.40953    0.00111     0.41064
      H   12    0.08538      0.00000     0.41308    0.00155     0.41462
      H   13    0.08272      0.00000     0.41501    0.00227     0.41728
      H   14    0.09192      0.00000     0.40544    0.00264     0.40808
      H   15    0.09963      0.00000     0.39853    0.00185     0.40037
      H   16    0.08673      0.00000     0.41123    0.00204     0.41327
      H   17    0.08674      0.00000     0.40894    0.00432     0.41326
      H   18    0.09996      0.00000     0.39687    0.00316     0.40004
      H   19    0.08561      0.00000     0.41288    0.00151     0.41439
      H   20    0.09297      0.00000     0.40519    0.00184     0.40703
      H   21    0.09227      0.00000     0.40678    0.00095     0.40773
 =======================================================================
   * Total *    0.00000      9.99679    28.85117    0.15204    39.00000

 Normal termination of Gaussian 16 at Tue Dec  8 10:44:27 2020.
