 Gaussian 16, Revision A.03,

 -----------------------------------------------------------
 # opt freq B3LYP/6-31G(d) empiricaldispersion=gd3bj scf=xqc
 -----------------------------------------------------------

 -------------------------------
 CID_152329909_JID_7291_neutraal
 -------------------------------
 Symbolic Z-matrix:
 Charge =  0 Multiplicity = 1

 SCF Done:  E(RB3LYP) =  -725.241635510     A.U. after   15 cycles
 SCF Done:  E(RB3LYP) =  -725.243208823     A.U. after   14 cycles
 SCF Done:  E(RB3LYP) =  -725.245338666     A.U. after   13 cycles
 SCF Done:  E(RB3LYP) =  -725.245688164     A.U. after   13 cycles
 SCF Done:  E(RB3LYP) =  -725.245789166     A.U. after   12 cycles
 SCF Done:  E(RB3LYP) =  -725.245933701     A.U. after   11 cycles
 SCF Done:  E(RB3LYP) =  -725.246111795     A.U. after   12 cycles
 SCF Done:  E(RB3LYP) =  -725.246265636     A.U. after   13 cycles
 SCF Done:  E(RB3LYP) =  -725.246468851     A.U. after   13 cycles
 SCF Done:  E(RB3LYP) =  -725.246531627     A.U. after   12 cycles
 SCF Done:  E(RB3LYP) =  -725.247790509     A.U. after   11 cycles
 SCF Done:  E(RB3LYP) =  -725.247792830     A.U. after   10 cycles
 SCF Done:  E(RB3LYP) =  -725.247793232     A.U. after    9 cycles
 SCF Done:  E(RB3LYP) =  -725.247793398     A.U. after    7 cycles
 SCF Done:  E(RB3LYP) =  -725.247793505     A.U. after    7 cycles
 Optimization completed.
    -- Stationary point found.
 Normal termination of Gaussian 16 at Thu Dec 17 20:18:03 2020.

 --------------------------------------------------------------------
 #N Geom=AllCheck Guess=TCheck SCRF=Check GenChk RB3LYP/6-31G(d) Freq
 --------------------------------------------------------------------

 Structure from the checkpoint file:  "JID_7291.chk"
 -------------------------------
 CID_152329909_JID_7291_neutraal
 -------------------------------
 Charge =  0 Multiplicity = 1

 SCF Done:  E(RB3LYP) =  -725.247793505     A.U. after    1 cycles

  Exact polarizability: 191.488 -19.333 140.709  -4.944   2.513 148.654
 Approx polarizability: 247.051 -38.936 249.221 -14.602  18.551 252.752

                      1                      2                      3
                      A                      A                      A
 Frequencies --     23.3532                30.7106                56.2720
 Red. masses --      5.6116                 6.4503                 4.3689
 Frc consts  --      0.0018                 0.0036                 0.0082
 IR Inten    --      0.2051                 0.1951                 0.0520

                      4                      5                      6
                      A                      A                      A
 Frequencies --     69.2161                73.4429               108.9984
 Red. masses --      3.9259                 3.5127                 2.8827
 Frc consts  --      0.0111                 0.0112                 0.0202
 IR Inten    --      0.8303                 0.8265                 1.5891

                      7                      8                      9
                      A                      A                      A
 Frequencies --    147.0037               199.4515               242.0462
 Red. masses --      3.6032                 4.4606                 2.6046
 Frc consts  --      0.0459                 0.1045                 0.0899
 IR Inten    --      0.5537                 1.3985                 3.8469

                     10                     11                     12
                      A                      A                      A
 Frequencies --    251.2899               265.9881               272.2255
 Red. masses --      2.8236                 3.1160                 1.4091
 Frc consts  --      0.1051                 0.1299                 0.0615
 IR Inten    --      0.7138                 2.7157                 3.1312

                     13                     14                     15
                      A                      A                      A
 Frequencies --    300.2213               340.1174               354.9559
 Red. masses --      2.6637                 2.6095                 2.5387
 Frc consts  --      0.1415                 0.1779                 0.1885
 IR Inten    --      6.0542                 4.6239                 0.4282

                     16                     17                     18
                      A                      A                      A
 Frequencies --    397.3221               422.5688               437.3397
 Red. masses --      2.6521                 2.4106                 2.3625
 Frc consts  --      0.2467                 0.2536                 0.2662
 IR Inten    --      7.0217                 5.7374                12.8246

                     19                     20                     21
                      A                      A                      A
 Frequencies --    455.4586               460.8691               508.8879
 Red. masses --      2.2144                 2.4803                 3.8277
 Frc consts  --      0.2707                 0.3104                 0.5840
 IR Inten    --     35.4800                18.2074                29.6285

                     22                     23                     24
                      A                      A                      A
 Frequencies --    527.7326               553.9876               567.0621
 Red. masses --      2.6692                 3.2664                12.9595
 Frc consts  --      0.4380                 0.5906                 2.4553
 IR Inten    --     10.4351                 4.5522                10.2847

                     25                     26                     27
                      A                      A                      A
 Frequencies --    652.3974               671.8411               701.3299
 Red. masses --      4.0466                 4.4133                 3.4111
 Frc consts  --      1.0148                 1.1737                 0.9885
 IR Inten    --      3.4647                30.4534                 4.5434

                     28                     29                     30
                      A                      A                      A
 Frequencies --    717.3109               756.0000               763.3596
 Red. masses --      3.0498                 3.2979                 3.5849
 Frc consts  --      0.9246                 1.1105                 1.2308
 IR Inten    --      1.4864                 0.4800                 0.3434

                     31                     32                     33
                      A                      A                      A
 Frequencies --    820.1109               829.9120               869.2576
 Red. masses --      1.4769                 2.3327                 1.5496
 Frc consts  --      0.5853                 0.9466                 0.6899
 IR Inten    --     17.7591                 1.5951                15.5319

                     34                     35                     36
                      A                      A                      A
 Frequencies --    888.0327               894.3385               902.9587
 Red. masses --      1.9003                 2.0843                 2.0140
 Frc consts  --      0.8829                 0.9822                 0.9675
 IR Inten    --      7.0375                 0.1621                10.1306

                     37                     38                     39
                      A                      A                      A
 Frequencies --    920.3455               940.5991               945.3920
 Red. masses --      1.8520                 1.4426                 1.7012
 Frc consts  --      0.9243                 0.7520                 0.8958
 IR Inten    --      9.6033                 1.5989                 3.4991

                     40                     41                     42
                      A                      A                      A
 Frequencies --    962.4427               975.3294               977.4239
 Red. masses --      2.8070                 2.5461                 2.0111
 Frc consts  --      1.5320                 1.4270                 1.1320
 IR Inten    --     19.9973                 4.1300                 1.3467

                     43                     44                     45
                      A                      A                      A
 Frequencies --   1032.3100              1075.6727              1108.4810
 Red. masses --      2.1856                 1.8234                 1.7105
 Frc consts  --      1.3723                 1.2430                 1.2383
 IR Inten    --      6.6791                 2.1327                 0.3384

                     46                     47                     48
                      A                      A                      A
 Frequencies --   1112.1458              1128.5187              1171.0319
 Red. masses --      1.7562                 2.1151                 1.4431
 Frc consts  --      1.2798                 1.5871                 1.1659
 IR Inten    --      5.7123                10.0753                 5.5231

                     49                     50                     51
                      A                      A                      A
 Frequencies --   1173.2854              1202.0395              1212.1182
 Red. masses --      1.9456                 2.5911                 1.2590
 Frc consts  --      1.5780                 2.2058                 1.0899
 IR Inten    --      3.7895                11.3944                17.8925

                     52                     53                     54
                      A                      A                      A
 Frequencies --   1226.5231              1238.6082              1246.7009
 Red. masses --      1.3521                 1.9272                 1.2926
 Frc consts  --      1.1985                 1.7419                 1.1837
 IR Inten    --      0.3971                 5.4015                 5.1247

                     55                     56                     57
                      A                      A                      A
 Frequencies --   1275.7262              1288.0988              1306.6243
 Red. masses --      1.4466                 1.3504                 1.4132
 Frc consts  --      1.3872                 1.3201                 1.4216
 IR Inten    --      5.0222                 0.9068                18.7404

                     58                     59                     60
                      A                      A                      A
 Frequencies --   1319.6459              1324.1982              1352.6378
 Red. masses --      1.8549                 1.5491                 2.3494
 Frc consts  --      1.9032                 1.6004                 2.5326
 IR Inten    --     11.3573                38.7420                91.1857

                     61                     62                     63
                      A                      A                      A
 Frequencies --   1365.3906              1380.8005              1384.3378
 Red. masses --      2.7905                 1.6027                 1.6980
 Frc consts  --      3.0651                 1.8004                 1.9172
 IR Inten    --     69.4194                 7.7114                28.0364

                     64                     65                     66
                      A                      A                      A
 Frequencies --   1393.7937              1401.5431              1406.8324
 Red. masses --      1.4618                 1.4780                 1.4368
 Frc consts  --      1.6731                 1.7105                 1.6754
 IR Inten    --      3.7863                26.0676                17.1047

                     67                     68                     69
                      A                      A                      A
 Frequencies --   1412.2270              1444.9393              1459.2394
 Red. masses --      1.4167                 1.3103                 2.0956
 Frc consts  --      1.6647                 1.6118                 2.6291
 IR Inten    --      3.1702                 8.4736                21.8179

                     70                     71                     72
                      A                      A                      A
 Frequencies --   1508.0265              1514.8094              1515.5760
 Red. masses --      1.1167                 1.1097                 1.1355
 Frc consts  --      1.4962                 1.5003                 1.5367
 IR Inten    --      4.1159                13.5673                12.2208

                     73                     74                     75
                      A                      A                      A
 Frequencies --   1521.4799              1532.7053              1537.0780
 Red. masses --      1.0823                 1.0723                 1.2744
 Frc consts  --      1.4761                 1.4842                 1.7740
 IR Inten    --      3.1856                13.8304                39.8059

                     76                     77                     78
                      A                      A                      A
 Frequencies --   1537.7065              1551.7603              1569.1082
 Red. masses --      1.0477                 1.5723                 2.5082
 Frc consts  --      1.4596                 2.2306                 3.6384
 IR Inten    --     10.3790                52.5327                10.0636

                     79                     80                     81
                      A                      A                      A
 Frequencies --   1635.7189              1676.8500              2260.0067
 Red. masses --      6.0545                 5.8318                13.6701
 Frc consts  --      9.5443                 9.6614                41.1377
 IR Inten    --     38.7772                70.5110               506.6518

                     82                     83                     84
                      A                      A                      A
 Frequencies --   2963.4850              3017.3186              3034.4376
 Red. masses --      1.0736                 1.0694                 1.0729
 Frc consts  --      5.5553                 5.7366                 5.8208
 IR Inten    --     94.8662                39.1989                 4.8322

                     85                     86                     87
                      A                      A                      A
 Frequencies --   3046.6421              3053.9227              3057.6282
 Red. masses --      1.0690                 1.0382                 1.0658
 Frc consts  --      5.8463                 5.7047                 5.8709
 IR Inten    --     60.0160                16.3507                10.7482

                     88                     89                     90
                      A                      A                      A
 Frequencies --   3062.1990              3072.8524              3081.0170
 Red. masses --      1.0587                 1.0882                 1.1039
 Frc consts  --      5.8491                 6.0541                 6.1742
 IR Inten    --     28.2181                39.6343                19.9884

                     91                     92                     93
                      A                      A                      A
 Frequencies --   3087.6140              3106.0854              3116.2715
 Red. masses --      1.0886                 1.1059                 1.1057
 Frc consts  --      6.1146                 6.2862                 6.3264
 IR Inten    --     61.9870                44.5469                16.7668

                     94                     95                     96
                      A                      A                      A
 Frequencies --   3118.8176              3131.3389              3163.8626
 Red. masses --      1.1027                 1.1022                 1.0892
 Frc consts  --      6.3193                 6.3673                 6.4238
 IR Inten    --     32.9055                34.8524                23.1044

                     97                     98                     99
                      A                      A                      A
 Frequencies --   3168.1787              3191.7132              3588.6330
 Red. masses --      1.0872                 1.0935                 1.0758
 Frc consts  --      6.4293                 6.5631                 8.1627
 IR Inten    --     11.9942                21.0088                 7.8427

 - Thermochemistry -
 -------------------
 Temperature   298.150 Kelvin.  Pressure   1.00000 Atm.
 Atom     1 has atomic number  6 and mass  12.00000

 Molecular mass:   230.15315 amu.
 Principal axes and moments of inertia in atomic units:
                           1         2         3
     Eigenvalues --  2112.270668072.975148334.70106
           X            0.99971  -0.02395   0.00326
           Y            0.02410   0.99779  -0.06196
           Z           -0.00177   0.06202   0.99807
 This molecule is an asymmetric top.
 Rotational symmetry number  1.
 Warning -- assumption of classical behavior for rotation
           may cause significant error
 Rotational temperatures (Kelvin)      0.04101     0.01073     0.01039
 Rotational constants (GHZ):           0.85441     0.22355     0.21653
 Zero-point vibrational energy     790260.4 (Joules/Mol)
                                  188.87676 (Kcal/Mol)
 Warning -- explicit consideration of  24 degrees of freedom as
           vibrations may cause significant error
 Vibrational temperatures:     33.60    44.19    80.96    99.59   105.67
          (Kelvin)            156.82   211.51   286.97   348.25   361.55
                              382.70   391.67   431.95   489.35   510.70
                              571.66   607.98   629.23   655.30   663.09
                              732.18   759.29   797.06   815.88   938.65
                              966.63  1009.06  1032.05  1087.72  1098.30
                             1179.96  1194.06  1250.67  1277.68  1286.75
                             1299.16  1324.17  1353.31  1360.21  1384.74
                             1403.28  1406.30  1485.26  1547.65  1594.86
                             1600.13  1623.69  1684.85  1688.10  1729.47
                             1743.97  1764.69  1782.08  1793.72  1835.49
                             1853.29  1879.94  1898.68  1905.23  1946.14
                             1964.49  1986.66  1991.75  2005.36  2016.51
                             2024.12  2031.88  2078.95  2099.52  2169.71
                             2179.47  2180.58  2189.07  2205.22  2211.51
                             2212.42  2232.64  2257.60  2353.43  2412.61
                             3251.65  4263.79  4341.25  4365.88  4383.44
                             4393.91  4399.24  4405.82  4421.15  4432.90
                             4442.39  4468.96  4483.62  4487.28  4505.30
                             4552.09  4558.30  4592.16  5163.24

 Zero-point correction=                           0.300994 (Hartree/Particle)
 Thermal correction to Energy=                    0.316863
 Thermal correction to Enthalpy=                  0.317807
 Thermal correction to Gibbs Free Energy=         0.256026
 Sum of electronic and zero-point Energies=           -724.946799
 Sum of electronic and thermal Energies=              -724.930930
 Sum of electronic and thermal Enthalpies=            -724.929986
 Sum of electronic and thermal Free Energies=         -724.991767

                     E (Thermal)             CV                S
                      KCal/Mol        Cal/Mol-Kelvin    Cal/Mol-Kelvin
 Total                  198.835             61.057            130.030
 Electronic               0.000              0.000              0.000
 Translational            0.889              2.981             42.203
 Rotational               0.889              2.981             33.319
 Vibrational            197.057             55.095             54.508
 Vibration     1          0.593              1.985              6.326
 Vibration     2          0.594              1.984              5.783
 Vibration     3          0.596              1.975              4.584
 Vibration     4          0.598              1.969              4.176
 Vibration     5          0.599              1.967              4.059
 Vibration     6          0.606              1.942              3.287
 Vibration     7          0.617              1.906              2.711
 Vibration     8          0.638              1.841              2.138
 Vibration     9          0.658              1.776              1.788
 Vibration    10          0.663              1.761              1.722
 Vibration    11          0.672              1.735              1.622
 Vibration    12          0.675              1.724              1.582
 Vibration    13          0.693              1.673              1.416
 Vibration    14          0.720              1.595              1.212
 Vibration    15          0.731              1.565              1.144
 Vibration    16          0.764              1.476              0.973
 Vibration    17          0.785              1.421              0.883
 Vibration    18          0.798              1.389              0.835
 Vibration    19          0.814              1.349              0.779
 Vibration    20          0.819              1.337              0.764
 Vibration    21          0.864              1.230              0.636
 Vibration    22          0.883              1.189              0.592
 Vibration    23          0.909              1.131              0.536
 Vibration    24          0.923              1.103              0.510

 Optimization completed.
    -- Stationary point found.
 Normal termination of Gaussian 16 at Thu Dec 17 20:29:48 2020.

 ----------------------------------------------------------------------
 # B3LYP/6-311++G(d,p) empiricaldispersion=gd3bj scf=xqc pop=npa geom=c
 heck
 ----------------------------------------------------------------------

 ---------------------------------------
 CID_152329909_JID_7291_Energie_neutraal
 ---------------------------------------
 Structure from the checkpoint file:  "JID_7291.chk"
 Charge =  0 Multiplicity = 1

 SCF Done:  E(RB3LYP) =  -725.440604649     A.U. after   16 cycles
 Normal termination of Gaussian 16 at Thu Dec 17 20:35:16 2020.

 ----------------------------------------------------------------------
 # B3LYP/6-311++G(d,p) empiricaldispersion=gd3bj scf=xqc pop=npa geom=c
 heck
 ----------------------------------------------------------------------

 -------------------------------------
 CID_152329909_JID_7291_Energie_kation
 -------------------------------------
 Structure from the checkpoint file:  "JID_7291.chk"
 Charge =  1 Multiplicity = 2

 SCF Done:  E(UB3LYP) =  -725.174342922     A.U. after   27 cycles
 Normal termination of Gaussian 16 at Thu Dec 17 20:47:41 2020.
 Gaussian 16:  ES64L-G16RevA.03 25-Dec-2016

 ----------------------------------------------------------------------
 # B3LYP/6-311++G(d,p) empiricaldispersion=gd3bj scf=xqc pop=npa geom=c
 heck
 ----------------------------------------------------------------------

 ------------------------------------
 CID_152329909_JID_7291_Energie_anion
 ------------------------------------
 Structure from the checkpoint file:  "JID_7291.chk"
 Charge = -1 Multiplicity = 2

                         Standard orientation:
 ---------------------------------------------------------------------
 Center     Atomic      Atomic             Coordinates (Angstroms)
 Number     Number       Type             X           Y           Z
 ---------------------------------------------------------------------
      1          6           0        2.304335   -0.370812    1.717054
      2          6           0        2.573375   -1.156186    0.430044
      3          6           0        1.386704   -2.071587    0.030075
      4          6           0        0.101554   -1.342835   -0.294097
      5          6           0       -0.813938   -1.035509    0.712350
      6          6           0       -1.994469   -0.322473    0.446171
      7          6           0       -2.272858    0.088866   -0.875234
      8          6           0       -3.556059    0.830351   -1.192997
      9          6           0       -4.176232    1.460263    0.059967
     10          6           0       -4.213378    0.434692    1.192801
     11          7           0       -2.853060    0.011405    1.492103
     12          6           0       -1.351027   -0.225442   -1.873833
     13          6           0       -0.182103   -0.933695   -1.604255
     14          6           0        2.949541   -0.224621   -0.731462
     15          7           0        4.222788    0.493069   -0.478753
     16          7           0        4.119022    1.640235   -0.040508
     17          7           0        4.154077    2.711636    0.358380
     18          1           0        1.480306    0.338435    1.584012
     19          1           0        3.191656    0.187608    2.030959
     20          1           0        2.034135   -1.047691    2.535567
     21          1           0        3.435414   -1.814469    0.603010
     22          1           0        1.690405   -2.673430   -0.835974
     23          1           0        1.214470   -2.773988    0.854775
     24          1           0       -0.611400   -1.349425    1.734657
     25          1           0       -4.281733    0.135974   -1.641827
     26          1           0       -3.364954    1.600025   -1.950584
     27          1           0       -5.188540    1.821455   -0.151141
     28          1           0       -3.576457    2.318391    0.385478
     29          1           0       -4.642617    0.873387    2.099797
     30          1           0       -4.856912   -0.413050    0.897022
     31          1           0       -2.754959   -0.570612    2.313709
     32          1           0       -1.564471    0.087686   -2.893949
     33          1           0        0.507137   -1.174134   -2.409095
     34          1           0        3.117820   -0.810541   -1.640060
     35          1           0        2.138243    0.483888   -0.934425
 ---------------------------------------------------------------------

 SCF Done:  E(UB3LYP) =  -725.433740880     A.U. after   33 cycles
 SCF Done:  E(UB3LYP) =  -725.433740880     a.u. after    1 cycles

 The electronic state is 2-A.
 Alpha  occ. eigenvalues --  -14.36168 -14.26176 -14.24902 -14.22105 -10.11177
 Alpha  occ. eigenvalues --  -10.11125 -10.10530 -10.08466 -10.08043 -10.07829
 Alpha  occ. eigenvalues --  -10.07754 -10.07648 -10.07346 -10.07239 -10.06465
 Alpha  occ. eigenvalues --  -10.06353 -10.06279  -1.02677  -0.86944  -0.84186
 Alpha  occ. eigenvalues --   -0.75348  -0.72030  -0.70182  -0.66116  -0.63866
 Alpha  occ. eigenvalues --   -0.61547  -0.59558  -0.55801  -0.52692  -0.51356
 Alpha  occ. eigenvalues --   -0.48263  -0.44959  -0.43912  -0.42650  -0.41019
 Alpha  occ. eigenvalues --   -0.40276  -0.38722  -0.38261  -0.36777  -0.36173
 Alpha  occ. eigenvalues --   -0.34422  -0.33900  -0.33146  -0.32815  -0.32561
 Alpha  occ. eigenvalues --   -0.31981  -0.31806  -0.29180  -0.28470  -0.28123
 Alpha  occ. eigenvalues --   -0.26430  -0.26147  -0.24812  -0.24742  -0.23872
 Alpha  occ. eigenvalues --   -0.23571  -0.22367  -0.19885  -0.19467  -0.15018
 Alpha  occ. eigenvalues --   -0.14004  -0.10103   0.03885
 Alpha virt. eigenvalues --    0.05366   0.06620   0.06950   0.07571   0.07946
 Alpha virt. eigenvalues --    0.08332   0.08960   0.09556   0.09845   0.09972
 Alpha virt. eigenvalues --    0.10335   0.10677   0.10941   0.11256   0.12161

  Beta  occ. eigenvalues --  -14.35993 -14.25943 -14.24943 -14.22086 -10.11181
  Beta  occ. eigenvalues --  -10.11070 -10.10500 -10.08458 -10.08036 -10.07805
  Beta  occ. eigenvalues --  -10.07739 -10.07638 -10.07318 -10.07226 -10.06446
  Beta  occ. eigenvalues --  -10.06349 -10.06269  -1.02340  -0.86780  -0.84151
  Beta  occ. eigenvalues --   -0.75306  -0.71980  -0.70143  -0.66056  -0.63824
  Beta  occ. eigenvalues --   -0.61445  -0.59522  -0.55752  -0.52647  -0.51299
  Beta  occ. eigenvalues --   -0.48195  -0.44903  -0.43834  -0.42590  -0.40586
  Beta  occ. eigenvalues --   -0.39953  -0.38678  -0.38182  -0.36721  -0.35996
  Beta  occ. eigenvalues --   -0.34248  -0.33677  -0.33039  -0.32762  -0.32460
  Beta  occ. eigenvalues --   -0.31865  -0.31757  -0.29144  -0.28425  -0.28043
  Beta  occ. eigenvalues --   -0.26391  -0.26114  -0.24775  -0.24696  -0.23831
  Beta  occ. eigenvalues --   -0.23535  -0.22322  -0.19709  -0.19208  -0.14935
  Beta  occ. eigenvalues --   -0.13898  -0.10040
  Beta virt. eigenvalues --    0.06134   0.06657   0.07297   0.07791   0.07991
  Beta virt. eigenvalues --    0.08382   0.08704   0.09232   0.09672   0.10058
  Beta virt. eigenvalues --    0.10298   0.10571   0.10913   0.11037   0.11426

 Mulliken charges and spin densities:
               1          2
     1  C   -0.415096  -0.292760
     2  C    0.349239   0.048795
     3  C    0.487706  -1.126432
     4  C    1.479093  -0.283113
     5  C   -1.008551  -0.058174
     6  C   -1.729821  -0.150843
     7  C    1.400057   0.389581
     8  C    0.516899  -1.081296
     9  C   -0.271298  -0.087052
    10  C    0.588524  -0.893916
    11  N   -0.218258   0.248334
    12  C   -0.114294   0.208578
    13  C   -0.675017   0.410193
    14  C   -0.534251  -0.384384
    15  N   -0.295582   0.004620
    16  N    0.542305   0.036025
    17  N   -0.286700   0.138624
    18  H    0.168744   0.019579
    19  H    0.104466   0.030600
    20  H   -0.004162   0.133670
    21  H   -0.054712   0.258311
    22  H    0.022331   0.149612
    23  H   -0.199713   0.380043
    24  H   -0.145261   0.305463
    25  H    0.021467   0.150502
    26  H    0.127695   0.006118
    27  H   -0.365403   0.537095
    28  H    0.219637  -0.064911
    29  H   -0.544422   0.726440
    30  H   -0.118382   0.266653
    31  H   -0.211051   0.463231
    32  H   -0.012722   0.161989
    33  H   -0.002794   0.133246
    34  H   -0.064276   0.256868
    35  H    0.243603  -0.041289
 Sum of Mulliken charges =  -1.00000   1.00000

 Dipole moment (field-independent basis, Debye):
    X=              1.2348    Y=             -0.1762    Z=             -3.1166  Tot=              3.3570
 Quadrupole moment (field-independent basis, Debye-Ang):
   XX=           -206.1741   YY=           -141.6289   ZZ=           -135.0798
   XY=             -5.4038   XZ=             10.3366   YZ=             -1.5883

 Summary of Natural Population Analysis:

                                       Natural Population
                Natural  -----------------------------------------------
    Atom  No    Charge         Core      Valence    Rydberg      Total
 -----------------------------------------------------------------------
      C    1   -0.29213      0.99964     2.28593    0.00656     3.29213
      C    2   -0.11086      0.99959     2.10105    0.01022     3.11086
      C    3   -0.19473      0.99958     2.18476    0.01039     3.19473
      C    4   -0.00893      0.99951     1.99914    0.01028     3.00893
      C    5   -0.11792      0.99947     2.10927    0.00917     3.11792
      C    6    0.09326      0.99945     1.89625    0.01104     2.90674
      C    7   -0.04028      0.99948     2.03208    0.00872     3.04028
      C    8   -0.19452      0.99961     2.18624    0.00867     3.19452
      C    9   -0.19194      0.99963     2.18366    0.00865     3.19194
      C   10   -0.08236      0.99962     2.07144    0.01130     3.08236
      N   11   -0.31505      0.99968     2.80431    0.01106     3.81505
      C   12   -0.08719      0.99953     2.07966    0.00800     3.08719
      C   13   -0.12493      0.99951     2.11620    0.00922     3.12493
      C   14   -0.09099      0.99955     2.07911    0.01234     3.09099
      N   15   -0.19639      0.99970     2.68286    0.01383     3.69639
      N   16    0.12790      0.99970     2.35737    0.01503     3.37210
      N   17   -0.03614      0.99982     2.52274    0.01358     3.53614
      H   18    0.10315      0.00000     0.39591    0.00094     0.39685
      H   19    0.10162      0.00000     0.39750    0.00088     0.39838
      H   20    0.09991      0.00000     0.39928    0.00081     0.40009
      H   21    0.09824      0.00000     0.39960    0.00215     0.40176
      H   22    0.10147      0.00000     0.39742    0.00111     0.39853
      H   23    0.10446      0.00000     0.39430    0.00124     0.39554
      H   24    0.09917      0.00000     0.39919    0.00164     0.40083
      H   25    0.10079      0.00000     0.39789    0.00131     0.39921
      H   26    0.10027      0.00000     0.39879    0.00094     0.39973
      H   27    0.10135      0.00000     0.39747    0.00118     0.39865
      H   28    0.09731      0.00000     0.40146    0.00123     0.40269
      H   29    0.09834      0.00000     0.39990    0.00175     0.40166
      H   30    0.08301      0.00000     0.41485    0.00214     0.41699
      H   31    0.18792      0.00000     0.30869    0.00339     0.31208
      H   32    0.09483      0.00000     0.40400    0.00117     0.40517
      H   33    0.09742      0.00000     0.40130    0.00128     0.40258
      H   34    0.09755      0.00000     0.40109    0.00135     0.40245
      H   35    0.09638      0.00000     0.40234    0.00128     0.40362
 =======================================================================
   * Total *   -0.00000     16.99307    44.80307    0.20386    62.00000

 Normal termination of Gaussian 16 at Thu Dec 17 21:02:53 2020.
