 Gaussian 16, Revision A.03,

 -----------------------------------------------------------
 # opt freq B3LYP/6-31G(d) empiricaldispersion=gd3bj scf=xqc
 -----------------------------------------------------------

 -------------------------------
 CID_114082405_JID_8943_neutraal
 -------------------------------
 Symbolic Z-matrix:
 Charge =  0 Multiplicity = 1

 SCF Done:  E(RB3LYP) =  -1252.21441457     A.U. after   16 cycles
 SCF Done:  E(RB3LYP) =  -1252.22776775     A.U. after   14 cycles
 SCF Done:  E(RB3LYP) =  -1252.22951947     A.U. after   14 cycles
 SCF Done:  E(RB3LYP) =  -1252.23202150     A.U. after   13 cycles
 SCF Done:  E(RB3LYP) =  -1252.23183452     A.U. after   13 cycles
 SCF Done:  E(RB3LYP) =  -1252.23305852     A.U. after   12 cycles
 SCF Done:  E(RB3LYP) =  -1252.23386775     A.U. after   12 cycles
 SCF Done:  E(RB3LYP) =  -1252.23398997     A.U. after   13 cycles
 SCF Done:  E(RB3LYP) =  -1252.23427766     A.U. after   12 cycles
 SCF Done:  E(RB3LYP) =  -1252.23430075     A.U. after   12 cycles
 SCF Done:  E(RB3LYP) =  -1252.23466344     A.U. after   10 cycles
 SCF Done:  E(RB3LYP) =  -1252.23466346     A.U. after    8 cycles
 SCF Done:  E(RB3LYP) =  -1252.23466347     A.U. after    7 cycles
 SCF Done:  E(RB3LYP) =  -1252.23466347     A.U. after    7 cycles
 Optimization completed.
    -- Stationary point found.
 Normal termination of Gaussian 16 at Fri Dec 11 21:49:42 2020.

 --------------------------------------------------------------------
 #N Geom=AllCheck Guess=TCheck SCRF=Check GenChk RB3LYP/6-31G(d) Freq
 --------------------------------------------------------------------

 Structure from the checkpoint file:  "JID_8943.chk"
 -------------------------------
 CID_114082405_JID_8943_neutraal
 -------------------------------
 Charge =  0 Multiplicity = 1

 SCF Done:  E(RB3LYP) =  -1252.23466347     A.U. after    1 cycles

  Exact polarizability: 195.670   6.362 140.310  -0.683  -6.230 101.308
 Approx polarizability: 256.077  21.932 256.849  -3.882 -29.290 174.417

                      1                      2                      3
                      A                      A                      A
 Frequencies --     19.1524                50.2149                51.4251
 Red. masses --      7.0010                 6.4351                 6.7176
 Frc consts  --      0.0015                 0.0096                 0.0105
 IR Inten    --      1.9747                 7.9562                 1.2054

                      4                      5                      6
                      A                      A                      A
 Frequencies --     88.4349               107.6117               116.5514
 Red. masses --      6.2796                 3.5038                 6.1742
 Frc consts  --      0.0289                 0.0239                 0.0494
 IR Inten    --      3.1874                 1.7167                 2.9064

                      7                      8                      9
                      A                      A                      A
 Frequencies --    152.4275               181.9731               207.7427
 Red. masses --      7.1708                 8.8476                 4.9119
 Frc consts  --      0.0982                 0.1726                 0.1249
 IR Inten    --      2.4828                 0.5668                 5.9580

                     10                     11                     12
                      A                      A                      A
 Frequencies --    253.4020               261.7908               293.5753
 Red. masses --      4.0076                 6.0553                 6.5283
 Frc consts  --      0.1516                 0.2445                 0.3315
 IR Inten    --      0.8936                 6.8436                 2.7676

                     13                     14                     15
                      A                      A                      A
 Frequencies --    298.9125               334.2924               343.7622
 Red. masses --      2.9204                 4.7921                 3.3154
 Frc consts  --      0.1537                 0.3155                 0.2308
 IR Inten    --      4.5299                 3.1118                 8.7497

                     16                     17                     18
                      A                      A                      A
 Frequencies --    410.6731               430.3529               446.3240
 Red. masses --      5.7092                 5.4180                 4.3631
 Frc consts  --      0.5673                 0.5912                 0.5121
 IR Inten    --      8.8142                 5.5885                 9.7680

                     19                     20                     21
                      A                      A                      A
 Frequencies --    464.1362               490.3026               507.0816
 Red. masses --      3.7765                 3.2320                 1.5271
 Frc consts  --      0.4793                 0.4578                 0.2314
 IR Inten    --     43.9199                28.6428               230.0366

                     22                     23                     24
                      A                      A                      A
 Frequencies --    527.7896               551.2002               552.4027
 Red. masses --      4.6627                 4.4353                 2.7451
 Frc consts  --      0.7653                 0.7940                 0.4935
 IR Inten    --     40.7755                14.4163                 3.5756

                     25                     26                     27
                      A                      A                      A
 Frequencies --    571.0749               583.5646               607.4088
 Red. masses --      1.8604                 2.4486                 5.3467
 Frc consts  --      0.3575                 0.4913                 1.1623
 IR Inten    --     16.8154                49.1190                72.8702

                     28                     29                     30
                      A                      A                      A
 Frequencies --    647.6812               659.3496               688.7648
 Red. masses --      1.5976                 2.2130                 5.1955
 Frc consts  --      0.3948                 0.5668                 1.4522
 IR Inten    --     22.1941                31.9055                 9.8131

                     31                     32                     33
                      A                      A                      A
 Frequencies --    745.8284               755.3548               785.5018
 Red. masses --      2.7937                 3.4198                 3.2896
 Frc consts  --      0.9156                 1.1496                 1.1959
 IR Inten    --     13.3352                77.4867                 8.9547

                     34                     35                     36
                      A                      A                      A
 Frequencies --    797.3581               841.1811               871.4470
 Red. masses --      3.4950                 2.0076                 5.6354
 Frc consts  --      1.3092                 0.8370                 2.5215
 IR Inten    --     26.4527                44.9511                12.6884

                     37                     38                     39
                      A                      A                      A
 Frequencies --    878.7224               934.1861               945.8094
 Red. masses --      1.9622                 2.9307                 1.3570
 Frc consts  --      0.8927                 1.5069                 0.7152
 IR Inten    --      0.9886                70.9576                 6.5614

                     40                     41                     42
                      A                      A                      A
 Frequencies --    961.1567               965.1502               978.9464
 Red. masses --      2.8447                 1.2429                 3.0372
 Frc consts  --      1.5483                 0.6822                 1.7149
 IR Inten    --    137.5960                 0.1725                37.3817

                     43                     44                     45
                      A                      A                      A
 Frequencies --    994.7978              1035.2785              1054.6841
 Red. masses --      2.1365                 3.2365                 2.1504
 Frc consts  --      1.2458                 2.0438                 1.4094
 IR Inten    --      0.6630                26.3156                17.1074

                     46                     47                     48
                      A                      A                      A
 Frequencies --   1064.9932              1108.9503              1112.5414
 Red. masses --      4.0551                 4.4339                 2.3877
 Frc consts  --      2.7098                 3.2126                 1.7413
 IR Inten    --     24.0145                25.5578                42.5946

                     49                     50                     51
                      A                      A                      A
 Frequencies --   1120.1897              1145.2744              1156.1428
 Red. masses --      5.2116                 1.8445                 2.1148
 Frc consts  --      3.8531                 1.4255                 1.6655
 IR Inten    --     82.9894                 6.2097                29.7611

                     52                     53                     54
                      A                      A                      A
 Frequencies --   1219.7388              1240.6564              1249.6342
 Red. masses --      1.2552                 1.6784                 1.1861
 Frc consts  --      1.1002                 1.5221                 1.0912
 IR Inten    --      1.2634                35.3293                16.4373

                     55                     56                     57
                      A                      A                      A
 Frequencies --   1273.7388              1288.2137              1300.3853
 Red. masses --      1.7936                 2.0577                 1.4898
 Frc consts  --      1.7145                 2.0119                 1.4843
 IR Inten    --     45.4846                69.5416                13.1120

                     58                     59                     60
                      A                      A                      A
 Frequencies --   1316.8772              1339.3664              1352.5226
 Red. masses --      1.4120                 1.3560                 1.2557
 Frc consts  --      1.4427                 1.4332                 1.3534
 IR Inten    --      5.5420                12.3082                16.4325

                     61                     62                     63
                      A                      A                      A
 Frequencies --   1369.3524              1384.4786              1389.4881
 Red. masses --      1.3386                 2.1034                 2.2805
 Frc consts  --      1.4789                 2.3754                 2.5941
 IR Inten    --      2.8205                51.1780                19.1034

                     64                     65                     66
                      A                      A                      A
 Frequencies --   1402.5465              1435.3882              1526.6320
 Red. masses --      1.6695                 1.7348                 1.0788
 Frc consts  --      1.9350                 2.1059                 1.4813
 IR Inten    --     34.5167                 0.9375                 7.2599

                     67                     68                     69
                      A                      A                      A
 Frequencies --   1531.9525              1546.5295              1550.9766
 Red. masses --      1.0862                 1.0916                 4.0580
 Frc consts  --      1.5019                 1.5383                 5.7513
 IR Inten    --      1.0019                 4.2112               144.7068

                     70                     71                     72
                      A                      A                      A
 Frequencies --   1629.8827              1678.6340              1689.7909
 Red. masses --      2.8916                 1.2237                 5.9826
 Frc consts  --      4.5259                 2.0315                10.0648
 IR Inten    --      8.9042                83.7034                 5.5400

                     73                     74                     75
                      A                      A                      A
 Frequencies --   1738.6024              1796.6285              3068.1207
 Red. masses --      9.4383                 7.9329                 1.0722
 Frc consts  --     16.8091                15.0868                 5.9466
 IR Inten    --    398.6719               352.0226                25.1033

                     76                     77                     78
                      A                      A                      A
 Frequencies --   3082.2199              3096.1730              3119.6083
 Red. masses --      1.0715                 1.0629                 1.0862
 Frc consts  --      5.9977                 6.0035                 6.2283
 IR Inten    --     30.7612                22.7094                10.4380

                     79                     80                     81
                      A                      A                      A
 Frequencies --   3143.8092              3177.3491              3185.7786
 Red. masses --      1.1022                 1.0968                 1.0966
 Frc consts  --      6.4183                 6.5237                 6.5572
 IR Inten    --     24.3916                 1.7482                24.5332

                     82                     83                     84
                      A                      A                      A
 Frequencies --   3230.2092              3246.6323              3249.9014
 Red. masses --      1.0888                 1.0979                 1.0938
 Frc consts  --      6.6939                 6.8184                 6.8066
 IR Inten    --      2.4845                 2.7585                 5.9985

                     85                     86                     87
                      A                      A                      A
 Frequencies --   3528.7206              3641.7120              3671.8763
 Red. masses --      1.0520                 1.0790                 1.0995
 Frc consts  --      7.7177                 8.4315                 8.7345
 IR Inten    --    180.2748               110.6785               103.4846

 - Thermochemistry -
 -------------------
 Temperature   298.150 Kelvin.  Pressure   1.00000 Atm.
 Atom     1 has atomic number  6 and mass  12.00000

 Molecular mass:   271.06268 amu.
 Principal axes and moments of inertia in atomic units:
                           1         2         3
     Eigenvalues --  1817.284547634.044628327.37361
           X            0.99995   0.00990  -0.00141
           Y           -0.00989   0.99989   0.01091
           Z            0.00152  -0.01090   0.99994
 This molecule is an asymmetric top.
 Rotational symmetry number  1.
 Warning -- assumption of classical behavior for rotation
           may cause significant error
 Rotational temperatures (Kelvin)      0.04766     0.01135     0.01040
 Rotational constants (GHZ):           0.99310     0.23641     0.21672
 Zero-point vibrational energy     639087.0 (Joules/Mol)
                                  152.74545 (Kcal/Mol)
 Warning -- explicit consideration of  27 degrees of freedom as
           vibrations may cause significant error
 Vibrational temperatures:     27.56    72.25    73.99   127.24   154.83
          (Kelvin)            167.69   219.31   261.82   298.90   364.59
                              376.66   422.39   430.07   480.97   494.60
                              590.87   619.18   642.16   667.79   705.44
                              729.58   759.37   793.05   794.78   821.65
                              839.62   873.93   931.87   948.66   990.98
                             1073.08  1086.79  1130.16  1147.22  1210.27
                             1253.82  1264.29  1344.09  1360.81  1382.89
                             1388.64  1408.49  1431.29  1489.53  1517.46
                             1532.29  1595.53  1600.70  1611.70  1647.79
                             1663.43  1754.93  1785.03  1797.94  1832.63
                             1853.45  1870.96  1894.69  1927.05  1945.98
                             1970.19  1991.96  1999.16  2017.95  2065.20
                             2196.48  2204.14  2225.11  2231.51  2345.04
                             2415.18  2431.23  2501.46  2584.95  4414.34
                             4434.63  4454.70  4488.42  4523.24  4571.50
                             4583.62  4647.55  4671.18  4675.88  5077.04
                             5239.61  5283.01

 Zero-point correction=                           0.243415 (Hartree/Particle)
 Thermal correction to Energy=                    0.259504
 Thermal correction to Enthalpy=                  0.260448
 Thermal correction to Gibbs Free Energy=         0.198803
 Sum of electronic and zero-point Energies=          -1251.991248
 Sum of electronic and thermal Energies=             -1251.975160
 Sum of electronic and thermal Enthalpies=           -1251.974216
 Sum of electronic and thermal Free Energies=        -1252.035860

                     E (Thermal)             CV                S
                      KCal/Mol        Cal/Mol-Kelvin    Cal/Mol-Kelvin
 Total                  162.841             62.389            129.742
 Electronic               0.000              0.000              0.000
 Translational            0.889              2.981             42.690
 Rotational               0.889              2.981             33.113
 Vibrational            161.064             56.427             53.939
 Vibration     1          0.593              1.986              6.720
 Vibration     2          0.595              1.978              4.809
 Vibration     3          0.596              1.977              4.762
 Vibration     4          0.601              1.957              3.694
 Vibration     5          0.606              1.943              3.312
 Vibration     6          0.608              1.936              3.157
 Vibration     7          0.619              1.900              2.642
 Vibration     8          0.630              1.864              2.308
 Vibration     9          0.641              1.829              2.063
 Vibration    10          0.665              1.757              1.707
 Vibration    11          0.669              1.743              1.650
 Vibration    12          0.688              1.686              1.453
 Vibration    13          0.692              1.676              1.423
 Vibration    14          0.716              1.607              1.239
 Vibration    15          0.723              1.588              1.195
 Vibration    16          0.775              1.447              0.924
 Vibration    17          0.792              1.404              0.857
 Vibration    18          0.806              1.369              0.807
 Vibration    19          0.822              1.330              0.754
 Vibration    20          0.846              1.272              0.683
 Vibration    21          0.862              1.234              0.641
 Vibration    22          0.883              1.188              0.592
 Vibration    23          0.907              1.137              0.542
 Vibration    24          0.908              1.134              0.539
 Vibration    25          0.927              1.094              0.502
 Vibration    26          0.940              1.067              0.479
 Vibration    27          0.966              1.016              0.437

 Optimization completed.
    -- Stationary point found.
 Normal termination of Gaussian 16 at Fri Dec 11 22:01:59 2020.

 ----------------------------------------------------------------------
 # B3LYP/6-311++G(d,p) empiricaldispersion=gd3bj scf=xqc pop=npa geom=c
 heck
 ----------------------------------------------------------------------

 ---------------------------------------
 CID_114082405_JID_8943_Energie_neutraal
 ---------------------------------------
 Structure from the checkpoint file:  "JID_8943.chk"
 Charge =  0 Multiplicity = 1

 SCF Done:  E(RB3LYP) =  -1252.51359055     A.U. after   19 cycles
 Normal termination of Gaussian 16 at Fri Dec 11 22:09:14 2020.

 ----------------------------------------------------------------------
 # B3LYP/6-311++G(d,p) empiricaldispersion=gd3bj scf=xqc pop=npa geom=c
 heck
 ----------------------------------------------------------------------

 -------------------------------------
 CID_114082405_JID_8943_Energie_kation
 -------------------------------------
 Structure from the checkpoint file:  "JID_8943.chk"
 Charge =  1 Multiplicity = 2

 SCF Done:  E(UB3LYP) =  -1252.20439180     A.U. after   33 cycles
 SCF Done:  E(UB3LYP) =  -1252.20439180     a.u. after    1 cycles
 Normal termination of Gaussian 16 at Fri Dec 11 22:27:47 2020.
 Gaussian 16:  ES64L-G16RevA.03 25-Dec-2016

 ----------------------------------------------------------------------
 # B3LYP/6-311++G(d,p) empiricaldispersion=gd3bj scf=xqc pop=npa geom=c
 heck
 ----------------------------------------------------------------------

 ------------------------------------
 CID_114082405_JID_8943_Energie_anion
 ------------------------------------
 Structure from the checkpoint file:  "JID_8943.chk"
 Charge = -1 Multiplicity = 2

                         Standard orientation:
 ---------------------------------------------------------------------
 Center     Atomic      Atomic             Coordinates (Angstroms)
 Number     Number       Type             X           Y           Z
 ---------------------------------------------------------------------
      1          6           0        2.299963    1.797028    0.080916
      2          6           0        0.853645    1.789176    0.605083
      3          7           0        0.562488    0.372349    0.943244
      4          6           0        1.830927   -0.169554    1.485677
      5          6           0        2.989387    0.577966    0.751965
      6          6           0        3.761342   -0.364540   -0.176216
      7          8           0        4.821755   -0.863002    0.180937
      8          7           0        3.198674   -0.631603   -1.391318
      9         16           0       -0.151696   -0.552803   -0.275188
     10          8           0        0.211348   -0.061567   -1.617122
     11          8           0        0.098921   -1.962850    0.059099
     12          6           0       -1.902730   -0.283201   -0.047084
     13          6           0       -2.615085   -1.382871    0.326523
     14          7           0       -3.966702   -1.326614    0.466283
     15          6           0       -4.656834   -0.161396    0.219182
     16          6           0       -4.004900    0.962182   -0.160593
     17          6           0       -2.548950    1.010067   -0.322488
     18          8           0       -1.955716    2.039391   -0.647688
     19          1           0        2.301147    1.697775   -1.006559
     20          1           0        2.812520    2.732150    0.322485
     21          1           0        0.767117    2.347124    1.544238
     22          1           0        0.111209    2.173205   -0.092385
     23          1           0        1.861650   -1.253506    1.383682
     24          1           0        1.844616    0.074889    2.552162
     25          1           0        3.726942    0.897124    1.490525
     26          1           0        2.242272   -0.385727   -1.626058
     27          1           0        3.632491   -1.372048   -1.925321
     28          1           0       -2.131624   -2.333159    0.518331
     29          1           0       -4.469174   -2.158214    0.741167
     30          1           0       -5.731583   -0.215194    0.349211
     31          1           0       -4.552734    1.876594   -0.355539
 ---------------------------------------------------------------------

 SCF Done:  E(UB3LYP) =  -1252.52595382     A.U. after   33 cycles
 SCF Done:  E(UB3LYP) =  -1252.52595382     a.u. after    1 cycles

 The electronic state is 2-A.
 Alpha  occ. eigenvalues --  -88.96614 -19.02127 -19.02039 -19.00549 -18.97578
 Alpha  occ. eigenvalues --  -14.27505 -14.25556 -14.24344 -10.19124 -10.14576
 Alpha  occ. eigenvalues --  -10.12952 -10.12319 -10.11882 -10.11443 -10.10776
 Alpha  occ. eigenvalues --  -10.09503 -10.09071 -10.06367  -8.02778  -5.99067
 Alpha  occ. eigenvalues --   -5.99038  -5.98843  -1.02299  -0.95483  -0.91447
 Alpha  occ. eigenvalues --   -0.91098  -0.88370  -0.86103  -0.81854  -0.71756
 Alpha  occ. eigenvalues --   -0.69759  -0.68209  -0.65902  -0.60927  -0.55377
 Alpha  occ. eigenvalues --   -0.53908  -0.52479  -0.50272  -0.49275  -0.47061
 Alpha  occ. eigenvalues --   -0.45919  -0.43299  -0.41435  -0.41292  -0.39580
 Alpha  occ. eigenvalues --   -0.38176  -0.37347  -0.36475  -0.35502  -0.34720
 Alpha  occ. eigenvalues --   -0.34408  -0.33120  -0.33063  -0.30969  -0.30492
 Alpha  occ. eigenvalues --   -0.30144  -0.29642  -0.28367  -0.27351  -0.27089
 Alpha  occ. eigenvalues --   -0.26023  -0.25559  -0.23170  -0.22286  -0.21592
 Alpha  occ. eigenvalues --   -0.19091  -0.18984  -0.17554  -0.16715  -0.14029
 Alpha  occ. eigenvalues --   -0.13214   0.03231
 Alpha virt. eigenvalues --    0.05907   0.06329   0.07521   0.07959   0.08226
 Alpha virt. eigenvalues --    0.08618   0.09554   0.09721   0.10321   0.11029
 Alpha virt. eigenvalues --    0.11831   0.12376   0.12840   0.13103   0.13819

  Beta  occ. eigenvalues --  -88.96609 -19.02094 -19.02035 -19.00547 -18.97586
  Beta  occ. eigenvalues --  -14.27470 -14.25548 -14.24342 -10.19124 -10.14593
  Beta  occ. eigenvalues --  -10.12946 -10.12117 -10.11778 -10.11442 -10.10775
  Beta  occ. eigenvalues --  -10.09503 -10.08942 -10.06232  -8.02772  -5.99057
  Beta  occ. eigenvalues --   -5.99028  -5.98841  -1.02243  -0.95481  -0.91432
  Beta  occ. eigenvalues --   -0.91056  -0.88182  -0.86087  -0.81849  -0.71665
  Beta  occ. eigenvalues --   -0.69548  -0.67910  -0.65897  -0.60813  -0.55152
  Beta  occ. eigenvalues --   -0.53885  -0.52275  -0.50098  -0.49250  -0.46963
  Beta  occ. eigenvalues --   -0.45891  -0.43222  -0.41403  -0.41171  -0.39509
  Beta  occ. eigenvalues --   -0.38144  -0.37273  -0.36368  -0.35460  -0.34610
  Beta  occ. eigenvalues --   -0.34376  -0.33106  -0.32656  -0.30940  -0.30454
  Beta  occ. eigenvalues --   -0.30090  -0.29572  -0.28323  -0.27323  -0.26999
  Beta  occ. eigenvalues --   -0.26005  -0.25534  -0.23093  -0.22220  -0.21477
  Beta  occ. eigenvalues --   -0.19063  -0.18421  -0.17434  -0.16449  -0.13978
  Beta  occ. eigenvalues --   -0.12809
  Beta virt. eigenvalues --    0.06177   0.07307   0.07491   0.07833   0.08025
  Beta virt. eigenvalues --    0.08553   0.09168   0.09620   0.09757   0.10512
  Beta virt. eigenvalues --    0.11209   0.11967   0.12619   0.12891   0.13126

 Mulliken charges and spin densities:
               1          2
     1  C   -0.886263   0.028971
     2  C   -0.372145   0.006012
     3  N    0.098484   0.036334
     4  C   -0.597617  -0.006235
     5  C    0.705766   0.024632
     6  C   -0.176102  -0.013953
     7  O   -0.361446   0.000643
     8  N   -0.389618  -0.000983
     9  S    0.710009  -0.701927
    10  O   -0.006266  -0.001104
    11  O   -0.210540   0.009187
    12  C    0.161319  -0.915256
    13  C   -0.119422   0.539293
    14  N   -0.157990   0.019911
    15  C   -0.156029  -0.307866
    16  C    0.648013  -0.372598
    17  C   -0.033353   0.072906
    18  O   -0.325965  -0.002580
    19  H    0.219801  -0.001829
    20  H    0.139201   0.005057
    21  H    0.161733   0.006458
    22  H    0.275702   0.001941
    23  H    0.250290   0.017840
    24  H    0.145183   0.028035
    25  H    0.280446  -0.004026
    26  H    0.273120   0.001540
    27  H    0.290532   0.001714
    28  H   -0.054137   0.294506
    29  H   -0.812926   1.173715
    30  H   -0.811683   0.988686
    31  H    0.111905   0.070973
 Sum of Mulliken charges =  -1.00000   1.00000

 Dipole moment (field-independent basis, Debye):
    X=              8.6738    Y=              4.8008    Z=              0.0681  Tot=              9.9140
 Quadrupole moment (field-independent basis, Debye-Ang):
   XX=           -223.1980   YY=           -148.2048   ZZ=           -129.3820
   XY=            -11.4093   XZ=              4.4599   YZ=             11.1354

 Summary of Natural Population Analysis:

                                       Natural Population
                Natural  -----------------------------------------------
    Atom  No    Charge         Core      Valence    Rydberg      Total
 -----------------------------------------------------------------------
      C    1   -0.20074      0.99963     2.19491    0.00620     3.20074
      C    2   -0.10120      0.99962     2.09054    0.01104     3.10120
      N    3   -0.36348      0.99975     2.85052    0.01321     3.86348
      C    4   -0.08805      0.99961     2.07777    0.01067     3.08805
      C    5   -0.15779      0.99956     2.14814    0.01009     3.15779
      C    6    0.33947      0.99967     1.63664    0.02421     2.66053
      O    7   -0.32789      0.99988     3.32155    0.00646     4.32789
      N    8   -0.41028      0.99969     2.90289    0.00769     3.91028
      S    9    1.10856      4.99914     1.78946    0.10284     6.89144
      O   10   -0.46807      0.99990     3.46285    0.00531     4.46807
      O   11   -0.47076      0.99991     3.46568    0.00517     4.47076
      C   12   -0.18026      0.99935     2.16595    0.01496     3.18026
      C   13    0.07615      0.99948     1.91088    0.01349     2.92385
      N   14   -0.26271      0.99968     2.75133    0.01171     3.76271
      C   15    0.04068      0.99954     1.94633    0.01345     2.95932
      C   16   -0.13185      0.99953     2.12175    0.01057     3.13185
      C   17    0.22438      0.99954     1.75340    0.02268     2.77562
      O   18   -0.33336      0.99988     3.32748    0.00601     4.33336
      H   19    0.10803      0.00000     0.39091    0.00106     0.39197
      H   20    0.10132      0.00000     0.39777    0.00091     0.39868
      H   21    0.09294      0.00000     0.40603    0.00103     0.40706
      H   22    0.13390      0.00000     0.36472    0.00138     0.36610
      H   23    0.11970      0.00000     0.37894    0.00135     0.38030
      H   24    0.09844      0.00000     0.40049    0.00107     0.40156
      H   25    0.11129      0.00000     0.38776    0.00094     0.38871
      H   26    0.20865      0.00000     0.28906    0.00229     0.29135
      H   27    0.19143      0.00000     0.30616    0.00241     0.30857
      H   28    0.11606      0.00000     0.38263    0.00132     0.38394
      H   29    0.21574      0.00000     0.24132    0.04294     0.28426
      H   30    0.10368      0.00000     0.39376    0.00256     0.39632
      H   31    0.10603      0.00000     0.39305    0.00092     0.39397
 =======================================================================
   * Total *    0.00000     21.99335    48.65068    0.35597    71.00000

 Normal termination of Gaussian 16 at Fri Dec 11 22:46:48 2020.
