 Gaussian 16, Revision A.03,

 -----------------------------------------------------------
 # opt freq B3LYP/6-31G(d) empiricaldispersion=gd3bj scf=xqc
 -----------------------------------------------------------

 ------------------------------
 CID_63880498_JID_7204_neutraal
 ------------------------------
 Symbolic Z-matrix:
 Charge =  0 Multiplicity = 1

 SCF Done:  E(RB3LYP) =  -1069.33330035     A.U. after   15 cycles
 SCF Done:  E(RB3LYP) =  -1069.33795987     A.U. after   13 cycles
 SCF Done:  E(RB3LYP) =  -1069.33809115     A.U. after   13 cycles
 SCF Done:  E(RB3LYP) =  -1069.33875730     A.U. after   12 cycles
 SCF Done:  E(RB3LYP) =  -1069.33876608     A.U. after   10 cycles
 SCF Done:  E(RB3LYP) =  -1069.33879035     A.U. after   11 cycles
 SCF Done:  E(RB3LYP) =  -1069.33879414     A.U. after    9 cycles
 SCF Done:  E(RB3LYP) =  -1069.33879464     A.U. after    8 cycles
 SCF Done:  E(RB3LYP) =  -1069.33879486     A.U. after    7 cycles
 SCF Done:  E(RB3LYP) =  -1069.33879497     A.U. after    7 cycles
 SCF Done:  E(RB3LYP) =  -1069.33879500     A.U. after    7 cycles
 Optimization completed.
    -- Stationary point found.
 Normal termination of Gaussian 16 at Mon Dec 14 16:38:16 2020.

 --------------------------------------------------------------------
 #N Geom=AllCheck Guess=TCheck SCRF=Check GenChk RB3LYP/6-31G(d) Freq
 --------------------------------------------------------------------

 Structure from the checkpoint file:  "JID_7204.chk"
 ------------------------------
 CID_63880498_JID_7204_neutraal
 ------------------------------
 Charge =  0 Multiplicity = 1

 SCF Done:  E(RB3LYP) =  -1069.33879500     A.U. after    1 cycles

  Exact polarizability: 230.779  -5.150 160.428   7.650  11.491 123.204
 Approx polarizability: 332.017   2.976 260.959  22.576  30.171 197.896

                      1                      2                      3
                      A                      A                      A
 Frequencies --     23.5176                37.1738                45.7909
 Red. masses --      4.4408                 6.3581                 4.1807
 Frc consts  --      0.0014                 0.0052                 0.0052
 IR Inten    --      0.1940                 3.8984                 1.5136

                      4                      5                      6
                      A                      A                      A
 Frequencies --     71.9763               111.6342               134.0709
 Red. masses --      5.2245                 3.3431                 5.0331
 Frc consts  --      0.0159                 0.0245                 0.0533
 IR Inten    --      0.9453                 0.5660                 3.4520

                      7                      8                      9
                      A                      A                      A
 Frequencies --    155.5397               181.3372               220.6582
 Red. masses --      4.3266                 2.8043                 1.2838
 Frc consts  --      0.0617                 0.0543                 0.0368
 IR Inten    --      0.4802                 0.8310                 0.9840

                     10                     11                     12
                      A                      A                      A
 Frequencies --    232.6057               249.9293               290.7833
 Red. masses --      3.0783                 2.4573                 3.7700
 Frc consts  --      0.0981                 0.0904                 0.1878
 IR Inten    --      2.5040                 0.2256                 0.4329

                     13                     14                     15
                      A                      A                      A
 Frequencies --    302.0156               351.6826               369.3782
 Red. masses --      3.2477                 2.4734                 2.9479
 Frc consts  --      0.1745                 0.1802                 0.2370
 IR Inten    --      1.5307                 0.5051                11.6530

                     16                     17                     18
                      A                      A                      A
 Frequencies --    388.1428               394.0590               426.8866
 Red. masses --      1.6966                 1.3596                 3.7772
 Frc consts  --      0.1506                 0.1244                 0.4055
 IR Inten    --     39.5093               130.8595                 5.3457

                     19                     20                     21
                      A                      A                      A
 Frequencies --    438.8166               462.8816               482.9168
 Red. masses --      2.7444                 1.9171                 3.0384
 Frc consts  --      0.3114                 0.2420                 0.4175
 IR Inten    --      4.4471                 5.7102                 4.6765

                     22                     23                     24
                      A                      A                      A
 Frequencies --    517.7921               526.2262               556.6120
 Red. masses --      4.5435                 3.2448                 4.0963
 Frc consts  --      0.7177                 0.5294                 0.7477
 IR Inten    --      2.9063                 1.1427                21.5872

                     25                     26                     27
                      A                      A                      A
 Frequencies --    604.9730               616.4798               635.9514
 Red. masses --      1.6310                 1.9711                 2.5336
 Frc consts  --      0.3517                 0.4414                 0.6037
 IR Inten    --      7.5824                 5.4866                26.4201

                     28                     29                     30
                      A                      A                      A
 Frequencies --    701.5000               744.8736               756.6183
 Red. masses --      5.0233                 3.4295                 4.9785
 Frc consts  --      1.4564                 1.1211                 1.6792
 IR Inten    --      6.0099                 2.5677                 7.5929

                     31                     32                     33
                      A                      A                      A
 Frequencies --    778.3395               828.3258               834.1643
 Red. masses --      3.5526                 1.9109                 1.9178
 Frc consts  --      1.2681                 0.7725                 0.7862
 IR Inten    --      2.9990                 3.3429                17.4553

                     34                     35                     36
                      A                      A                      A
 Frequencies --    849.6983               860.5659               886.4343
 Red. masses --      2.5463                 2.4989                 1.8067
 Frc consts  --      1.0832                 1.0904                 0.8364
 IR Inten    --     15.9345                 5.5470                 2.9214

                     37                     38                     39
                      A                      A                      A
 Frequencies --    912.1680               931.1174               940.8645
 Red. masses --      1.4557                 1.6442                 1.8132
 Frc consts  --      0.7136                 0.8399                 0.9457
 IR Inten    --      2.3294                 5.5896                 2.2163

                     40                     41                     42
                      A                      A                      A
 Frequencies --    956.2181               982.0480               987.9516
 Red. masses --      1.9883                 1.9931                 1.3892
 Frc consts  --      1.0712                 1.1325                 0.7989
 IR Inten    --      8.0745                 8.3657                 0.0270

                     43                     44                     45
                      A                      A                      A
 Frequencies --   1001.8038              1014.5376              1030.9300
 Red. masses --      1.8584                 7.2144                 1.5988
 Frc consts  --      1.0989                 4.3751                 1.0012
 IR Inten    --      1.9224                 4.0627                 8.4880

                     46                     47                     48
                      A                      A                      A
 Frequencies --   1053.5334              1087.7925              1100.9069
 Red. masses --      1.9330                 1.8039                 1.7423
 Frc consts  --      1.2641                 1.2576                 1.2441
 IR Inten    --     18.2384                11.6622                 9.6363

                     49                     50                     51
                      A                      A                      A
 Frequencies --   1115.1751              1136.4426              1164.8026
 Red. masses --      2.0996                 1.6025                 1.8316
 Frc consts  --      1.5384                 1.2194                 1.4642
 IR Inten    --     26.9073                 0.0993                 3.5302

                     52                     53                     54
                      A                      A                      A
 Frequencies --   1170.8642              1205.4644              1218.8604
 Red. masses --      1.7593                 1.7367                 1.4900
 Frc consts  --      1.4211                 1.4869                 1.3042
 IR Inten    --      8.9199                 8.7042                15.2324

                     55                     56                     57
                      A                      A                      A
 Frequencies --   1236.5808              1238.8744              1303.2184
 Red. masses --      1.6831                 2.9524                 1.4478
 Frc consts  --      1.5164                 2.6698                 1.4487
 IR Inten    --      7.6335                38.1782                 9.9343

                     58                     59                     60
                      A                      A                      A
 Frequencies --   1309.8157              1327.9845              1334.7490
 Red. masses --      3.4101                 1.5571                 1.4687
 Frc consts  --      3.4470                 1.6179                 1.5417
 IR Inten    --      7.2264                 9.0481                28.9072

                     61                     62                     63
                      A                      A                      A
 Frequencies --   1350.9683              1358.7713              1377.2988
 Red. masses --      1.7205                 1.9088                 1.3999
 Frc consts  --      1.8501                 2.0763                 1.5646
 IR Inten    --     71.3614                52.4295                 0.7848

                     64                     65                     66
                      A                      A                      A
 Frequencies --   1382.3957              1385.8824              1391.9664
 Red. masses --      1.7096                 3.5228                 1.3750
 Frc consts  --      1.9250                 3.9865                 1.5697
 IR Inten    --      2.6938               113.0518                 3.8548

                     67                     68                     69
                      A                      A                      A
 Frequencies --   1397.8086              1404.0190              1413.1289
 Red. masses --      1.3264                 1.3180                 1.3203
 Frc consts  --      1.5270                 1.5308                 1.5534
 IR Inten    --     26.9130                 3.1733                 6.0296

                     70                     71                     72
                      A                      A                      A
 Frequencies --   1435.0143              1444.2978              1449.2698
 Red. masses --      1.2614                 1.5092                 2.4143
 Frc consts  --      1.5305                 1.8549                 2.9878
 IR Inten    --      6.4292                25.7502                 4.1448

                     73                     74                     75
                      A                      A                      A
 Frequencies --   1499.7149              1510.8363              1511.5955
 Red. masses --      1.1130                 1.1072                 1.0882
 Frc consts  --      1.4749                 1.4890                 1.4649
 IR Inten    --     11.5324                 6.2865                 0.4765

                     76                     77                     78
                      A                      A                      A
 Frequencies --   1514.9556              1520.5953              1528.8014
 Red. masses --      1.0847                 2.0912                 1.0856
 Frc consts  --      1.4668                 2.8489                 1.4950
 IR Inten    --      1.6399                 9.2289                 7.4934

                     79                     80                     81
                      A                      A                      A
 Frequencies --   1533.6318              1539.4551              1620.7698
 Red. masses --      1.0740                 1.0765                 6.7545
 Frc consts  --      1.4883                 1.5031                10.4540
 IR Inten    --      2.4687                 6.0163                22.3529

                     82                     83                     84
                      A                      A                      A
 Frequencies --   1641.7568              1657.9685              3014.8549
 Red. masses --      4.6202                 1.2794                 1.0688
 Frc consts  --      7.3371                 2.0721                 5.7240
 IR Inten    --     57.0040               121.4451                44.9987

                     85                     86                     87
                      A                      A                      A
 Frequencies --   3036.4208              3038.8646              3040.5042
 Red. masses --      1.0636                 1.0631                 1.0617
 Frc consts  --      5.7777                 5.7841                 5.7831
 IR Inten    --     19.0985                19.6716                39.7965

                     88                     89                     90
                      A                      A                      A
 Frequencies --   3045.6212              3053.4637              3059.6391
 Red. masses --      1.0684                 1.0645                 1.0484
 Frc consts  --      5.8392                 5.8476                 5.7824
 IR Inten    --     30.1179                28.8087                33.5975

                     91                     92                     93
                      A                      A                      A
 Frequencies --   3076.2185              3079.7331              3085.4323
 Red. masses --      1.0956                 1.0970                 1.1043
 Frc consts  --      6.1086                 6.1304                 6.1942
 IR Inten    --     32.4659                33.0182                38.6738

                     94                     95                     96
                      A                      A                      A
 Frequencies --   3088.4354              3096.6072              3123.0479
 Red. masses --      1.1024                 1.1021                 1.1005
 Frc consts  --      6.1953                 6.2266                 6.3244
 IR Inten    --     24.7677                99.7311                35.8009

                     97                     98                     99
                      A                      A                      A
 Frequencies --   3136.1477              3173.7990              3194.7831
 Red. masses --      1.1028                 1.0884                 1.0900
 Frc consts  --      6.3906                 6.4595                 6.5551
 IR Inten    --     27.8106                19.2933                 7.1532

                    100                    101                    102
                      A                      A                      A
 Frequencies --   3197.8846              3557.0370              3683.6153
 Red. masses --      1.0942                 1.0452                 1.1042
 Frc consts  --      6.5928                 7.7916                 8.8278
 IR Inten    --     17.4930                38.9558                42.8775

 - Thermochemistry -
 -------------------
 Temperature   298.150 Kelvin.  Pressure   1.00000 Atm.
 Atom     1 has atomic number  6 and mass  12.00000

 Molecular mass:   249.12997 amu.
 Principal axes and moments of inertia in atomic units:
                           1         2         3
     Eigenvalues --  2031.059887771.618718465.42486
           X            0.99999  -0.00143  -0.00381
           Y            0.00143   1.00000  -0.00071
           Z            0.00381   0.00070   0.99999
 This molecule is an asymmetric top.
 Rotational symmetry number  1.
 Warning -- assumption of classical behavior for rotation
           may cause significant error
 Rotational temperatures (Kelvin)      0.04264     0.01114     0.01023
 Rotational constants (GHZ):           0.88857     0.23222     0.21319
 Zero-point vibrational energy     816368.0 (Joules/Mol)
                                  195.11663 (Kcal/Mol)
 Warning -- explicit consideration of  26 degrees of freedom as
           vibrations may cause significant error
 Vibrational temperatures:     33.84    53.48    65.88   103.56   160.62
          (Kelvin)            192.90   223.79   260.90   317.48   334.67
                              359.59   418.37   434.53   505.99   531.45
                              558.45   566.96   614.19   631.36   665.98
                              694.81   744.99   757.12   800.84   870.42
                              886.98   914.99  1009.30  1071.71  1088.61
                             1119.86  1191.78  1200.18  1222.53  1238.16
                             1275.38  1312.41  1339.67  1353.69  1375.78
                             1412.95  1421.44  1441.37  1459.69  1483.28
                             1515.80  1565.09  1583.96  1604.49  1635.09
                             1675.89  1684.61  1734.39  1753.67  1779.16
                             1782.46  1875.04  1884.53  1910.67  1920.41
                             1943.74  1954.97  1981.63  1988.96  1993.98
                             2002.73  2011.13  2020.07  2033.18  2064.67
                             2078.02  2085.18  2157.76  2173.76  2174.85
                             2179.68  2187.80  2199.60  2206.55  2214.93
                             2331.93  2362.12  2385.45  4337.70  4368.73
                             4372.25  4374.61  4381.97  4393.25  4402.14
                             4425.99  4431.05  4439.25  4443.57  4455.33
                             4493.37  4512.22  4566.39  4596.58  4601.04
                             5117.78  5299.90

 Zero-point correction=                           0.310938 (Hartree/Particle)
 Thermal correction to Energy=                    0.327060
 Thermal correction to Enthalpy=                  0.328004
 Thermal correction to Gibbs Free Energy=         0.266156
 Sum of electronic and zero-point Energies=          -1069.027857
 Sum of electronic and thermal Energies=             -1069.011735
 Sum of electronic and thermal Enthalpies=           -1069.010791
 Sum of electronic and thermal Free Energies=        -1069.072639

                     E (Thermal)             CV                S
                      KCal/Mol        Cal/Mol-Kelvin    Cal/Mol-Kelvin
 Total                  205.233             62.899            130.169
 Electronic               0.000              0.000              0.000
 Translational            0.889              2.981             42.439
 Rotational               0.889              2.981             33.257
 Vibrational            203.456             56.938             54.473
 Vibration     1          0.593              1.985              6.313
 Vibration     2          0.594              1.982              5.404
 Vibration     3          0.595              1.979              4.991
 Vibration     4          0.598              1.967              4.099
 Vibration     5          0.607              1.940              3.240
 Vibration     6          0.613              1.919              2.887
 Vibration     7          0.620              1.896              2.603
 Vibration     8          0.630              1.865              2.315
 Vibration     9          0.647              1.810              1.954
 Vibration    10          0.653              1.791              1.859
 Vibration    11          0.663              1.763              1.731
 Vibration    12          0.687              1.691              1.469
 Vibration    13          0.694              1.670              1.406
 Vibration    14          0.728              1.572              1.159
 Vibration    15          0.742              1.535              1.082
 Vibration    16          0.756              1.496              1.007
 Vibration    17          0.761              1.483              0.985
 Vibration    18          0.789              1.412              0.869
 Vibration    19          0.799              1.386              0.830
 Vibration    20          0.821              1.332              0.758
 Vibration    21          0.839              1.288              0.702
 Vibration    22          0.873              1.211              0.615
 Vibration    23          0.881              1.192              0.596
 Vibration    24          0.912              1.125              0.531
 Vibration    25          0.964              1.021              0.441
 Vibration    26          0.976              0.997              0.422

                           ! Non-Optimized Parameters !
 Normal termination of Gaussian 16 at Mon Dec 14 16:53:53 2020.

 ----------------------------------------------------------------------
 # B3LYP/6-311++G(d,p) empiricaldispersion=gd3bj scf=xqc pop=npa geom=c
 heck
 ----------------------------------------------------------------------

 --------------------------------------
 CID_63880498_JID_7204_Energie_neutraal
 --------------------------------------
 Structure from the checkpoint file:  "JID_7204.chk"
 Charge =  0 Multiplicity = 1

 SCF Done:  E(RB3LYP) =  -1069.54512677     A.U. after   16 cycles
 Normal termination of Gaussian 16 at Mon Dec 14 17:02:19 2020.

 ----------------------------------------------------------------------
 # B3LYP/6-311++G(d,p) empiricaldispersion=gd3bj scf=xqc pop=npa geom=c
 heck
 ----------------------------------------------------------------------

 ------------------------------------
 CID_63880498_JID_7204_Energie_kation
 ------------------------------------
 Structure from the checkpoint file:  "JID_7204.chk"
 Charge =  1 Multiplicity = 2

 SCF Done:  E(UB3LYP) =  -1069.27461603     A.U. after   29 cycles
 Normal termination of Gaussian 16 at Mon Dec 14 17:25:25 2020.
 Gaussian 16:  ES64L-G16RevA.03 25-Dec-2016

 ----------------------------------------------------------------------
 # B3LYP/6-311++G(d,p) empiricaldispersion=gd3bj scf=xqc pop=npa geom=c
 heck
 ----------------------------------------------------------------------

 -----------------------------------
 CID_63880498_JID_7204_Energie_anion
 -----------------------------------
 Structure from the checkpoint file:  "JID_7204.chk"
 Charge = -1 Multiplicity = 2

                         Standard orientation:
 ---------------------------------------------------------------------
 Center     Atomic      Atomic             Coordinates (Angstroms)
 Number     Number       Type             X           Y           Z
 ---------------------------------------------------------------------
      1          6           0       -4.654570    0.261616   -0.097824
      2          6           0       -3.160208    0.578665    0.061678
      3          6           0       -2.621857    0.156045    1.448041
      4          6           0       -2.462387   -1.365885    1.563884
      5          6           0       -1.582632   -1.891907    0.423493
      6          6           0       -2.151270   -1.443280   -0.934034
      7          7           0       -2.401233   -0.008581   -1.054811
      8          6           0       -1.341641    0.804814   -1.635890
      9          6           0       -0.093516    1.027643   -0.793436
     10          6           0        0.965987    0.116708   -0.817666
     11          6           0        2.073762    0.314411    0.015926
     12          7           0        2.183815    1.364818    0.842748
     13          6           0        1.177703    2.240428    0.853679
     14          6           0        0.031580    2.122044    0.063880
     15          6           0        3.205945   -0.666750   -0.004712
     16         16           0        4.798937   -0.215102   -0.013721
     17          7           0        2.803635   -1.959454   -0.079838
     18          1           0       -5.239271    0.754057    0.687450
     19          1           0       -4.854345   -0.812834   -0.033613
     20          1           0       -5.009425    0.609804   -1.072176
     21          1           0       -3.048450    1.666043   -0.027463
     22          1           0       -1.645151    0.626362    1.610123
     23          1           0       -3.292385    0.532807    2.230480
     24          1           0       -3.445473   -1.854221    1.520668
     25          1           0       -2.028794   -1.625475    2.536722
     26          1           0       -1.523751   -2.987972    0.450167
     27          1           0       -0.564775   -1.502863    0.549495
     28          1           0       -3.101067   -1.973804   -1.096594
     29          1           0       -1.488540   -1.741884   -1.754095
     30          1           0       -1.046611    0.334159   -2.581801
     31          1           0       -1.775073    1.780432   -1.886588
     32          1           0        0.941562   -0.730114   -1.497479
     33          1           0        1.292472    3.085633    1.529923
     34          1           0       -0.748534    2.876571    0.117477
     35          1           0        1.855208   -2.221140    0.156514
     36          1           0        3.514517   -2.678719   -0.058472
 ---------------------------------------------------------------------

 SCF Done:  E(UB3LYP) =  -1069.56075739     A.U. after   29 cycles

 The electronic state is 2-A.
 Alpha  occ. eigenvalues --  -88.63175 -14.20133 -14.19668 -14.15440 -10.10884
 Alpha  occ. eigenvalues --  -10.10046 -10.09377 -10.08155 -10.07737 -10.07350
 Alpha  occ. eigenvalues --  -10.07042 -10.06935 -10.06867 -10.05784 -10.05340
 Alpha  occ. eigenvalues --  -10.04173 -10.03301  -7.71954  -5.68295  -5.67889
 Alpha  occ. eigenvalues --   -5.67508  -0.83027  -0.80884  -0.78702  -0.70887
 Alpha  occ. eigenvalues --   -0.68151  -0.67586  -0.63272  -0.61667  -0.58086
 Alpha  occ. eigenvalues --   -0.57798  -0.53241  -0.52106  -0.49682  -0.48731
 Alpha  occ. eigenvalues --   -0.44561  -0.43067  -0.40625  -0.39536  -0.37916
 Alpha  occ. eigenvalues --   -0.37303  -0.35922  -0.35383  -0.34531  -0.33461
 Alpha  occ. eigenvalues --   -0.33000  -0.31775  -0.30617  -0.29661  -0.29281
 Alpha  occ. eigenvalues --   -0.27958  -0.27727  -0.26734  -0.26234  -0.25133
 Alpha  occ. eigenvalues --   -0.23989  -0.23433  -0.22959  -0.22532  -0.21915
 Alpha  occ. eigenvalues --   -0.20452  -0.15191  -0.13251  -0.11789  -0.10371
 Alpha  occ. eigenvalues --   -0.08433  -0.05511   0.03825
 Alpha virt. eigenvalues --    0.05766   0.07255   0.07839   0.08093   0.09217
 Alpha virt. eigenvalues --    0.09582   0.09942   0.10199   0.10614   0.10976
 Alpha virt. eigenvalues --    0.11810   0.12529   0.12740   0.12966   0.13385

  Beta  occ. eigenvalues --  -88.63111 -14.20122 -14.19544 -14.15161 -10.10883
  Beta  occ. eigenvalues --  -10.10043 -10.09380 -10.07734 -10.07726 -10.07343
  Beta  occ. eigenvalues --  -10.07038 -10.06943 -10.06932 -10.05577 -10.05274
  Beta  occ. eigenvalues --  -10.04150 -10.03034  -7.71896  -5.68270  -5.67683
  Beta  occ. eigenvalues --   -5.67470  -0.83001  -0.80371  -0.78291  -0.70833
  Beta  occ. eigenvalues --   -0.68102  -0.67339  -0.62791  -0.61600  -0.57736
  Beta  occ. eigenvalues --   -0.57541  -0.53192  -0.52077  -0.49218  -0.48570
  Beta  occ. eigenvalues --   -0.44486  -0.42775  -0.40494  -0.39446  -0.37838
  Beta  occ. eigenvalues --   -0.37223  -0.35862  -0.35320  -0.34376  -0.33224
  Beta  occ. eigenvalues --   -0.32971  -0.31761  -0.30542  -0.29341  -0.29172
  Beta  occ. eigenvalues --   -0.27911  -0.27594  -0.26520  -0.25553  -0.25091
  Beta  occ. eigenvalues --   -0.23853  -0.23186  -0.22858  -0.22351  -0.20816
  Beta  occ. eigenvalues --   -0.19978  -0.14146  -0.12081  -0.11472  -0.10233
  Beta  occ. eigenvalues --   -0.07215  -0.05282
  Beta virt. eigenvalues --    0.05686   0.07195   0.07730   0.08020   0.09157
  Beta virt. eigenvalues --    0.09335   0.09705   0.10031   0.10285   0.10554
  Beta virt. eigenvalues --    0.10928   0.11716   0.12442   0.12723   0.13259

 Mulliken charges and spin densities:
               1          2
     1  C   -0.346519  -0.242688
     2  C   -0.267727   0.151768
     3  C   -0.322102   0.044761
     4  C   -0.373446  -0.183580
     5  C   -0.156252   0.093440
     6  C   -0.251669  -0.091642
     7  N    0.243794   0.000967
     8  C   -0.793958  -0.097726
     9  C    0.991072   0.116542
    10  C    0.039214  -0.038721
    11  C   -0.143656   0.138191
    12  N    0.089575   0.126736
    13  C    0.146423  -0.067027
    14  C   -0.826343   0.235879
    15  C   -0.462976   0.184064
    16  S   -0.805377   0.171350
    17  N   -0.311986   0.072159
    18  H    0.065806   0.054679
    19  H    0.101331   0.037251
    20  H    0.118235   0.039911
    21  H    0.154176   0.017620
    22  H    0.201698   0.000910
    23  H    0.141517   0.000864
    24  H    0.098018   0.017464
    25  H    0.143941   0.016765
    26  H    0.118564   0.029590
    27  H    0.086450   0.011564
    28  H    0.069105   0.055248
    29  H    0.147762   0.004534
    30  H    0.131172   0.015008
    31  H    0.106662   0.061076
    32  H    0.139231   0.016474
    33  H    0.147953   0.005189
    34  H    0.070754   0.002655
    35  H    0.256768  -0.000506
    36  H    0.252792  -0.000766
 Sum of Mulliken charges =  -1.00000   1.00000

 Dipole moment (field-independent basis, Debye):
    X=            -12.6923    Y=             -2.6319    Z=             -0.0264  Tot=             12.9624
 Quadrupole moment (field-independent basis, Debye-Ang):
   XX=           -205.2727   YY=           -121.7674   ZZ=           -125.4555
   XY=             -4.6232   XZ=             -4.5217   YZ=              0.2283

 Summary of Natural Population Analysis:

                                       Natural Population
                Natural  -----------------------------------------------
    Atom  No    Charge         Core      Valence    Rydberg      Total
 -----------------------------------------------------------------------
      C    1   -0.28816      0.99965     2.28308    0.00543     3.28816
      C    2   -0.00467      0.99960     1.99174    0.01333     3.00467
      C    3   -0.20124      0.99961     2.19378    0.00786     3.20124
      C    4   -0.19006      0.99963     2.18279    0.00764     3.19006
      C    5   -0.20364      0.99963     2.19647    0.00754     3.20364
      C    6   -0.08194      0.99962     2.07218    0.01014     3.08194
      N    7   -0.28596      0.99971     2.77146    0.01479     3.78596
      C    8   -0.08500      0.99958     2.07244    0.01298     3.08500
      C    9   -0.01251      0.99949     2.00276    0.01026     3.01251
      C   10   -0.11919      0.99947     2.11068    0.00904     3.11919
      C   11    0.10723      0.99946     1.87747    0.01584     2.89277
      N   12   -0.17929      0.99968     2.66946    0.01014     3.67929
      C   13    0.00993      0.99960     1.97698    0.01349     2.99007
      C   14   -0.08628      0.99950     2.07909    0.00769     3.08628
      C   15    0.11264      0.99962     1.86722    0.02052     2.88736
      S   16   -0.10110      4.99952     3.08648    0.01510     8.10110
      N   17   -0.37810      0.99968     2.86732    0.01110     3.87810
      H   18    0.09424      0.00000     0.40482    0.00093     0.40576
      H   19    0.09518      0.00000     0.40378    0.00104     0.40482
      H   20    0.10071      0.00000     0.39782    0.00147     0.39929
      H   21    0.09608      0.00000     0.40222    0.00170     0.40392
      H   22    0.11122      0.00000     0.38758    0.00121     0.38878
      H   23    0.09315      0.00000     0.40589    0.00096     0.40685
      H   24    0.08823      0.00000     0.41032    0.00145     0.41177
      H   25    0.09860      0.00000     0.40033    0.00107     0.40140
      H   26    0.09222      0.00000     0.40608    0.00170     0.40778
      H   27    0.10477      0.00000     0.39336    0.00187     0.39523
      H   28    0.08534      0.00000     0.41333    0.00133     0.41466
      H   29    0.09735      0.00000     0.40173    0.00092     0.40265
      H   30    0.09475      0.00000     0.40429    0.00096     0.40525
      H   31    0.09456      0.00000     0.40436    0.00108     0.40544
      H   32    0.09775      0.00000     0.40091    0.00134     0.40225
      H   33    0.07989      0.00000     0.41841    0.00170     0.42011
      H   34    0.08955      0.00000     0.40871    0.00174     0.41045
      H   35    0.18502      0.00000     0.31355    0.00143     0.31498
      H   36    0.18873      0.00000     0.30879    0.00248     0.31127
 =======================================================================
   * Total *    0.00000     20.99305    45.78770    0.21925    67.00000

 Normal termination of Gaussian 16 at Mon Dec 14 17:47:49 2020.
