 Gaussian 16, Revision A.03,

 -----------------------------------------------------------
 # opt freq B3LYP/6-31G(d) empiricaldispersion=gd3bj scf=xqc
 -----------------------------------------------------------

 ------------------------------
 CID_2532045_JID_10796_neutraal
 ------------------------------
 Symbolic Z-matrix:
 Charge =  0 Multiplicity = 1

 SCF Done:  E(RB3LYP) =  -1952.15414878     A.U. after   17 cycles
 SCF Done:  E(RB3LYP) =  -1952.16051559     A.U. after   15 cycles
 SCF Done:  E(RB3LYP) =  -1952.15875082     A.U. after   16 cycles
 SCF Done:  E(RB3LYP) =  -1952.16261873     A.U. after   13 cycles
 SCF Done:  E(RB3LYP) =  -1952.16615861     A.U. after   15 cycles
 SCF Done:  E(RB3LYP) =  -1952.16711364     A.U. after   13 cycles
 SCF Done:  E(RB3LYP) =  -1952.16740469     A.U. after   13 cycles
 SCF Done:  E(RB3LYP) =  -1952.16746117     A.U. after   12 cycles
 SCF Done:  E(RB3LYP) =  -1952.16752788     A.U. after   11 cycles
 SCF Done:  E(RB3LYP) =  -1952.16754091     A.U. after   10 cycles
 SCF Done:  E(RB3LYP) =  -1952.16754226     A.U. after    9 cycles
 SCF Done:  E(RB3LYP) =  -1952.16754289     A.U. after    8 cycles
 Optimization completed.
    -- Stationary point found.
 Normal termination of Gaussian 16 at Sat Dec 12 16:28:27 2020.

 --------------------------------------------------------------------
 #N Geom=AllCheck Guess=TCheck SCRF=Check GenChk RB3LYP/6-31G(d) Freq
 --------------------------------------------------------------------

 Structure from the checkpoint file:  "JID_10796.chk"
 ------------------------------
 CID_2532045_JID_10796_neutraal
 ------------------------------
 Charge =  0 Multiplicity = 1

 SCF Done:  E(RB3LYP) =  -1952.16754289     A.U. after    1 cycles

  Exact polarizability: 309.423 -14.631 204.846   0.169   7.744 118.880
 Approx polarizability: 421.888 -34.287 393.184   6.432  32.778 216.519

                      1                      2                      3
                      A                      A                      A
 Frequencies --     20.3703                39.9160                51.4433
 Red. masses --      9.1968                 9.8300                 7.5871
 Frc consts  --      0.0022                 0.0092                 0.0118
 IR Inten    --      1.1088                 0.8105                 0.8193

                      4                      5                      6
                      A                      A                      A
 Frequencies --     68.8830               104.9816               120.0378
 Red. masses --      8.2000                 7.7799                 3.4149
 Frc consts  --      0.0229                 0.0505                 0.0290
 IR Inten    --      3.0153                 3.4429                 0.1979

                      7                      8                      9
                      A                      A                      A
 Frequencies --    129.8292               148.0672               188.4015
 Red. masses --      9.3414                 2.2674                 5.1903
 Frc consts  --      0.0928                 0.0293                 0.1085
 IR Inten    --      1.5045                 1.5225                 7.3931

                     10                     11                     12
                      A                      A                      A
 Frequencies --    199.6380               217.2142               226.4523
 Red. masses --      8.1643                 4.3311                 7.0001
 Frc consts  --      0.1917                 0.1204                 0.2115
 IR Inten    --      3.5606                 0.3142                 1.3328

                     13                     14                     15
                      A                      A                      A
 Frequencies --    229.4118               270.8916               339.7148
 Red. masses --      4.7984                 5.1833                 3.2155
 Frc consts  --      0.1488                 0.2241                 0.2186
 IR Inten    --      2.2323                 2.0420                 1.1931

                     16                     17                     18
                      A                      A                      A
 Frequencies --    358.1210               381.0925               424.7488
 Red. masses --      8.1645                 7.3804                 6.2536
 Frc consts  --      0.6169                 0.6315                 0.6647
 IR Inten    --      4.9765                 2.2382                 5.3192

                     19                     20                     21
                      A                      A                      A
 Frequencies --    438.9214               454.8076               531.3114
 Red. masses --      9.2818                10.9521                 8.0054
 Frc consts  --      1.0536                 1.3348                 1.3315
 IR Inten    --      2.8487                 0.1405                 2.4058

                     22                     23                     24
                      A                      A                      A
 Frequencies --    535.9825               549.4090               584.9986
 Red. masses --      7.2693                 6.7050                 6.7274
 Frc consts  --      1.2304                 1.1925                 1.3565
 IR Inten    --      0.6076                 4.1132                 1.6103

                     25                     26                     27
                      A                      A                      A
 Frequencies --    606.9058               615.0337               621.1662
 Red. masses --      6.2278                12.5037                 4.9625
 Frc consts  --      1.3515                 2.7867                 1.1281
 IR Inten    --      9.0005                 1.6727                24.9907

                     28                     29                     30
                      A                      A                      A
 Frequencies --    627.5345               654.0119               665.6198
 Red. masses --      5.5460                13.5543                 3.3259
 Frc consts  --      1.2868                 3.4158                 0.8682
 IR Inten    --      0.2080                 0.3781                25.6743

                     31                     32                     33
                      A                      A                      A
 Frequencies --    696.4441               732.2825               743.4319
 Red. masses --      3.2698                 9.8001                 6.7174
 Frc consts  --      0.9344                 3.0963                 2.1874
 IR Inten    --     10.4807                16.1544                 3.3151

                     34                     35                     36
                      A                      A                      A
 Frequencies --    784.3978               806.1937               840.7796
 Red. masses --      9.8136                 1.2066                 2.2628
 Frc consts  --      3.5576                 0.4620                 0.9425
 IR Inten    --      4.8680                20.1536                 2.6045

                     37                     38                     39
                      A                      A                      A
 Frequencies --    869.1652               876.3027               900.0623
 Red. masses --      1.6201                 2.2245                 3.0908
 Frc consts  --      0.7211                 1.0065                 1.4752
 IR Inten    --     70.8246                42.7669                21.7634

                     40                     41                     42
                      A                      A                      A
 Frequencies --    905.0793               910.0665               911.5240
 Red. masses --      3.5232                 2.5153                 1.6813
 Frc consts  --      1.7005                 1.2274                 0.8231
 IR Inten    --      7.4740                 4.8228                 1.5705

                     43                     44                     45
                      A                      A                      A
 Frequencies --    928.5390              1010.0575              1041.5780
 Red. masses --      3.7117                 2.2632                 5.1599
 Frc consts  --      1.8855                 1.3604                 3.2982
 IR Inten    --      4.9553                 1.0201                13.8162

                     46                     47                     48
                      A                      A                      A
 Frequencies --   1046.2321              1065.8867              1073.0495
 Red. masses --      8.3009                 2.8381                 2.5166
 Frc consts  --      5.3534                 1.8998                 1.7073
 IR Inten    --     23.3282                 0.9174                11.9604

                     49                     50                     51
                      A                      A                      A
 Frequencies --   1089.6268              1166.8405              1181.0738
 Red. masses --      7.3216                 1.2487                 3.1250
 Frc consts  --      5.1216                 1.0017                 2.5684
 IR Inten    --    132.3852                 5.6207                 8.3174

                     52                     53                     54
                      A                      A                      A
 Frequencies --   1192.5821              1208.6129              1233.5458
 Red. masses --      1.6615                 1.7642                 1.6469
 Frc consts  --      1.3923                 1.5184                 1.4765
 IR Inten    --      1.5173                40.7549                13.7836

                     55                     56                     57
                      A                      A                      A
 Frequencies --   1236.3958              1262.8669              1284.4704
 Red. masses --      1.2512                 1.4262                 1.5171
 Frc consts  --      1.1269                 1.3401                 1.4747
 IR Inten    --      3.8858                 0.7662                 3.2752

                     58                     59                     60
                      A                      A                      A
 Frequencies --   1305.2001              1323.8143              1333.1663
 Red. masses --      1.6455                 1.6870                 1.4644
 Frc consts  --      1.6516                 1.7419                 1.5334
 IR Inten    --    129.4700                 3.2424                 2.7555

                     61                     62                     63
                      A                      A                      A
 Frequencies --   1350.7624              1371.3156              1422.8660
 Red. masses --      1.8027                 3.0595                 7.7499
 Frc consts  --      1.9379                 3.3898                 9.2443
 IR Inten    --     30.2089                21.2994                41.7924

                     64                     65                     66
                      A                      A                      A
 Frequencies --   1459.9495              1468.5343              1496.0170
 Red. masses --      5.0061                 1.1836                 8.5646
 Frc consts  --      6.2868                 1.5040                11.2935
 IR Inten    --      4.4283                27.4274                15.8054

                     67                     68                     69
                      A                      A                      A
 Frequencies --   1509.5494              1514.9035              1519.4069
 Red. masses --      1.3383                 3.6199                 1.0952
 Frc consts  --      1.7967                 4.8946                 1.4896
 IR Inten    --      1.6541                 5.2899                 0.9632

                     70                     71                     72
                      A                      A                      A
 Frequencies --   1534.7792              1547.3639              1595.7644
 Red. masses --      1.1960                 2.7699                 5.4732
 Frc consts  --      1.6598                 3.9075                 8.2117
 IR Inten    --      0.3636                24.0146                40.2856

                     73                     74                     75
                      A                      A                      A
 Frequencies --   1630.4526              1799.0353              3031.5234
 Red. masses --      5.6564                 9.1693                 1.0685
 Frc consts  --      8.8595                17.4851                 5.7854
 IR Inten    --    273.1672               415.7950                53.1595

                     76                     77                     78
                      A                      A                      A
 Frequencies --   3046.4786              3071.6695              3086.4343
 Red. masses --      1.0709                 1.0703                 1.0873
 Frc consts  --      5.8557                 5.9501                 6.1025
 IR Inten    --     25.5057                17.7369                51.4198

                     79                     80                     81
                      A                      A                      A
 Frequencies --   3109.3486              3111.0878              3125.7744
 Red. masses --      1.0923                 1.0599                 1.1050
 Frc consts  --      6.2218                 6.0445                 6.3613
 IR Inten    --     17.4579                 1.5173                40.8683

                     82                     83                     84
                      A                      A                      A
 Frequencies --   3182.3689              3270.0488              3420.4646
 Red. masses --      1.1071                 1.0952                 1.0810
 Frc consts  --      6.6058                 6.9003                 7.4513
 IR Inten    --      0.5568                 1.8011               586.1785

 - Thermochemistry -
 -------------------
 Temperature   298.150 Kelvin.  Pressure   1.00000 Atm.
 Atom     1 has atomic number  6 and mass  12.00000

 Molecular mass:   322.00168 amu.
 Principal axes and moments of inertia in atomic units:
                           1         2         3
     Eigenvalues --  2697.82549********************
           X            0.99994   0.00964  -0.00582
           Y           -0.00974   0.99981  -0.01680
           Z            0.00566   0.01686   0.99984
 This molecule is an asymmetric top.
 Rotational symmetry number  1.
 Warning -- assumption of classical behavior for rotation
           may cause significant error
 Rotational temperatures (Kelvin)      0.03211     0.00602     0.00532
 Rotational constants (GHZ):           0.66896     0.12536     0.11087
 Zero-point vibrational energy     562484.6 (Joules/Mol)
                                  134.43705 (Kcal/Mol)
 Warning -- explicit consideration of  26 degrees of freedom as
           vibrations may cause significant error
 Vibrational temperatures:     29.31    57.43    74.02    99.11   151.05
          (Kelvin)            172.71   186.80   213.04   271.07   287.23
                              312.52   325.81   330.07   389.75   488.77
                              515.26   548.31   611.12   631.51   654.37
                              764.44   771.16   790.48   841.68   873.20
                              884.90   893.72   902.88   940.98   957.68
                             1002.03  1053.59  1069.63  1128.57  1159.93
                             1209.69  1250.53  1260.80  1294.99  1302.21
                             1309.38  1311.48  1335.96  1453.25  1498.60
                             1505.29  1533.57  1543.88  1567.73  1678.82
                             1699.30  1715.86  1738.92  1774.80  1778.90
                             1816.98  1848.07  1877.89  1904.67  1918.13
                             1943.45  1973.02  2047.19  2100.54  2112.89
                             2152.43  2171.90  2179.61  2186.09  2208.20
                             2226.31  2295.95  2345.86  2588.41  4361.69
                             4383.20  4419.45  4440.69  4473.66  4476.16
                             4497.29  4578.72  4704.87  4921.29

 Zero-point correction=                           0.214239 (Hartree/Particle)
 Thermal correction to Energy=                    0.231187
 Thermal correction to Enthalpy=                  0.232131
 Thermal correction to Gibbs Free Energy=         0.167264
 Sum of electronic and zero-point Energies=          -1951.953304
 Sum of electronic and thermal Energies=             -1951.936356
 Sum of electronic and thermal Enthalpies=           -1951.935412
 Sum of electronic and thermal Free Energies=        -1952.000279

                     E (Thermal)             CV                S
                      KCal/Mol        Cal/Mol-Kelvin    Cal/Mol-Kelvin
 Total                  145.072             64.289            136.525
 Electronic               0.000              0.000              0.000
 Translational            0.889              2.981             43.204
 Rotational               0.889              2.981             34.802
 Vibrational            143.295             58.327             58.520
 Vibration     1          0.593              1.986              6.598
 Vibration     2          0.594              1.981              5.263
 Vibration     3          0.596              1.977              4.761
 Vibration     4          0.598              1.969              4.185
 Vibration     5          0.605              1.945              3.360
 Vibration     6          0.609              1.933              3.100
 Vibration     7          0.612              1.923              2.949
 Vibration     8          0.617              1.905              2.697
 Vibration     9          0.633              1.856              2.243
 Vibration    10          0.638              1.840              2.136
 Vibration    11          0.646              1.815              1.982
 Vibration    12          0.650              1.801              1.907
 Vibration    13          0.652              1.796              1.884
 Vibration    14          0.675              1.727              1.591
 Vibration    15          0.720              1.596              1.213
 Vibration    16          0.733              1.559              1.130
 Vibration    17          0.751              1.510              1.035
 Vibration    18          0.787              1.416              0.876
 Vibration    19          0.799              1.385              0.830
 Vibration    20          0.813              1.350              0.781
 Vibration    21          0.886              1.181              0.584
 Vibration    22          0.891              1.170              0.574
 Vibration    23          0.905              1.141              0.545
 Vibration    24          0.942              1.064              0.476
 Vibration    25          0.966              1.017              0.438
 Vibration    26          0.975              1.000              0.425

                           ! Non-Optimized Parameters !
 Normal termination of Gaussian 16 at Sat Dec 12 16:41:30 2020.

 ----------------------------------------------------------------------
 # B3LYP/6-311++G(d,p) empiricaldispersion=gd3bj scf=xqc pop=npa geom=c
 heck
 ----------------------------------------------------------------------

 --------------------------------------
 CID_2532045_JID_10796_Energie_neutraal
 --------------------------------------
 Structure from the checkpoint file:  "JID_10796.chk"
 Charge =  0 Multiplicity = 1

 SCF Done:  E(RB3LYP) =  -1952.44379484     A.U. after   17 cycles
 Normal termination of Gaussian 16 at Sat Dec 12 16:46:53 2020.

 ----------------------------------------------------------------------
 # B3LYP/6-311++G(d,p) empiricaldispersion=gd3bj scf=xqc pop=npa geom=c
 heck
 ----------------------------------------------------------------------

 ------------------------------------
 CID_2532045_JID_10796_Energie_kation
 ------------------------------------
 Structure from the checkpoint file:  "JID_10796.chk"
 Charge =  1 Multiplicity = 2

 SCF Done:  E(UB3LYP) =  -1952.16845250     A.U. after   28 cycles
 Normal termination of Gaussian 16 at Sat Dec 12 16:59:23 2020.
 Gaussian 16:  ES64L-G16RevA.03 25-Dec-2016

 ----------------------------------------------------------------------
 # B3LYP/6-311++G(d,p) empiricaldispersion=gd3bj scf=xqc pop=npa geom=c
 heck
 ----------------------------------------------------------------------

 -----------------------------------
 CID_2532045_JID_10796_Energie_anion
 -----------------------------------
 Structure from the checkpoint file:  "JID_10796.chk"
 Charge = -1 Multiplicity = 2

                         Standard orientation:
 ---------------------------------------------------------------------
 Center     Atomic      Atomic             Coordinates (Angstroms)
 Number     Number       Type             X           Y           Z
 ---------------------------------------------------------------------
      1          6           0        5.373314    1.629234   -0.756856
      2          6           0        4.006572    2.038190   -0.128335
      3          6           0        3.283710    0.721274   -0.049173
      4          6           0        4.136678   -0.324556   -0.253550
      5          6           0        5.557059    0.101785   -0.490277
      6         16           0        3.363668   -1.883017   -0.107012
      7          6           0        1.828011   -1.091766    0.232725
      8          6           0        1.952531    0.299425    0.233102
      9          6           0        0.774645    1.105221    0.489341
     10          8           0        0.699237    2.325643    0.516257
     11          7           0       -0.361500    0.297423    0.723787
     12          6           0       -0.371229   -1.067768    0.685030
     13          7           0        0.685337   -1.798583    0.447089
     14          6           0       -1.678577   -1.761098    0.932078
     15         16           0       -2.851953   -1.701867   -0.501043
     16          6           0       -3.657480   -0.175425   -0.185932
     17          7           0       -3.260616    0.728549    0.674080
     18          7           0       -4.082907    1.825371    0.726787
     19          6           0       -5.077577    1.739105   -0.098856
     20         16           0       -5.125491    0.263564   -1.038989
     21          1           0        6.207981    2.217786   -0.365816
     22          1           0        5.332526    1.794579   -1.838510
     23          1           0        4.130358    2.468920    0.874202
     24          1           0        3.471787    2.784188   -0.723354
     25          1           0        6.177436   -0.085062    0.397713
     26          1           0        6.039156   -0.410642   -1.330234
     27          1           0       -1.249315    0.781254    0.884930
     28          1           0       -1.477242   -2.822665    1.078296
     29          1           0       -2.207889   -1.356344    1.797675
     30          1           0       -5.826408    2.512925   -0.210222
 ---------------------------------------------------------------------

 SCF Done:  E(UB3LYP) =  -1952.46144325     A.U. after   31 cycles

 The electronic state is 2-A.
 Alpha  occ. eigenvalues --  -88.77716 -88.75871 -88.75039 -18.96694 -14.23433
 Alpha  occ. eigenvalues --  -14.22683 -14.22631 -14.18917 -10.15620 -10.14044
 Alpha  occ. eigenvalues --  -10.12484 -10.11920 -10.11353 -10.09725 -10.08863
 Alpha  occ. eigenvalues --  -10.08446 -10.07915 -10.07600 -10.06569 -10.05571
 Alpha  occ. eigenvalues --   -7.86380  -7.84498  -7.83652  -5.82655  -5.82327
 Alpha  occ. eigenvalues --   -5.81968  -5.80794  -5.80460  -5.80060  -5.80055
 Alpha  occ. eigenvalues --   -5.79646  -5.79061  -0.92107  -0.91854  -0.86429
 Alpha  occ. eigenvalues --   -0.78913  -0.76503  -0.73846  -0.70939  -0.69989
 Alpha  occ. eigenvalues --   -0.67422  -0.64811  -0.61099  -0.59514  -0.56954
 Alpha  occ. eigenvalues --   -0.51481  -0.50828  -0.50516  -0.48498  -0.44913
 Alpha  occ. eigenvalues --   -0.44018  -0.41297  -0.39153  -0.38445  -0.38003
 Alpha  occ. eigenvalues --   -0.37402  -0.33990  -0.33519  -0.33254  -0.32838
 Alpha  occ. eigenvalues --   -0.31647  -0.31230  -0.30342  -0.28934  -0.27734
 Alpha  occ. eigenvalues --   -0.27514  -0.27150  -0.25962  -0.25783  -0.25493
 Alpha  occ. eigenvalues --   -0.24539  -0.23396  -0.21963  -0.20938  -0.19825
 Alpha  occ. eigenvalues --   -0.18955  -0.16859  -0.16612  -0.16185  -0.14340
 Alpha  occ. eigenvalues --   -0.14134  -0.12443  -0.09652   0.03140
 Alpha virt. eigenvalues --    0.05530   0.06693   0.07651   0.08720   0.09025
 Alpha virt. eigenvalues --    0.09230   0.09484   0.10313   0.10823   0.10860
 Alpha virt. eigenvalues --    0.11158   0.11377   0.11642   0.12062   0.12598

  Beta  occ. eigenvalues --  -88.77679 -88.75850 -88.74974 -18.96705 -14.23431
  Beta  occ. eigenvalues --  -14.22625 -14.22551 -14.18953 -10.15637 -10.13732
  Beta  occ. eigenvalues --  -10.12157 -10.11711 -10.11212 -10.09646 -10.08873
  Beta  occ. eigenvalues --  -10.08446 -10.07783 -10.07596 -10.06618 -10.05461
  Beta  occ. eigenvalues --   -7.86344  -7.84479  -7.83584  -5.82642  -5.82313
  Beta  occ. eigenvalues --   -5.81845  -5.80787  -5.80453  -5.79984  -5.79966
  Beta  occ. eigenvalues --   -5.79572  -5.78972  -0.92045  -0.91712  -0.86176
  Beta  occ. eigenvalues --   -0.78711  -0.76377  -0.73479  -0.70809  -0.69736
  Beta  occ. eigenvalues --   -0.67160  -0.64655  -0.60873  -0.59384  -0.56727
  Beta  occ. eigenvalues --   -0.51346  -0.50524  -0.50235  -0.48424  -0.44591
  Beta  occ. eigenvalues --   -0.43873  -0.41205  -0.39009  -0.38245  -0.37902
  Beta  occ. eigenvalues --   -0.37164  -0.33615  -0.33345  -0.32818  -0.32298
  Beta  occ. eigenvalues --   -0.31395  -0.31141  -0.30261  -0.28728  -0.27638
  Beta  occ. eigenvalues --   -0.27362  -0.26930  -0.25769  -0.25607  -0.25418
  Beta  occ. eigenvalues --   -0.24175  -0.23290  -0.21481  -0.20190  -0.19620
  Beta  occ. eigenvalues --   -0.18364  -0.16715  -0.16220  -0.15986  -0.14279
  Beta  occ. eigenvalues --   -0.13731  -0.11941  -0.08925
  Beta virt. eigenvalues --    0.06635   0.07445   0.07629   0.07704   0.08677
  Beta virt. eigenvalues --    0.09132   0.09233   0.09827   0.10271   0.10951
  Beta virt. eigenvalues --    0.11057   0.11313   0.11569   0.11869   0.12130

 Mulliken charges and spin densities:
               1          2
     1  C   -0.338353  -0.008547
     2  C   -0.680406   0.003403
     3  C    1.128548  -0.015385
     4  C   -0.422645   0.038518
     5  C   -0.541266   0.001531
     6  S   -0.499650   0.038760
     7  C   -0.192743   0.042395
     8  C    0.509260   0.106927
     9  C   -0.146345  -0.002777
    10  O   -0.372901  -0.002490
    11  N   -0.362874   0.058589
    12  C    0.170710   0.109977
    13  N    0.028151  -0.020429
    14  C   -0.551464   0.157839
    15  S    0.173202   0.136076
    16  C   -0.182022   0.049096
    17  N   -0.103384   0.010631
    18  N    0.083758  -0.001076
    19  C   -0.244725   0.122668
    20  S   -0.346702   0.144437
    21  H    0.124947   0.002999
    22  H    0.138118   0.000087
    23  H    0.151708  -0.000025
    24  H    0.174815  -0.001250
    25  H    0.104678   0.030133
    26  H    0.124906   0.004092
    27  H    0.413223   0.000413
    28  H    0.257113   0.000177
    29  H    0.189390  -0.000042
    30  H    0.212952  -0.006730
 Sum of Mulliken charges =  -1.00000   1.00000

 Dipole moment (field-independent basis, Debye):
    X=              2.3080    Y=             -0.9869    Z=             -1.0465  Tot=              2.7196
 Quadrupole moment (field-independent basis, Debye-Ang):
   XX=           -184.1787   YY=           -166.7752   ZZ=           -146.7631
   XY=              3.7511   XZ=              0.4731   YZ=             -6.9428

 Summary of Natural Population Analysis:

                                       Natural Population
                Natural  -----------------------------------------------
    Atom  No    Charge         Core      Valence    Rydberg      Total
 -----------------------------------------------------------------------
      C    1   -0.18169      0.99966     2.17561    0.00643     3.18169
      C    2   -0.18977      0.99961     2.18312    0.00704     3.18977
      C    3   -0.03522      0.99938     2.02540    0.01045     3.03522
      C    4   -0.08489      0.99934     2.07523    0.01032     3.08489
      C    5   -0.19835      0.99959     2.19138    0.00737     3.19835
      S    6    0.19863      4.99940     2.78119    0.02078     7.80137
      C    7    0.05962      0.99944     1.92355    0.01740     2.94038
      C    8   -0.09881      0.99935     2.08879    0.01067     3.09881
      C    9    0.33052      0.99960     1.64923    0.02066     2.66948
      O   10   -0.33021      0.99988     3.32433    0.00601     4.33021
      N   11   -0.29063      0.99962     2.78172    0.00929     3.79063
      C   12    0.27907      0.99960     1.70623    0.01510     2.72093
      N   13   -0.28613      0.99963     2.77264    0.01386     3.78613
      C   14   -0.24999      0.99954     2.24080    0.00965     3.24999
      S   15    0.16388      4.99947     2.81592    0.02074     7.83612
      C   16   -0.01552      0.99962     1.99666    0.01923     3.01552
      N   17   -0.20557      0.99959     2.68678    0.01920     3.70557
      N   18   -0.13845      0.99968     2.62497    0.01381     3.63845
      C   19   -0.03844      0.99968     2.02330    0.01547     3.03844
      S   20    0.17665      4.99942     2.80397    0.01996     7.82335
      H   21    0.09262      0.00000     0.40634    0.00104     0.40738
      H   22    0.09397      0.00000     0.40497    0.00105     0.40603
      H   23    0.09834      0.00000     0.40053    0.00113     0.40166
      H   24    0.10701      0.00000     0.39178    0.00122     0.39299
      H   25    0.09595      0.00000     0.40216    0.00189     0.40405
      H   26    0.09805      0.00000     0.40058    0.00137     0.40195
      H   27    0.22180      0.00000     0.27637    0.00183     0.27820
      H   28    0.11556      0.00000     0.38351    0.00094     0.38444
      H   29    0.11552      0.00000     0.38317    0.00131     0.38448
      H   30    0.09650      0.00000     0.40231    0.00119     0.40350
 =======================================================================
   * Total *    0.00000     31.99107    50.72255    0.28639    83.00000

 Normal termination of Gaussian 16 at Sat Dec 12 17:12:32 2020.
