 Gaussian 16, Revision A.03,

 -----------------------------------------------------------
 # opt freq B3LYP/6-31G(d) empiricaldispersion=gd3bj scf=xqc
 -----------------------------------------------------------

 -------------------------------
 CID_150392479_JID_8749_neutraal
 -------------------------------
 Symbolic Z-matrix:
 Charge =  0 Multiplicity = 1

 SCF Done:  E(RB3LYP) =  -1155.71270709     A.U. after   16 cycles
 SCF Done:  E(RB3LYP) =  -1155.71948455     A.U. after   14 cycles
 SCF Done:  E(RB3LYP) =  -1155.72258148     A.U. after   13 cycles
 SCF Done:  E(RB3LYP) =  -1155.72493465     A.U. after   14 cycles
 SCF Done:  E(RB3LYP) =  -1155.72547866     A.U. after   13 cycles
 SCF Done:  E(RB3LYP) =  -1155.72560274     A.U. after   13 cycles
 SCF Done:  E(RB3LYP) =  -1155.72568247     A.U. after   12 cycles
 SCF Done:  E(RB3LYP) =  -1155.72575885     A.U. after   13 cycles
 SCF Done:  E(RB3LYP) =  -1155.72579104     A.U. after   12 cycles
 SCF Done:  E(RB3LYP) =  -1155.72580821     A.U. after   11 cycles
 SCF Done:  E(RB3LYP) =  -1155.72581048     A.U. after    9 cycles
 SCF Done:  E(RB3LYP) =  -1155.72581094     A.U. after   10 cycles
 SCF Done:  E(RB3LYP) =  -1155.72581107     A.U. after    9 cycles
 SCF Done:  E(RB3LYP) =  -1155.72581121     A.U. after    8 cycles
 Optimization completed.
    -- Stationary point found.
 Normal termination of Gaussian 16 at Fri Dec 11 22:09:59 2020.

 --------------------------------------------------------------------
 #N Geom=AllCheck Guess=TCheck SCRF=Check GenChk RB3LYP/6-31G(d) Freq
 --------------------------------------------------------------------

 Structure from the checkpoint file:  "JID_8749.chk"
 -------------------------------
 CID_150392479_JID_8749_neutraal
 -------------------------------
 Charge =  0 Multiplicity = 1

 SCF Done:  E(RB3LYP) =  -1155.72581121     A.U. after    1 cycles

  Exact polarizability: 301.665  13.164 176.616   1.565   2.274  73.786
 Approx polarizability: 404.233  36.242 329.858  -3.453   6.264 114.774

                      1                      2                      3
                      A                      A                      A
 Frequencies --     22.0055                33.2811                62.0445
 Red. masses --      6.0586                 5.2194                 4.5530
 Frc consts  --      0.0017                 0.0034                 0.0103
 IR Inten    --      0.6227                 0.2817                 4.5610

                      4                      5                      6
                      A                      A                      A
 Frequencies --     72.5918               126.5439               130.7516
 Red. masses --      8.9802                 4.6164                 8.0081
 Frc consts  --      0.0279                 0.0436                 0.0807
 IR Inten    --      1.7026                 5.8329                11.8128

                      7                      8                      9
                      A                      A                      A
 Frequencies --    142.0898               165.6405               185.8733
 Red. masses --      6.2848                 7.3978                 4.8883
 Frc consts  --      0.0748                 0.1196                 0.0995
 IR Inten    --      2.7795                 3.6888                 1.2346

                     10                     11                     12
                      A                      A                      A
 Frequencies --    211.1732               241.8995               258.4999
 Red. masses --      1.1136                 4.5552                 4.4821
 Frc consts  --      0.0293                 0.1570                 0.1765
 IR Inten    --      0.2161                 1.3549                 0.2757

                     13                     14                     15
                      A                      A                      A
 Frequencies --    295.7152               302.1750               335.9116
 Red. masses --      6.2701                 6.4484                 5.2566
 Frc consts  --      0.3231                 0.3469                 0.3495
 IR Inten    --      2.4847                 2.2240                 2.2269

                     16                     17                     18
                      A                      A                      A
 Frequencies --    359.9876               395.6270               451.6128
 Red. masses --      7.5342                 4.8900                 4.5628
 Frc consts  --      0.5753                 0.4510                 0.5483
 IR Inten    --      5.4487                 1.5890                10.6707

                     19                     20                     21
                      A                      A                      A
 Frequencies --    470.0376               481.2973               490.0971
 Red. masses --      8.2308                 4.1150                 3.8839
 Frc consts  --      1.0714                 0.5616                 0.5496
 IR Inten    --      0.4608                 8.3235                23.2019

                     22                     23                     24
                      A                      A                      A
 Frequencies --    561.5845               568.2784               610.2645
 Red. masses --      1.1437                 7.8801                 7.9093
 Frc consts  --      0.2125                 1.4993                 1.7355
 IR Inten    --     64.2273                 3.6032                13.3340

                     25                     26                     27
                      A                      A                      A
 Frequencies --    629.6445               650.7785               663.4313
 Red. masses --      6.2557                 6.9942                 6.3038
 Frc consts  --      1.4612                 1.7452                 1.6347
 IR Inten    --      6.6199                 3.8433                14.1078

                     28                     29                     30
                      A                      A                      A
 Frequencies --    694.9174               698.3886               743.6533
 Red. masses --      7.0187                 2.3033                 7.7894
 Frc consts  --      1.9970                 0.6619                 2.5380
 IR Inten    --      3.0770                12.6619                 2.0615

                     31                     32                     33
                      A                      A                      A
 Frequencies --    781.7569               801.1140               813.2936
 Red. masses --      4.3734                 7.5562                 1.3853
 Frc consts  --      1.5747                 2.8572                 0.5399
 IR Inten    --      3.0614                 3.0889                30.5377

                     34                     35                     36
                      A                      A                      A
 Frequencies --    880.6793               886.5738               896.0732
 Red. masses --      1.5508                 1.4366                 5.7452
 Frc consts  --      0.7087                 0.6653                 2.7180
 IR Inten    --     26.0587                21.4642                 0.3743

                     37                     38                     39
                      A                      A                      A
 Frequencies --    929.8440               968.9763               984.2190
 Red. masses --      1.3507                 1.4579                 1.3623
 Frc consts  --      0.6881                 0.8065                 0.7775
 IR Inten    --      0.3137                12.0459                18.2679

                     40                     41                     42
                      A                      A                      A
 Frequencies --    990.9858               996.8841              1001.3489
 Red. masses --      1.4064                 4.8813                 1.2863
 Frc consts  --      0.8137                 2.8581                 0.7599
 IR Inten    --     19.3597                 5.7313                 1.2530

                     43                     44                     45
                      A                      A                      A
 Frequencies --   1015.1006              1027.3676              1075.9735
 Red. masses --      6.1439                 4.5907                 4.9742
 Frc consts  --      3.7300                 2.8548                 3.3930
 IR Inten    --     14.8838                38.6557                91.5185

                     46                     47                     48
                      A                      A                      A
 Frequencies --   1122.7952              1127.1519              1200.1648
 Red. masses --      2.1488                 1.6618                 1.7080
 Frc consts  --      1.5960                 1.2439                 1.4495
 IR Inten    --     22.8292                 9.4325                16.0355

                     49                     50                     51
                      A                      A                      A
 Frequencies --   1212.1083              1253.4818              1289.7506
 Red. masses --      1.1894                 3.4909                 4.1287
 Frc consts  --      1.0295                 3.2316                 4.0465
 IR Inten    --      1.8046                 6.6025                27.8690

                     52                     53                     54
                      A                      A                      A
 Frequencies --   1315.2201              1339.2876              1350.9040
 Red. masses --      3.4817                 2.7926                 1.2189
 Frc consts  --      3.5484                 2.9513                 1.3106
 IR Inten    --     47.6222                 8.4157                 9.5604

                     55                     56                     57
                      A                      A                      A
 Frequencies --   1364.6287              1370.2274              1427.1996
 Red. masses --      1.8731                 2.7463                 1.9276
 Frc consts  --      2.0551                 3.0379                 2.3133
 IR Inten    --     27.5677                 2.9776               106.9600

                     58                     59                     60
                      A                      A                      A
 Frequencies --   1454.8738              1480.8544              1491.5237
 Red. masses --      3.3339                 1.0609                 1.0532
 Frc consts  --      4.1577                 1.3708                 1.3804
 IR Inten    --     60.1625                 8.2017                11.0431

                     61                     62                     63
                      A                      A                      A
 Frequencies --   1503.1534              1540.2404              1564.0391
 Red. masses --      2.3937                 2.7304                 4.3044
 Frc consts  --      3.1866                 3.8163                 6.2038
 IR Inten    --    134.5461               327.6610               105.7842

                     64                     65                     66
                      A                      A                      A
 Frequencies --   1625.2330              1631.9004              1654.7367
 Red. masses --      5.6158                 4.9600                 3.3392
 Frc consts  --      8.7397                 7.7825                 5.3871
 IR Inten    --    885.8069                92.8914               273.0473

                     67                     68                     69
                      A                      A                      A
 Frequencies --   1669.7297              2354.1068              3073.2949
 Red. masses --      4.0952                12.6799                 1.0280
 Frc consts  --      6.7270                41.4018                 5.7207
 IR Inten    --    123.3152                32.4075                 5.0345

                     70                     71                     72
                      A                      A                      A
 Frequencies --   3175.8505              3185.6826              3195.5596
 Red. masses --      1.1073                 1.1074                 1.0913
 Frc consts  --      6.5802                 6.6218                 6.5660
 IR Inten    --      2.9953                 1.4223                23.8933

                     73                     74                     75
                      A                      A                      A
 Frequencies --   3195.9483              3205.8446              3213.0260
 Red. masses --      1.0913                 1.0892                 1.0918
 Frc consts  --      6.5675                 6.5956                 6.6405
 IR Inten    --      7.8996                 8.1585                11.0020

                     76                     77                     78
                      A                      A                      A
 Frequencies --   3231.2755              3282.6891              3607.7655
 Red. masses --      1.0945                 1.0919                 1.0761
 Frc consts  --      6.7332                 6.9327                 8.2526
 IR Inten    --      3.7264                14.8226                25.1197

 - Thermochemistry -
 -------------------
 Temperature   298.150 Kelvin.  Pressure   1.00000 Atm.
 Atom     1 has atomic number  6 and mass  12.00000

 Molecular mass:   258.05753 amu.
 Principal axes and moments of inertia in atomic units:
                           1         2         3
     Eigenvalues --  1718.84357********************
           X            0.99997  -0.00460   0.00635
           Y            0.00460   0.99999  -0.00062
           Z           -0.00635   0.00065   0.99998
 This molecule is an asymmetric top.
 Rotational symmetry number  1.
 Warning -- assumption of classical behavior for rotation
           may cause significant error
 Rotational temperatures (Kelvin)      0.05039     0.00698     0.00623
 Rotational constants (GHZ):           1.04997     0.14537     0.12988
 Zero-point vibrational energy     543201.7 (Joules/Mol)
                                  129.82833 (Kcal/Mol)
 Warning -- explicit consideration of  24 degrees of freedom as
           vibrations may cause significant error
 Vibrational temperatures:     31.66    47.88    89.27   104.44   182.07
          (Kelvin)            188.12   204.44   238.32   267.43   303.83
                              348.04   371.92   425.47   434.76   483.30
                              517.94   569.22   649.77   676.28   692.48
                              705.14   807.99   817.63   878.03   905.92
                              936.33   954.53   999.83  1004.83  1069.95
                             1124.77  1152.62  1170.15  1267.10  1275.58
                             1289.25  1337.84  1394.14  1416.07  1425.81
                             1434.29  1440.72  1460.50  1478.15  1548.09
                             1615.45  1621.72  1726.77  1743.95  1803.48
                             1855.66  1892.31  1926.94  1943.65  1963.40
                             1971.45  2053.42  2093.24  2130.62  2145.97
                             2162.70  2216.06  2250.30  2338.35  2347.94
                             2380.80  2402.37  3387.03  4421.79  4569.34
                             4583.49  4597.70  4598.26  4612.50  4622.83
                             4649.08  4723.06  5190.77

 Zero-point correction=                           0.206895 (Hartree/Particle)
 Thermal correction to Energy=                    0.222874
 Thermal correction to Enthalpy=                  0.223819
 Thermal correction to Gibbs Free Energy=         0.161553
 Sum of electronic and zero-point Energies=          -1155.518917
 Sum of electronic and thermal Energies=             -1155.502937
 Sum of electronic and thermal Enthalpies=           -1155.501993
 Sum of electronic and thermal Free Energies=        -1155.564258

                     E (Thermal)             CV                S
                      KCal/Mol        Cal/Mol-Kelvin    Cal/Mol-Kelvin
 Total                  139.856             59.922            131.048
 Electronic               0.000              0.000              0.000
 Translational            0.889              2.981             42.544
 Rotational               0.889              2.981             34.049
 Vibrational            138.078             53.960             54.455
 Vibration     1          0.593              1.985              6.444
 Vibration     2          0.594              1.983              5.624
 Vibration     3          0.597              1.972              4.391
 Vibration     4          0.599              1.967              4.082
 Vibration     5          0.611              1.927              2.998
 Vibration     6          0.612              1.923              2.935
 Vibration     7          0.616              1.911              2.776
 Vibration     8          0.624              1.885              2.484
 Vibration     9          0.632              1.859              2.269
 Vibration    10          0.643              1.824              2.034
 Vibration    11          0.658              1.776              1.789
 Vibration    12          0.667              1.748              1.672
 Vibration    13          0.690              1.682              1.441
 Vibration    14          0.694              1.670              1.405
 Vibration    15          0.717              1.604              1.232
 Vibration    16          0.734              1.555              1.122
 Vibration    17          0.762              1.480              0.979
 Vibration    18          0.810              1.357              0.791
 Vibration    19          0.827              1.317              0.737
 Vibration    20          0.838              1.292              0.707
 Vibration    21          0.846              1.272              0.683
 Vibration    22          0.917              1.114              0.521
 Vibration    23          0.924              1.100              0.508
 Vibration    24          0.969              1.010              0.432

                           ! Non-Optimized Parameters !
 Normal termination of Gaussian 16 at Fri Dec 11 22:18:27 2020.

 ----------------------------------------------------------------------
 # B3LYP/6-311++G(d,p) empiricaldispersion=gd3bj scf=xqc pop=npa geom=c
 heck
 ----------------------------------------------------------------------

 ---------------------------------------
 CID_150392479_JID_8749_Energie_neutraal
 ---------------------------------------
 Structure from the checkpoint file:  "JID_8749.chk"
 Charge =  0 Multiplicity = 1

 SCF Done:  E(RB3LYP) =  -1155.95571571     A.U. after   16 cycles
 Normal termination of Gaussian 16 at Fri Dec 11 22:22:05 2020.

 ----------------------------------------------------------------------
 # B3LYP/6-311++G(d,p) empiricaldispersion=gd3bj scf=xqc pop=npa geom=c
 heck
 ----------------------------------------------------------------------

 -------------------------------------
 CID_150392479_JID_8749_Energie_kation
 -------------------------------------
 Structure from the checkpoint file:  "JID_8749.chk"
 Charge =  1 Multiplicity = 2

 SCF Done:  E(UB3LYP) =  -1155.65210371     A.U. after   29 cycles
 Normal termination of Gaussian 16 at Fri Dec 11 22:31:06 2020.
 Gaussian 16:  ES64L-G16RevA.03 25-Dec-2016

 ----------------------------------------------------------------------
 # B3LYP/6-311++G(d,p) empiricaldispersion=gd3bj scf=xqc pop=npa geom=c
 heck
 ----------------------------------------------------------------------

 ------------------------------------
 CID_150392479_JID_8749_Energie_anion
 ------------------------------------
 Structure from the checkpoint file:  "JID_8749.chk"
 Charge = -1 Multiplicity = 2

                         Standard orientation:
 ---------------------------------------------------------------------
 Center     Atomic      Atomic             Coordinates (Angstroms)
 Number     Number       Type             X           Y           Z
 ---------------------------------------------------------------------
      1          6           0        5.094069   -0.161327    1.230793
      2         16           0        4.409983   -0.755416   -0.365788
      3          8           0        4.033638   -2.213804   -0.220124
      4          6           0        2.850635    0.189663   -0.217926
      5          7           0        2.946325    1.526584   -0.202431
      6          6           0        1.773141    2.156137   -0.144288
      7          7           0        0.555692    1.607505   -0.107514
      8          6           0        0.494716    0.265735   -0.127866
      9          6           0        1.671595   -0.516053   -0.188088
     10          7           0       -0.717811   -0.372112   -0.089448
     11          6           0       -2.031262    0.120628   -0.027561
     12          6           0       -2.367202    1.484387   -0.000146
     13          6           0       -3.707843    1.862757    0.061133
     14          6           0       -4.730918    0.921205    0.096009
     15          6           0       -4.393036   -0.440442    0.068393
     16          6           0       -3.053554   -0.837532    0.007160
     17          6           0       -5.420985   -1.438573    0.103372
     18          7           0       -6.255607   -2.247841    0.132125
     19          1           0        6.106613   -0.560874    1.319186
     20          1           0        4.465868   -0.537474    2.042307
     21          1           0        5.105514    0.930702    1.211508
     22          1           0        1.805440    3.243194   -0.124562
     23          1           0        1.682807   -1.601516   -0.203785
     24          1           0       -0.652560   -1.380984   -0.110913
     25          1           0       -1.579915    2.222452   -0.027037
     26          1           0       -3.952181    2.920396    0.081484
     27          1           0       -5.771880    1.219839    0.143420
     28          1           0       -2.814875   -1.897106   -0.013038
 ---------------------------------------------------------------------

 SCF Done:  E(UB3LYP) =  -1155.98103218     A.U. after   32 cycles

 The electronic state is 2-A.
 Alpha  occ. eigenvalues --  -88.84794 -18.98486 -14.24952 -14.19515 -14.19099
 Alpha  occ. eigenvalues --  -14.18511 -10.13623 -10.12890 -10.11219 -10.11162
 Alpha  occ. eigenvalues --  -10.10020 -10.09624 -10.09239 -10.08109 -10.07469
 Alpha  occ. eigenvalues --  -10.06933 -10.05928 -10.04772  -7.92472  -5.88758
 Alpha  occ. eigenvalues --   -5.88593  -5.88068  -0.91606  -0.88602  -0.84770
 Alpha  occ. eigenvalues --   -0.79648  -0.77235  -0.74769  -0.69166  -0.66990
 Alpha  occ. eigenvalues --   -0.65738  -0.63781  -0.57002  -0.55955  -0.53050
 Alpha  occ. eigenvalues --   -0.52281  -0.49375  -0.45263  -0.43877  -0.40041
 Alpha  occ. eigenvalues --   -0.38851  -0.37765  -0.36221  -0.35523  -0.35222
 Alpha  occ. eigenvalues --   -0.34622  -0.33744  -0.33078  -0.32673  -0.32471
 Alpha  occ. eigenvalues --   -0.30136  -0.29392  -0.27340  -0.26952  -0.26413
 Alpha  occ. eigenvalues --   -0.26253  -0.24842  -0.22910  -0.22340  -0.19627
 Alpha  occ. eigenvalues --   -0.19547  -0.17772  -0.17477  -0.15240  -0.14896
 Alpha  occ. eigenvalues --   -0.13530  -0.11115   0.02480
 Alpha virt. eigenvalues --    0.05373   0.07092   0.07868   0.07933   0.08508
 Alpha virt. eigenvalues --    0.09153   0.09960   0.10323   0.10603   0.11112
 Alpha virt. eigenvalues --    0.11804   0.12124   0.12454   0.13426   0.13589

  Beta  occ. eigenvalues --  -88.84796 -18.98487 -14.25026 -14.19391 -14.18837
  Beta  occ. eigenvalues --  -14.18273 -10.13323 -10.12942 -10.11145 -10.10870
  Beta  occ. eigenvalues --  -10.09952 -10.09617 -10.09133 -10.08153 -10.07567
  Beta  occ. eigenvalues --  -10.07024 -10.05659 -10.04482  -7.92473  -5.88761
  Beta  occ. eigenvalues --   -5.88592  -5.88076  -0.91570  -0.88291  -0.84544
  Beta  occ. eigenvalues --   -0.79450  -0.76745  -0.74495  -0.68877  -0.66786
  Beta  occ. eigenvalues --   -0.65436  -0.63530  -0.56715  -0.55720  -0.52742
  Beta  occ. eigenvalues --   -0.52153  -0.49158  -0.45140  -0.43717  -0.39851
  Beta  occ. eigenvalues --   -0.38672  -0.37588  -0.36115  -0.35337  -0.35042
  Beta  occ. eigenvalues --   -0.34513  -0.33262  -0.32943  -0.32634  -0.32122
  Beta  occ. eigenvalues --   -0.29896  -0.28821  -0.27046  -0.26783  -0.26100
  Beta  occ. eigenvalues --   -0.25920  -0.24692  -0.22260  -0.22060  -0.19281
  Beta  occ. eigenvalues --   -0.18415  -0.17526  -0.16606  -0.14664  -0.14424
  Beta  occ. eigenvalues --   -0.13344  -0.10235
  Beta virt. eigenvalues --    0.06409   0.06804   0.07758   0.08009   0.08220
  Beta virt. eigenvalues --    0.08488   0.09149   0.10102   0.10552   0.11058
  Beta virt. eigenvalues --    0.11266   0.11745   0.12148   0.12472   0.13455

 Mulliken charges and spin densities:
               1          2
     1  C   -0.516054  -0.112641
     2  S    0.233439   0.089857
     3  O   -0.487850  -0.001714
     4  C   -0.142010   0.175465
     5  N   -0.093501   0.124949
     6  C    0.094417  -0.027941
     7  N   -0.255723   0.110447
     8  C    0.244216   0.182626
     9  C   -0.720583  -0.068567
    10  N    0.040763  -0.039434
    11  C    0.035707   0.021124
    12  C   -0.158943   0.232609
    13  C    0.021902  -0.073092
    14  C   -0.447444   0.225741
    15  C    1.272707   0.073163
    16  C   -0.253659  -0.024478
    17  C   -1.432053  -0.023420
    18  N   -0.272799   0.066128
    19  H    0.101838   0.060409
    20  H    0.156626   0.026263
    21  H    0.161712   0.004017
    22  H    0.177706   0.001264
    23  H    0.284788   0.003796
    24  H    0.308862   0.000321
    25  H    0.245845  -0.017935
    26  H    0.140978   0.004701
    27  H    0.135129  -0.016276
    28  H    0.123985   0.002620
 Sum of Mulliken charges =  -1.00000   1.00000

 Dipole moment (field-independent basis, Debye):
    X=              5.2517    Y=              3.2031    Z=              0.8776  Tot=              6.2137
 Quadrupole moment (field-independent basis, Debye-Ang):
   XX=           -223.4415   YY=           -137.5583   ZZ=           -120.5344
   XY=            -12.4416   XZ=              6.5434   YZ=              0.4515

 Summary of Natural Population Analysis:

                                       Natural Population
                Natural  -----------------------------------------------
    Atom  No    Charge         Core      Valence    Rydberg      Total
 -----------------------------------------------------------------------
      C    1   -0.37095      0.99962     2.36374    0.00759     3.37095
      S    2    0.58448      4.99939     2.35650    0.05963     7.41552
      O    3   -0.49233      0.99993     3.48510    0.00730     4.49233
      C    4    0.07083      0.99942     1.91020    0.01955     2.92917
      N    5   -0.25085      0.99965     2.73788    0.01332     3.75085
      C    6    0.14023      0.99968     1.84138    0.01872     2.85977
      N    7   -0.24740      0.99967     2.73814    0.00959     3.74740
      C    8    0.25908      0.99955     1.72793    0.01343     2.74092
      C    9   -0.18273      0.99944     2.17501    0.00828     3.18273
      N   10   -0.28938      0.99964     2.78238    0.00736     3.78938
      C   11    0.09067      0.99949     1.89968    0.01016     2.90933
      C   12   -0.05716      0.99954     2.04896    0.00867     3.05716
      C   13   -0.11415      0.99958     2.10573    0.00884     3.11415
      C   14   -0.04462      0.99955     2.03649    0.00859     3.04462
      C   15   -0.08099      0.99943     2.07215    0.00941     3.08099
      C   16   -0.10386      0.99952     2.09717    0.00717     3.10386
      C   17    0.15625      0.99964     1.82607    0.01804     2.84375
      N   18   -0.18334      0.99979     2.67228    0.01127     3.68334
      H   19    0.10060      0.00000     0.39728    0.00212     0.39940
      H   20    0.10792      0.00000     0.39012    0.00196     0.39208
      H   21    0.11528      0.00000     0.38226    0.00246     0.38472
      H   22    0.07713      0.00000     0.42168    0.00119     0.42287
      H   23    0.11777      0.00000     0.38102    0.00121     0.38223
      H   24    0.18860      0.00000     0.30941    0.00199     0.31140
      H   25    0.11912      0.00000     0.37972    0.00116     0.38088
      H   26    0.09546      0.00000     0.40354    0.00100     0.40454
      H   27    0.09644      0.00000     0.40266    0.00089     0.40356
      H   28    0.09790      0.00000     0.40110    0.00100     0.40210
 =======================================================================
   * Total *    0.00000     21.99250    44.74559    0.26191    67.00000

 Normal termination of Gaussian 16 at Fri Dec 11 22:41:05 2020.
