 Gaussian 16, Revision A.03,

 -----------------------------------------------------------
 # opt freq B3LYP/6-31G(d) empiricaldispersion=gd3bj scf=xqc
 -----------------------------------------------------------

 ------------------------------
 CID_68918627_JID_5351_neutraal
 ------------------------------
 Symbolic Z-matrix:
 Charge =  0 Multiplicity = 1

 SCF Done:  E(RB3LYP) =  -758.218041498     A.U. after   15 cycles
 SCF Done:  E(RB3LYP) =  -758.227242941     A.U. after   13 cycles
 SCF Done:  E(RB3LYP) =  -758.228349932     A.U. after   13 cycles
 SCF Done:  E(RB3LYP) =  -758.228285079     A.U. after   12 cycles
 SCF Done:  E(RB3LYP) =  -758.228484190     A.U. after   12 cycles
 SCF Done:  E(RB3LYP) =  -758.228673625     A.U. after   11 cycles
 SCF Done:  E(RB3LYP) =  -758.228817496     A.U. after   12 cycles
 SCF Done:  E(RB3LYP) =  -758.228957684     A.U. after   13 cycles
 SCF Done:  E(RB3LYP) =  -758.229024412     A.U. after   12 cycles
 SCF Done:  E(RB3LYP) =  -758.229225402     A.U. after   11 cycles
 SCF Done:  E(RB3LYP) =  -758.229704386     A.U. after   11 cycles
 SCF Done:  E(RB3LYP) =  -758.229711852     A.U. after    9 cycles
 SCF Done:  E(RB3LYP) =  -758.229714909     A.U. after   10 cycles
 SCF Done:  E(RB3LYP) =  -758.229715679     A.U. after    9 cycles
 SCF Done:  E(RB3LYP) =  -758.229716124     A.U. after    9 cycles
 SCF Done:  E(RB3LYP) =  -758.229716232     A.U. after    7 cycles
 Optimization completed.
    -- Stationary point found.
 Normal termination of Gaussian 16 at Thu Dec 10 15:47:13 2020.

 --------------------------------------------------------------------
 #N Geom=AllCheck Guess=TCheck SCRF=Check GenChk RB3LYP/6-31G(d) Freq
 --------------------------------------------------------------------

 Structure from the checkpoint file:  "JID_5351.chk"
 ------------------------------
 CID_68918627_JID_5351_neutraal
 ------------------------------
 Charge =  0 Multiplicity = 1

 SCF Done:  E(RB3LYP) =  -758.229716232     A.U. after    1 cycles

  Exact polarizability: 138.539  -0.703  79.255  -5.673  10.467 100.419
 Approx polarizability: 207.140 -10.091 119.924 -15.949  26.091 173.087

                      1                      2                      3
                      A                      A                      A
 Frequencies --     38.4451                51.3410                65.3497
 Red. masses --      5.7778                12.5015                 4.1208
 Frc consts  --      0.0050                 0.0194                 0.0104
 IR Inten    --      0.1937                 0.8229                 0.3338

                      4                      5                      6
                      A                      A                      A
 Frequencies --     84.2404               140.7623               155.8580
 Red. masses --      6.5315                10.9328                 6.0216
 Frc consts  --      0.0273                 0.1276                 0.0862
 IR Inten    --      1.0307                 5.6802                 0.1833

                      7                      8                      9
                      A                      A                      A
 Frequencies --    183.5099               250.9443               303.3910
 Red. masses --      5.8233                 3.6418                 6.9307
 Frc consts  --      0.1155                 0.1351                 0.3759
 IR Inten    --      1.6226                 0.5970                 1.8162

                     10                     11                     12
                      A                      A                      A
 Frequencies --    345.0374               352.9214               393.4575
 Red. masses --      5.6847                 6.0025                 7.2994
 Frc consts  --      0.3987                 0.4405                 0.6658
 IR Inten    --     10.8226                 0.1302                 2.2096

                     13                     14                     15
                      A                      A                      A
 Frequencies --    444.0518               537.8783               551.4521
 Red. masses --      8.2493                 2.1222                 2.0753
 Frc consts  --      0.9584                 0.3617                 0.3718
 IR Inten    --     27.0483                 2.1736                33.3390

                     16                     17                     18
                      A                      A                      A
 Frequencies --    610.2852               622.2561               632.4041
 Red. masses --      3.8054                 3.5786                 9.5135
 Frc consts  --      0.8350                 0.8164                 2.2417
 IR Inten    --     24.4304                 0.2861                 4.3595

                     19                     20                     21
                      A                      A                      A
 Frequencies --    638.4642               644.3004               667.1240
 Red. masses --      4.1546                 2.0871                 1.2914
 Frc consts  --      0.9978                 0.5105                 0.3386
 IR Inten    --      8.6337                53.2425                 3.2763

                     22                     23                     24
                      A                      A                      A
 Frequencies --    676.5523               692.5740               733.3583
 Red. masses --      1.9621                 2.3191                 4.2172
 Frc consts  --      0.5292                 0.6554                 1.3363
 IR Inten    --    130.8380                81.1647                12.4385

                     25                     26                     27
                      A                      A                      A
 Frequencies --    741.7446               791.4403               827.1493
 Red. masses --      1.1964                 5.4822                 1.2468
 Frc consts  --      0.3878                 2.0232                 0.5026
 IR Inten    --     73.5769                 8.4449                 0.4759

                     28                     29                     30
                      A                      A                      A
 Frequencies --    869.3591               876.0776               890.7050
 Red. masses --      3.5694                 1.2723                 4.5415
 Frc consts  --      1.5894                 0.5753                 2.1229
 IR Inten    --      2.4801                 0.3412                 1.7359

                     31                     32                     33
                      A                      A                      A
 Frequencies --    896.5512               943.7558              1021.8167
 Red. masses --      4.5659                 3.0258                 2.2405
 Frc consts  --      2.1624                 1.5879                 1.3783
 IR Inten    --      1.4183                30.7822                 8.3876

                     34                     35                     36
                      A                      A                      A
 Frequencies --   1046.2811              1088.7012              1099.9528
 Red. masses --      2.7649                 2.8792                 1.8559
 Frc consts  --      1.7833                 2.0107                 1.3230
 IR Inten    --     16.1407                 2.8095                10.0718

                     37                     38                     39
                      A                      A                      A
 Frequencies --   1121.5553              1141.6850              1163.6998
 Red. masses --      1.4763                 1.9881                 2.6679
 Frc consts  --      1.0941                 1.5268                 2.1286
 IR Inten    --     46.5469               186.1498                80.0530

                     40                     41                     42
                      A                      A                      A
 Frequencies --   1211.5078              1235.6935              1303.5095
 Red. masses --      2.8130                 1.3166                 1.8706
 Frc consts  --      2.4327                 1.1845                 1.8727
 IR Inten    --    135.6633                16.7858                21.5173

                     43                     44                     45
                      A                      A                      A
 Frequencies --   1305.7859              1341.4878              1349.0432
 Red. masses --      1.4235                 3.9215                 2.8113
 Frc consts  --      1.4300                 4.1579                 3.0144
 IR Inten    --      4.8189               165.4050                93.0128

                     46                     47                     48
                      A                      A                      A
 Frequencies --   1371.2234              1380.5049              1389.8141
 Red. masses --      6.0808                 3.3072                 2.0987
 Frc consts  --      6.7364                 3.7135                 2.3884
 IR Inten    --     18.0813                14.0046                54.2636

                     49                     50                     51
                      A                      A                      A
 Frequencies --   1453.3982              1487.8092              1528.6555
 Red. masses --      4.6890                 1.0972                 2.9793
 Frc consts  --      5.8357                 1.4310                 4.1019
 IR Inten    --      1.6496                 5.0835                43.1913

                     52                     53                     54
                      A                      A                      A
 Frequencies --   1592.7788              1842.2352              1879.5832
 Red. masses --      4.3700                10.1513                11.0653
 Frc consts  --      6.5319                20.2984                23.0323
 IR Inten    --      2.1261               546.3332               461.0805

                     55                     56                     57
                      A                      A                      A
 Frequencies --   1894.0313              3105.7554              3163.3045
 Red. masses --     12.4675                 1.0625                 1.1032
 Frc consts  --     26.3513                 6.0383                 6.5040
 IR Inten    --      8.3986                 2.3562                 0.6077

                     58                     59                     60
                      A                      A                      A
 Frequencies --   3254.7070              3267.7151              3288.3672
 Red. masses --      1.0895                 1.0960                 1.1015
 Frc consts  --      6.7997                 6.8950                 7.0175
 IR Inten    --      5.7990                 6.3314                 1.3160

                     61                     62                     63
                      A                      A                      A
 Frequencies --   3324.2860              3610.1212              3687.4784
 Red. masses --      1.0991                 1.0790                 1.0644
 Frc consts  --      7.1563                 8.2853                 8.5271
 IR Inten    --      6.5715                70.5486                75.1991

 - Thermochemistry -
 -------------------
 Temperature   298.150 Kelvin.  Pressure   1.00000 Atm.
 Atom     1 has atomic number  6 and mass  12.00000

 Molecular mass:   208.04841 amu.
 Principal axes and moments of inertia in atomic units:
                           1         2         3
     Eigenvalues --  1814.666933655.420033891.85903
           X            0.99981   0.01926   0.00114
           Y           -0.01929   0.99902   0.03983
           Z           -0.00037  -0.03984   0.99921
 This molecule is an asymmetric top.
 Rotational symmetry number  1.
 Warning -- assumption of classical behavior for rotation
           may cause significant error
 Rotational temperatures (Kelvin)      0.04773     0.02369     0.02226
 Rotational constants (GHZ):           0.99453     0.49372     0.46372
 Zero-point vibrational energy     446238.4 (Joules/Mol)
                                  106.65353 (Kcal/Mol)
 Warning -- explicit consideration of  16 degrees of freedom as
           vibrations may cause significant error
 Vibrational temperatures:     55.31    73.87    94.02   121.20   202.53
          (Kelvin)            224.24   264.03   361.05   436.51   496.43
                              507.78   566.10   638.89   773.89   793.42
                              878.06   895.29   909.89   918.61   927.00
                              959.84   973.41   996.46  1055.14  1067.20
                             1138.71  1190.08  1250.81  1260.48  1281.53
                             1289.94  1357.85  1470.17  1505.37  1566.40
                             1582.59  1613.67  1642.63  1674.30  1743.09
                             1777.89  1875.46  1878.73  1930.10  1940.97
                             1972.88  1986.24  1999.63  2091.12  2140.63
                             2199.39  2291.65  2650.57  2704.30  2725.09
                             4468.49  4551.29  4682.80  4701.51  4731.23
                             4782.91  5194.16  5305.46

 Zero-point correction=                           0.169963 (Hartree/Particle)
 Thermal correction to Energy=                    0.182541
 Thermal correction to Enthalpy=                  0.183485
 Thermal correction to Gibbs Free Energy=         0.129722
 Sum of electronic and zero-point Energies=           -758.059753
 Sum of electronic and thermal Energies=              -758.047176
 Sum of electronic and thermal Enthalpies=            -758.046231
 Sum of electronic and thermal Free Energies=         -758.099994

                     E (Thermal)             CV                S
                      KCal/Mol        Cal/Mol-Kelvin    Cal/Mol-Kelvin
 Total                  114.546             47.659            113.153
 Electronic               0.000              0.000              0.000
 Translational            0.889              2.981             41.902
 Rotational               0.889              2.981             31.624
 Vibrational            112.768             41.697             39.628
 Vibration     1          0.594              1.982              5.338
 Vibration     2          0.596              1.977              4.765
 Vibration     3          0.597              1.971              4.289
 Vibration     4          0.601              1.960              3.790
 Vibration     5          0.615              1.913              2.793
 Vibration     6          0.620              1.896              2.599
 Vibration     7          0.631              1.862              2.292
 Vibration     8          0.663              1.761              1.724
 Vibration     9          0.695              1.667              1.398
 Vibration    10          0.723              1.585              1.189
 Vibration    11          0.729              1.569              1.153
 Vibration    12          0.761              1.484              0.987
 Vibration    13          0.804              1.374              0.814
 Vibration    14          0.893              1.166              0.570
 Vibration    15          0.907              1.137              0.541
 Vibration    16          0.969              1.010              0.432

 Optimization completed.
    -- Stationary point found.
 Normal termination of Gaussian 16 at Thu Dec 10 15:55:10 2020.

 ----------------------------------------------------------------------
 # B3LYP/6-311++G(d,p) empiricaldispersion=gd3bj scf=xqc pop=npa geom=c
 heck
 ----------------------------------------------------------------------

 --------------------------------------
 CID_68918627_JID_5351_Energie_neutraal
 --------------------------------------
 Structure from the checkpoint file:  "JID_5351.chk"
 Charge =  0 Multiplicity = 1

 SCF Done:  E(RB3LYP) =  -758.458705368     A.U. after   16 cycles
 Normal termination of Gaussian 16 at Thu Dec 10 15:58:05 2020.

 ----------------------------------------------------------------------
 # B3LYP/6-311++G(d,p) empiricaldispersion=gd3bj scf=xqc pop=npa geom=c
 heck
 ----------------------------------------------------------------------

 ------------------------------------
 CID_68918627_JID_5351_Energie_kation
 ------------------------------------
 Structure from the checkpoint file:  "JID_5351.chk"
 Charge =  1 Multiplicity = 2

 SCF Done:  E(UB3LYP) =  -758.155770440     A.U. after   25 cycles
 Normal termination of Gaussian 16 at Thu Dec 10 16:04:57 2020.
 Gaussian 16:  ES64L-G16RevA.03 25-Dec-2016

 ----------------------------------------------------------------------
 # B3LYP/6-311++G(d,p) empiricaldispersion=gd3bj scf=xqc pop=npa geom=c
 heck
 ----------------------------------------------------------------------

 -----------------------------------
 CID_68918627_JID_5351_Energie_anion
 -----------------------------------
 Structure from the checkpoint file:  "JID_5351.chk"
 Charge = -1 Multiplicity = 2

                         Standard orientation:
 ---------------------------------------------------------------------
 Center     Atomic      Atomic             Coordinates (Angstroms)
 Number     Number       Type             X           Y           Z
 ---------------------------------------------------------------------
      1          6           0        1.014059   -0.743883   -1.074810
      2          6           0        2.301230   -1.036076   -0.318170
      3          8           0        3.315720   -1.532477   -0.744392
      4          7           0        2.084155   -0.653063    1.004356
      5          6           0        0.891703   -0.002804    1.247018
      6          8           0        0.531252    0.437497    2.313905
      7          6           0        0.139220    0.104830   -0.117126
      8          6           0        0.174147    1.590784   -0.532917
      9          8           0       -0.781905    2.270278   -0.792684
     10          8           0        1.456835    2.027819   -0.576018
     11          7           0       -1.223342   -0.365098   -0.030534
     12          6           0       -2.093525   -0.165760    1.030574
     13          6           0       -3.344861   -0.569097    0.633320
     14          6           0       -3.252429   -0.998375   -0.723330
     15          6           0       -1.944828   -0.848183   -1.113595
     16          1           0        1.240331   -0.260066   -2.026049
     17          1           0        0.523301   -1.698670   -1.282381
     18          1           0        2.787405   -0.765270    1.725507
     19          1           0        1.428507    2.968830   -0.833058
     20          1           0       -1.732948    0.233602    1.963255
     21          1           0       -4.230779   -0.565142    1.253267
     22          1           0       -4.053843   -1.378226   -1.341991
     23          1           0       -1.471177   -1.021477   -2.067569
 ---------------------------------------------------------------------

 SCF Done:  E(UB3LYP) =  -758.460684836     A.U. after   30 cycles

 The electronic state is 2-A.
 Alpha  occ. eigenvalues --  -19.05645 -19.00456 -18.98830 -18.97372 -14.25563
 Alpha  occ. eigenvalues --  -14.24236 -10.19022 -10.16455 -10.14442 -10.13742
 Alpha  occ. eigenvalues --  -10.08659 -10.08515 -10.07833 -10.05379 -10.05021
 Alpha  occ. eigenvalues --   -0.99948  -0.94689  -0.92656  -0.91458  -0.87787
 Alpha  occ. eigenvalues --   -0.82940  -0.72460  -0.65405  -0.61831  -0.59346
 Alpha  occ. eigenvalues --   -0.52948  -0.50884  -0.50332  -0.46427  -0.44339
 Alpha  occ. eigenvalues --   -0.42382  -0.39385  -0.38004  -0.37780  -0.34995
 Alpha  occ. eigenvalues --   -0.34375  -0.33536  -0.32171  -0.31815  -0.31094
 Alpha  occ. eigenvalues --   -0.30623  -0.30278  -0.29024  -0.28153  -0.27297
 Alpha  occ. eigenvalues --   -0.27059  -0.25452  -0.21887  -0.17804  -0.17442
 Alpha  occ. eigenvalues --   -0.17065  -0.14890  -0.13006  -0.11146   0.04751
 Alpha virt. eigenvalues --    0.07510   0.07886   0.08920   0.09230   0.09694
 Alpha virt. eigenvalues --    0.10249   0.10992   0.12412   0.12453   0.13374
 Alpha virt. eigenvalues --    0.13992   0.14772   0.15232   0.15772   0.16014

  Beta  occ. eigenvalues --  -19.05557 -19.00391 -18.98667 -18.97051 -14.25548
  Beta  occ. eigenvalues --  -14.24304 -10.18890 -10.16274 -10.14022 -10.13767
  Beta  occ. eigenvalues --  -10.08632 -10.08502 -10.07829 -10.05378 -10.05020
  Beta  occ. eigenvalues --   -0.99759  -0.94328  -0.92120  -0.91301  -0.87734
  Beta  occ. eigenvalues --   -0.82753  -0.72394  -0.65346  -0.61792  -0.59074
  Beta  occ. eigenvalues --   -0.52439  -0.50730  -0.50082  -0.46408  -0.44304
  Beta  occ. eigenvalues --   -0.42220  -0.39202  -0.37840  -0.37487  -0.34674
  Beta  occ. eigenvalues --   -0.34093  -0.33159  -0.31925  -0.31709  -0.30919
  Beta  occ. eigenvalues --   -0.30450  -0.29901  -0.28505  -0.28021  -0.27164
  Beta  occ. eigenvalues --   -0.26930  -0.24387  -0.21560  -0.17610  -0.17004
  Beta  occ. eigenvalues --   -0.16641  -0.14775  -0.12865  -0.11107
  Beta virt. eigenvalues --    0.07657   0.08425   0.09183   0.09279   0.10296
  Beta virt. eigenvalues --    0.10456   0.10761   0.11636   0.12328   0.12557
  Beta virt. eigenvalues --    0.13493   0.14619   0.14845   0.15359   0.15666

 Mulliken charges and spin densities:
               1          2
     1  C    0.431711  -0.561292
     2  C   -0.113796   0.125860
     3  O   -0.377856   0.058320
     4  N   -0.251479  -0.021360
     5  C   -0.074193   0.567325
     6  O   -0.375215   0.112816
     7  C   -0.489633  -0.427092
     8  C    0.512615  -0.054641
     9  O   -0.269887   0.029957
    10  O   -0.162762   0.054876
    11  N    0.521471   0.013983
    12  C   -0.005659  -0.043596
    13  C   -0.312212  -0.069857
    14  C   -0.208226  -0.108344
    15  C    0.003288  -0.170234
    16  H    0.162643   0.084993
    17  H   -0.124319   0.313266
    18  H    0.147930   0.186561
    19  H   -0.449036   0.770592
    20  H    0.188010   0.004059
    21  H    0.119388   0.005994
    22  H    0.083064   0.044903
    23  H    0.044151   0.082907
 Sum of Mulliken charges =  -1.00000   1.00000

 Dipole moment (field-independent basis, Debye):
    X=             -3.1828    Y=             -3.4736    Z=             -0.4317  Tot=              4.7310
 Quadrupole moment (field-independent basis, Debye-Ang):
   XX=           -126.5289   YY=           -122.2622   ZZ=           -104.5282
   XY=              1.6035   XZ=              4.3244   YZ=              0.0089

 Summary of Natural Population Analysis:

                                       Natural Population
                Natural  -----------------------------------------------
    Atom  No    Charge         Core      Valence    Rydberg      Total
 -----------------------------------------------------------------------
      C    1   -0.23213      0.99958     2.22447    0.00808     3.23213
      C    2    0.37841      0.99970     1.59948    0.02241     2.62159
      O    3   -0.29309      0.99987     3.28699    0.00623     4.29309
      N    4   -0.33294      0.99963     2.82474    0.00857     3.83294
      C    5    0.40560      0.99966     1.56975    0.02499     2.59440
      O    6   -0.27699      0.99987     3.27121    0.00591     4.27699
      C    7   -0.00679      0.99949     1.99031    0.01699     3.00679
      C    8    0.42646      0.99967     1.54723    0.02665     2.57354
      O    9   -0.29174      0.99986     3.28556    0.00632     4.29174
      O   10   -0.34632      0.99987     3.33946    0.00699     4.34632
      N   11   -0.20314      0.99963     2.69201    0.01150     3.70314
      C   12   -0.00606      0.99956     1.99575    0.01076     3.00606
      C   13   -0.15386      0.99957     2.14445    0.00983     3.15386
      C   14   -0.14962      0.99957     2.14025    0.00980     3.14962
      C   15   -0.01882      0.99956     2.00846    0.01080     3.01882
      H   16    0.11625      0.00000     0.38240    0.00134     0.38375
      H   17    0.11949      0.00000     0.37868    0.00183     0.38051
      H   18    0.20250      0.00000     0.29503    0.00247     0.29750
      H   19    0.24532      0.00000     0.23394    0.02075     0.25468
      H   20    0.11777      0.00000     0.38111    0.00112     0.38223
      H   21    0.10004      0.00000     0.39929    0.00067     0.39996
      H   22    0.09985      0.00000     0.39947    0.00068     0.40015
      H   23    0.09981      0.00000     0.39918    0.00101     0.40019
 =======================================================================
   * Total *    0.00000     14.99509    38.78921    0.21570    54.00000

 Normal termination of Gaussian 16 at Thu Dec 10 16:16:53 2020.
