 Gaussian 16, Revision A.03,

 -----------------------------------------------------------
 # opt freq B3LYP/6-31G(d) empiricaldispersion=gd3bj scf=xqc
 -----------------------------------------------------------

 ------------------------------
 CID_65275270_JID_4973_neutraal
 ------------------------------
 Symbolic Z-matrix:
 Charge =  0 Multiplicity = 1

 SCF Done:  E(RB3LYP) =  -989.684123491     A.U. after   15 cycles
 SCF Done:  E(RB3LYP) =  -989.688162021     A.U. after   12 cycles
 SCF Done:  E(RB3LYP) =  -989.688974999     A.U. after   12 cycles
 SCF Done:  E(RB3LYP) =  -989.689140891     A.U. after   12 cycles
 SCF Done:  E(RB3LYP) =  -989.689157136     A.U. after   10 cycles
 SCF Done:  E(RB3LYP) =  -989.689174489     A.U. after    9 cycles
 SCF Done:  E(RB3LYP) =  -989.689177387     A.U. after    9 cycles
 SCF Done:  E(RB3LYP) =  -989.689179808     A.U. after    8 cycles
 SCF Done:  E(RB3LYP) =  -989.689180404     A.U. after    8 cycles
 SCF Done:  E(RB3LYP) =  -989.689180516     A.U. after    7 cycles
 SCF Done:  E(RB3LYP) =  -989.689180606     A.U. after    7 cycles
 SCF Done:  E(RB3LYP) =  -989.689180651     A.U. after    7 cycles
 Optimization completed.
    -- Stationary point found.
 Normal termination of Gaussian 16 at Thu Dec 10 10:59:51 2020.

 --------------------------------------------------------------------
 #N Geom=AllCheck Guess=TCheck SCRF=Check GenChk RB3LYP/6-31G(d) Freq
 --------------------------------------------------------------------

 Structure from the checkpoint file:  "JID_4973.chk"
 ------------------------------
 CID_65275270_JID_4973_neutraal
 ------------------------------
 Charge =  0 Multiplicity = 1

 SCF Done:  E(RB3LYP) =  -989.689180651     A.U. after    1 cycles

  Exact polarizability: 161.756   2.621 114.888  10.897  -8.811 106.011
 Approx polarizability: 210.413  11.975 193.612  18.207 -29.546 173.523

                      1                      2                      3
                      A                      A                      A
 Frequencies --     21.0645                32.0495                46.2006
 Red. masses --      5.4648                 5.0764                 4.7368
 Frc consts  --      0.0014                 0.0031                 0.0060
 IR Inten    --      0.0805                 0.1426                 0.5987

                      4                      5                      6
                      A                      A                      A
 Frequencies --    108.9363               132.8457               157.1696
 Red. masses --      6.0943                 3.7198                 5.4136
 Frc consts  --      0.0426                 0.0387                 0.0788
 IR Inten    --      0.6701                 1.4831                 0.0953

                      7                      8                      9
                      A                      A                      A
 Frequencies --    202.0508               267.2507               287.0497
 Red. masses --      2.7102                 2.1580                 9.9804
 Frc consts  --      0.0652                 0.0908                 0.4845
 IR Inten    --      2.1855                 0.4906                 2.2478

                     10                     11                     12
                      A                      A                      A
 Frequencies --    324.2605               352.5474               422.5682
 Red. masses --      1.9823                 2.1630                 2.9188
 Frc consts  --      0.1228                 0.1584                 0.3071
 IR Inten    --      0.3409                 3.3639                 0.4469

                     13                     14                     15
                      A                      A                      A
 Frequencies --    436.1820               447.9673               495.5829
 Red. masses --      2.2908                 5.1374                 2.2716
 Frc consts  --      0.2568                 0.6074                 0.3287
 IR Inten    --      4.1608                 8.5755                10.2301

                     16                     17                     18
                      A                      A                      A
 Frequencies --    531.4873               552.4370               634.9646
 Red. masses --      3.2824                 5.0979                 2.1617
 Frc consts  --      0.5463                 0.9167                 0.5135
 IR Inten    --      0.5802                 5.9174                13.4382

                     19                     20                     21
                      A                      A                      A
 Frequencies --    645.4454               647.1913               678.3990
 Red. masses --      4.9419                 6.1261                 6.9027
 Frc consts  --      1.2130                 1.5118                 1.8717
 IR Inten    --     15.7485                17.3491                 2.6789

                     22                     23                     24
                      A                      A                      A
 Frequencies --    731.5374               758.5010               787.6198
 Red. masses --      6.3631                 2.9441                 1.5582
 Frc consts  --      2.0063                 0.9980                 0.5695
 IR Inten    --      6.0696                 3.8621                63.4665

                     25                     26                     27
                      A                      A                      A
 Frequencies --    857.4164               872.0929               887.8166
 Red. masses --      2.5536                 3.8950                 1.9866
 Frc consts  --      1.1061                 1.7453                 0.9226
 IR Inten    --      0.2506                 8.1414                 7.1100

                     28                     29                     30
                      A                      A                      A
 Frequencies --    899.2696               924.8586               926.1143
 Red. masses --      2.6857                 1.8788                 1.4970
 Frc consts  --      1.2796                 0.9469                 0.7565
 IR Inten    --      5.7623                 6.2192                 6.2063

                     31                     32                     33
                      A                      A                      A
 Frequencies --    931.1255               979.4624              1030.9409
 Red. masses --      1.5669                 2.3456                 1.6535
 Frc consts  --      0.8004                 1.3258                 1.0354
 IR Inten    --      5.9125                54.6809                10.3224

                     34                     35                     36
                      A                      A                      A
 Frequencies --   1035.4838              1066.3782              1074.2052
 Red. masses --      1.6285                 1.7851                 3.3099
 Frc consts  --      1.0288                 1.1960                 2.2503
 IR Inten    --      2.1715                 7.2520                65.1880

                     37                     38                     39
                      A                      A                      A
 Frequencies --   1093.8556              1125.4710              1155.3330
 Red. masses --      2.2489                 1.8075                 2.0728
 Frc consts  --      1.5854                 1.3490                 1.6301
 IR Inten    --     12.1888                14.4931                 5.9507

                     40                     41                     42
                      A                      A                      A
 Frequencies --   1178.5018              1198.4608              1205.3503
 Red. masses --      2.2093                 1.2731                 2.1971
 Frc consts  --      1.8079                 1.0774                 1.8807
 IR Inten    --     14.5499                 4.4076               105.6419

                     43                     44                     45
                      A                      A                      A
 Frequencies --   1217.8695              1257.2903              1278.5135
 Red. masses --      1.6111                 1.3691                 1.1889
 Frc consts  --      1.4079                 1.2751                 1.1450
 IR Inten    --     77.4522                20.5411                16.5172

                     46                     47                     48
                      A                      A                      A
 Frequencies --   1300.2925              1308.9455              1316.2597
 Red. masses --      7.2462                 1.2059                 1.6363
 Frc consts  --      7.2185                 1.2173                 1.6703
 IR Inten    --     50.7583                 2.5712                20.4882

                     49                     50                     51
                      A                      A                      A
 Frequencies --   1325.5271              1340.7463              1366.1868
 Red. masses --      1.2006                 1.3417                 1.3246
 Frc consts  --      1.2428                 1.4210                 1.4566
 IR Inten    --      0.3013                 0.8669                22.9667

                     52                     53                     54
                      A                      A                      A
 Frequencies --   1378.2189              1390.4384              1404.1804
 Red. masses --      1.3213                 1.5512                 1.4801
 Frc consts  --      1.4788                 1.7670                 1.7194
 IR Inten    --     34.6577                 8.6510                47.6844

                     55                     56                     57
                      A                      A                      A
 Frequencies --   1423.6459              1425.8103              1446.3520
 Red. masses --      1.5882                 1.4316                 1.4412
 Frc consts  --      1.8965                 1.7148                 1.7764
 IR Inten    --     73.4872                43.7193                 7.9097

                     58                     59                     60
                      A                      A                      A
 Frequencies --   1499.3229              1504.3928              1508.3199
 Red. masses --      1.2706                 3.3483                 1.1324
 Frc consts  --      1.6828                 4.4647                 1.5178
 IR Inten    --      2.8901               175.9422                 0.8628

                     61                     62                     63
                      A                      A                      A
 Frequencies --   1522.0553              1523.4099              1528.0186
 Red. masses --      1.1357                 1.1004                 1.1165
 Frc consts  --      1.5501                 1.5047                 1.5359
 IR Inten    --      5.7738                 5.5229                 2.2304

                     64                     65                     66
                      A                      A                      A
 Frequencies --   1537.0380              1550.2848              1602.8582
 Red. masses --      1.1114                 1.1077                 5.9933
 Frc consts  --      1.5470                 1.5685                 9.0721
 IR Inten    --     14.5090                22.2628               270.1820

                     67                     68                     69
                      A                      A                      A
 Frequencies --   2918.4128              2932.6584              3036.7915
 Red. masses --      1.0738                 1.0729                 1.0670
 Frc consts  --      5.3885                 5.4367                 5.7977
 IR Inten    --     64.6734               110.6619                24.1039

                     70                     71                     72
                      A                      A                      A
 Frequencies --   3041.9544              3048.1818              3055.2444
 Red. masses --      1.0574                 1.0609                 1.0698
 Frc consts  --      5.7648                 5.8079                 5.8836
 IR Inten    --     10.0862                17.2100                 5.7530

                     73                     74                     75
                      A                      A                      A
 Frequencies --   3068.0958              3075.0140              3081.6409
 Red. masses --      1.0856                 1.0879                 1.0943
 Frc consts  --      6.0206                 6.0610                 6.1228
 IR Inten    --     20.2773                46.2426                65.5762

                     76                     77                     78
                      A                      A                      A
 Frequencies --   3084.1336              3088.6158              3091.6063
 Red. masses --      1.0896                 1.1022                 1.1042
 Frc consts  --      6.1063                 6.1949                 6.2184
 IR Inten    --     26.9910                70.1372                37.0228

                     79                     80                     81
                      A                      A                      A
 Frequencies --   3112.4508              3229.1883              3508.6600
 Red. masses --      1.0988                 1.0928                 1.0748
 Frc consts  --      6.2713                 6.7137                 7.7960
 IR Inten    --     19.8175                11.5040                 0.9561

 - Thermochemistry -
 -------------------
 Temperature   298.150 Kelvin.  Pressure   1.00000 Atm.
 Atom     1 has atomic number  6 and mass  12.00000

 Molecular mass:   213.09358 amu.
 Principal axes and moments of inertia in atomic units:
                           1         2         3
     Eigenvalues --  1030.323847170.634717408.97802
           X            0.99999  -0.00485  -0.00140
           Y            0.00492   0.99834   0.05739
           Z            0.00112  -0.05740   0.99835
 This molecule is an asymmetric top.
 Rotational symmetry number  1.
 Warning -- assumption of classical behavior for rotation
           may cause significant error
 Rotational temperatures (Kelvin)      0.08406     0.01208     0.01169
 Rotational constants (GHZ):           1.75163     0.25169     0.24359
 Zero-point vibrational energy     648807.1 (Joules/Mol)
                                  155.06861 (Kcal/Mol)
 Warning -- explicit consideration of  17 degrees of freedom as
           vibrations may cause significant error
 Vibrational temperatures:     30.31    46.11    66.47   156.74   191.14
          (Kelvin)            226.13   290.71   384.51   413.00   466.54
                              507.24   607.98   627.57   644.53   713.03
                              764.69   794.83   913.57   928.65   931.16
                              976.06  1052.52  1091.31  1133.21  1233.63
                             1254.75  1277.37  1293.85  1330.67  1332.47
                             1339.68  1409.23  1483.29  1489.83  1534.28
                             1545.54  1573.81  1619.30  1662.27  1695.60
                             1724.32  1734.23  1752.24  1808.96  1839.50
                             1870.83  1883.28  1893.80  1907.14  1929.03
                             1965.64  1982.95  2000.53  2020.30  2048.31
                             2051.42  2080.98  2157.19  2164.49  2170.14
                             2189.90  2191.85  2198.48  2211.45  2230.51
                             2306.16  4198.95  4219.44  4369.27  4376.69
                             4385.65  4395.82  4414.31  4424.26  4433.79
                             4437.38  4443.83  4448.13  4478.12  4646.08
                             5048.18

 Zero-point correction=                           0.247118 (Hartree/Particle)
 Thermal correction to Energy=                    0.259892
 Thermal correction to Enthalpy=                  0.260836
 Thermal correction to Gibbs Free Energy=         0.205414
 Sum of electronic and zero-point Energies=           -989.442063
 Sum of electronic and thermal Energies=              -989.429289
 Sum of electronic and thermal Enthalpies=            -989.428345
 Sum of electronic and thermal Free Energies=         -989.483767

                     E (Thermal)             CV                S
                      KCal/Mol        Cal/Mol-Kelvin    Cal/Mol-Kelvin
 Total                  163.085             48.923            116.645
 Electronic               0.000              0.000              0.000
 Translational            0.889              2.981             41.973
 Rotational               0.889              2.981             32.371
 Vibrational            161.307             42.961             42.301
 Vibration     1          0.593              1.985              6.531
 Vibration     2          0.594              1.983              5.698
 Vibration     3          0.595              1.979              4.974
 Vibration     4          0.606              1.942              3.288
 Vibration     5          0.613              1.921              2.904
 Vibration     6          0.621              1.895              2.584
 Vibration     7          0.639              1.837              2.114
 Vibration     8          0.672              1.733              1.614
 Vibration     9          0.684              1.698              1.491
 Vibration    10          0.709              1.627              1.289
 Vibration    11          0.729              1.570              1.155
 Vibration    12          0.785              1.421              0.883
 Vibration    13          0.797              1.391              0.839
 Vibration    14          0.807              1.365              0.802
 Vibration    15          0.851              1.260              0.669
 Vibration    16          0.886              1.180              0.584
 Vibration    17          0.908              1.134              0.539

 Optimization completed.
    -- Stationary point found.
 Normal termination of Gaussian 16 at Thu Dec 10 11:08:07 2020.

 ----------------------------------------------------------------------
 # B3LYP/6-311++G(d,p) empiricaldispersion=gd3bj scf=xqc pop=npa geom=c
 heck
 ----------------------------------------------------------------------

 --------------------------------------
 CID_65275270_JID_4973_Energie_neutraal
 --------------------------------------
 Structure from the checkpoint file:  "JID_4973.chk"
 Charge =  0 Multiplicity = 1

 SCF Done:  E(RB3LYP) =  -989.880493244     A.U. after   15 cycles
 Normal termination of Gaussian 16 at Thu Dec 10 11:12:16 2020.

 ----------------------------------------------------------------------
 # B3LYP/6-311++G(d,p) empiricaldispersion=gd3bj scf=xqc pop=npa geom=c
 heck
 ----------------------------------------------------------------------

 ------------------------------------
 CID_65275270_JID_4973_Energie_kation
 ------------------------------------
 Structure from the checkpoint file:  "JID_4973.chk"
 Charge =  1 Multiplicity = 2

 SCF Done:  E(UB3LYP) =  -989.571024432     A.U. after   28 cycles
 Normal termination of Gaussian 16 at Thu Dec 10 11:23:09 2020.
 Gaussian 16:  ES64L-G16RevA.03 25-Dec-2016

 ----------------------------------------------------------------------
 # B3LYP/6-311++G(d,p) empiricaldispersion=gd3bj scf=xqc pop=npa geom=c
 heck
 ----------------------------------------------------------------------

 -----------------------------------
 CID_65275270_JID_4973_Energie_anion
 -----------------------------------
 Structure from the checkpoint file:  "JID_4973.chk"
 Charge = -1 Multiplicity = 2

                         Standard orientation:
 ---------------------------------------------------------------------
 Center     Atomic      Atomic             Coordinates (Angstroms)
 Number     Number       Type             X           Y           Z
 ---------------------------------------------------------------------
      1          6           0       -2.758785    1.562693    0.506574
      2          6           0       -1.854485    0.485649    1.121861
      3          6           0       -1.876759   -0.821713    0.304963
      4          6           0       -3.339911   -1.262531    0.131656
      5          7           0       -4.100419   -0.200638   -0.530038
      6          6           0       -4.170530    1.009833    0.290337
      7          6           0       -1.201522   -0.717368   -1.075966
      8          6           0        0.188656   -0.115839   -1.062213
      9          8           0        1.006489   -0.891079   -0.157423
     10          6           0        2.243235   -0.469426    0.063973
     11          7           0        3.064102   -1.092834    0.864942
     12          6           0        4.248459   -0.408091    0.877883
     13          7           0        4.424795    0.680612    0.166898
     14         16           0        2.975620    0.966113   -0.661091
     15          1           0       -2.799979    2.442989    1.159010
     16          1           0       -2.357173    1.894944   -0.458930
     17          1           0       -0.830540    0.855409    1.247288
     18          1           0       -2.218112    0.256715    2.133070
     19          1           0       -1.351047   -1.592460    0.880292
     20          1           0       -3.394750   -2.165949   -0.487163
     21          1           0       -3.750780   -1.518246    1.127897
     22          1           0       -5.038752   -0.530230   -0.742228
     23          1           0       -4.631531    0.819556    1.280709
     24          1           0       -4.796783    1.745736   -0.226106
     25          1           0       -1.145878   -1.720069   -1.517818
     26          1           0       -1.824355   -0.113748   -1.744532
     27          1           0        0.646857   -0.144526   -2.058832
     28          1           0        0.176111    0.924737   -0.715123
     29          1           0        5.065385   -0.773266    1.492289
 ---------------------------------------------------------------------

 SCF Done:  E(UB3LYP) =  -989.871014772     A.U. after   32 cycles

 The electronic state is 2-A.
 Alpha  occ. eigenvalues --  -88.79481 -19.07973 -14.22008 -14.21071 -14.19267
 Alpha  occ. eigenvalues --  -10.18396 -10.14523 -10.12980 -10.08913 -10.08607
 Alpha  occ. eigenvalues --  -10.07641 -10.07548 -10.06738 -10.06546  -7.87956
 Alpha  occ. eigenvalues --   -5.84329  -5.83904  -5.83461  -1.00558  -0.89502
 Alpha  occ. eigenvalues --   -0.81005  -0.77320  -0.71647  -0.67459  -0.65983
 Alpha  occ. eigenvalues --   -0.64263  -0.56540  -0.53525  -0.51684  -0.49586
 Alpha  occ. eigenvalues --   -0.49037  -0.43884  -0.42525  -0.41477  -0.40512
 Alpha  occ. eigenvalues --   -0.37845  -0.35683  -0.35047  -0.34570  -0.32489
 Alpha  occ. eigenvalues --   -0.32168  -0.31596  -0.30306  -0.29888  -0.28413
 Alpha  occ. eigenvalues --   -0.27165  -0.26750  -0.25594  -0.24171  -0.22768
 Alpha  occ. eigenvalues --   -0.21375  -0.21085  -0.20921  -0.19007  -0.18260
 Alpha  occ. eigenvalues --   -0.15615  -0.12709   0.04397
 Alpha virt. eigenvalues --    0.05727   0.07365   0.07508   0.07947   0.08660
 Alpha virt. eigenvalues --    0.08980   0.09696   0.09872   0.10438   0.10870
 Alpha virt. eigenvalues --    0.11246   0.12452   0.12696   0.13065   0.13248

  Beta  occ. eigenvalues --  -88.79465 -19.07915 -14.21816 -14.21133 -14.19234
  Beta  occ. eigenvalues --  -10.18132 -10.14520 -10.12896 -10.08893 -10.08576
  Beta  occ. eigenvalues --  -10.07633 -10.07547 -10.06727 -10.06533  -7.87941
  Beta  occ. eigenvalues --   -5.84326  -5.83902  -5.83398  -1.00392  -0.89334
  Beta  occ. eigenvalues --   -0.80958  -0.77135  -0.71614  -0.67386  -0.65828
  Beta  occ. eigenvalues --   -0.64197  -0.56464  -0.53453  -0.51591  -0.49405
  Beta  occ. eigenvalues --   -0.48910  -0.43810  -0.42398  -0.41377  -0.40329
  Beta  occ. eigenvalues --   -0.37763  -0.35564  -0.34998  -0.34302  -0.32351
  Beta  occ. eigenvalues --   -0.32101  -0.31453  -0.30198  -0.29840  -0.28302
  Beta  occ. eigenvalues --   -0.26953  -0.26668  -0.25318  -0.24123  -0.22714
  Beta  occ. eigenvalues --   -0.21319  -0.21042  -0.20794  -0.18737  -0.18197
  Beta  occ. eigenvalues --   -0.14826  -0.12643
  Beta virt. eigenvalues --    0.06773   0.07668   0.07826   0.08117   0.08274
  Beta virt. eigenvalues --    0.08968   0.09105   0.10040   0.10242   0.10793
  Beta virt. eigenvalues --    0.11192   0.11353   0.12696   0.12880   0.13381

 Mulliken charges and spin densities:
               1          2
     1  C   -1.058032   0.693123
     2  C    0.484335  -0.806562
     3  C   -0.489841   1.029365
     4  C    0.724065  -1.438330
     5  N   -0.430154   0.290053
     6  C    1.511953  -1.852798
     7  C    0.218269  -0.890590
     8  C   -0.650873   0.292060
     9  O    0.060388   0.026497
    10  C   -0.023501   0.084818
    11  N   -0.171364  -0.012861
    12  C   -0.171843   0.099955
    13  N   -0.251984   0.068575
    14  S    0.090889   0.075187
    15  H   -0.219302   0.381581
    16  H    0.120057   0.001069
    17  H   -0.077022   0.195899
    18  H    0.049183   0.106641
    19  H    0.187183   0.040949
    20  H   -0.268519   0.436231
    21  H   -0.204497   0.323026
    22  H   -0.276459   0.545484
    23  H   -0.224505   0.343416
    24  H   -0.611442   0.781793
    25  H    0.212213  -0.036629
    26  H    0.075812   0.122488
    27  H    0.104465   0.060948
    28  H    0.131253   0.037968
    29  H    0.159274   0.000649
 Sum of Mulliken charges =  -1.00000   1.00000

 Dipole moment (field-independent basis, Debye):
    X=              6.4467    Y=             -0.5580    Z=             -1.1874  Tot=              6.5788
 Quadrupole moment (field-independent basis, Debye-Ang):
   XX=           -210.1311   YY=           -124.1021   ZZ=           -115.5585
   XY=              0.2175   XZ=             -3.9302   YZ=             -1.0106

 Summary of Natural Population Analysis:

                                       Natural Population
                Natural  -----------------------------------------------
    Atom  No    Charge         Core      Valence    Rydberg      Total
 -----------------------------------------------------------------------
      C    1   -0.19628      0.99962     2.18745    0.00921     3.19628
      C    2   -0.19314      0.99961     2.18422    0.00931     3.19314
      C    3   -0.11627      0.99959     2.10496    0.01172     3.11627
      C    4   -0.08426      0.99960     2.07181    0.01284     3.08426
      N    5   -0.34606      0.99974     2.83270    0.01362     3.84606
      C    6   -0.08574      0.99962     2.07374    0.01238     3.08574
      C    7   -0.20243      0.99960     2.19382    0.00900     3.20243
      C    8   -0.01481      0.99956     2.00565    0.00960     3.01481
      O    9   -0.25938      0.99983     3.24918    0.01037     4.25938
      C   10    0.23813      0.99958     1.74052    0.02177     2.76187
      N   11   -0.29119      0.99964     2.77822    0.01332     3.79119
      C   12    0.12624      0.99969     1.85581    0.01826     2.87376
      N   13   -0.30530      0.99974     2.79210    0.01346     3.80530
      S   14    0.22455      4.99948     2.74979    0.02618     7.77545
      H   15    0.09976      0.00000     0.39923    0.00101     0.40024
      H   16    0.09347      0.00000     0.40511    0.00142     0.40653
      H   17    0.09950      0.00000     0.39926    0.00124     0.40050
      H   18    0.09841      0.00000     0.40026    0.00133     0.40159
      H   19    0.10305      0.00000     0.39487    0.00207     0.39695
      H   20    0.09568      0.00000     0.40305    0.00127     0.40432
      H   21    0.08072      0.00000     0.41763    0.00165     0.41928
      H   22    0.18095      0.00000     0.31233    0.00672     0.31905
      H   23    0.07632      0.00000     0.42141    0.00227     0.42368
      H   24    0.09739      0.00000     0.40069    0.00192     0.40261
      H   25    0.10066      0.00000     0.39808    0.00126     0.39934
      H   26    0.11333      0.00000     0.38506    0.00161     0.38667
      H   27    0.08984      0.00000     0.40890    0.00126     0.41016
      H   28    0.08965      0.00000     0.40857    0.00178     0.41035
      H   29    0.08719      0.00000     0.41171    0.00110     0.41281
 =======================================================================
   * Total *    0.00000     17.99491    38.78613    0.21896    57.00000

 Normal termination of Gaussian 16 at Thu Dec 10 11:35:29 2020.
