 Gaussian 16, Revision A.03,

 -----------------------------------------------------------
 # opt freq B3LYP/6-31G(d) empiricaldispersion=gd3bj scf=xqc
 -----------------------------------------------------------

 ------------------------------
 CID_65130489_JID_1874_neutraal
 ------------------------------
 Symbolic Z-matrix:
 Charge =  0 Multiplicity = 1

 SCF Done:  E(RB3LYP) =  -826.022826523     A.U. after   14 cycles
 SCF Done:  E(RB3LYP) =  -826.026281361     A.U. after   12 cycles
 SCF Done:  E(RB3LYP) =  -826.026077885     A.U. after   13 cycles
 SCF Done:  E(RB3LYP) =  -826.026293406     A.U. after   13 cycles
 SCF Done:  E(RB3LYP) =  -826.026937328     A.U. after   13 cycles
 SCF Done:  E(RB3LYP) =  -826.026991190     A.U. after   12 cycles
 SCF Done:  E(RB3LYP) =  -826.027149297     A.U. after   11 cycles
 SCF Done:  E(RB3LYP) =  -826.027184445     A.U. after   11 cycles
 SCF Done:  E(RB3LYP) =  -826.027248490     A.U. after   11 cycles
 SCF Done:  E(RB3LYP) =  -826.027346785     A.U. after   12 cycles
 SCF Done:  E(RB3LYP) =  -826.027417794     A.U. after   12 cycles
 SCF Done:  E(RB3LYP) =  -826.027421409     A.U. after   10 cycles
 SCF Done:  E(RB3LYP) =  -826.027421790     A.U. after    8 cycles
 SCF Done:  E(RB3LYP) =  -826.027421827     A.U. after    8 cycles
 SCF Done:  E(RB3LYP) =  -826.027421822     A.U. after    7 cycles
 Optimization completed.
    -- Stationary point found.
 Normal termination of Gaussian 16 at Tue Dec  8 21:31:51 2020.

 --------------------------------------------------------------------
 #N Geom=AllCheck Guess=TCheck SCRF=Check GenChk RB3LYP/6-31G(d) Freq
 --------------------------------------------------------------------

 Structure from the checkpoint file:  "JID_1874.chk"
 ------------------------------
 CID_65130489_JID_1874_neutraal
 ------------------------------
 Charge =  0 Multiplicity = 1

 SCF Done:  E(RB3LYP) =  -826.027421822     A.U. after    1 cycles

  Exact polarizability: 141.439  -4.777 105.916   1.425   5.269  92.284
 Approx polarizability: 183.399 -13.273 159.769   5.131   5.902 143.815

                      1                      2                      3
                      A                      A                      A
 Frequencies --     32.8560                37.0737                53.6003
 Red. masses --      3.9782                 4.2083                 3.9181
 Frc consts  --      0.0025                 0.0034                 0.0066
 IR Inten    --      1.8448                 0.0570                 0.3536

                      4                      5                      6
                      A                      A                      A
 Frequencies --     64.6993                90.2218               106.7954
 Red. masses --      2.6611                 3.2603                 2.7340
 Frc consts  --      0.0066                 0.0156                 0.0184
 IR Inten    --      0.1533                 2.8068                 1.7451

                      7                      8                      9
                      A                      A                      A
 Frequencies --    137.5783               193.1131               209.7548
 Red. masses --      3.8440                 2.8625                 2.2307
 Frc consts  --      0.0429                 0.0629                 0.0578
 IR Inten    --      0.7448                 2.4291                 0.4785

                     10                     11                     12
                      A                      A                      A
 Frequencies --    261.5216               282.7925               292.4968
 Red. masses --      1.6533                 2.4351                 1.8178
 Frc consts  --      0.0666                 0.1147                 0.0916
 IR Inten    --      0.0247                 1.2785                 4.2456

                     13                     14                     15
                      A                      A                      A
 Frequencies --    366.1423               381.2559               428.0561
 Red. masses --      2.9884                 2.0235                 1.9279
 Frc consts  --      0.2360                 0.1733                 0.2081
 IR Inten    --      1.6904                 2.3431                 1.5269

                     16                     17                     18
                      A                      A                      A
 Frequencies --    458.4361               509.6359               597.7943
 Red. masses --      1.9903                 3.4800                 2.9137
 Frc consts  --      0.2464                 0.5325                 0.6135
 IR Inten    --      1.9759                14.4854                 6.3456

                     19                     20                     21
                      A                      A                      A
 Frequencies --    646.0408               672.3905               695.8660
 Red. masses --      3.9177                 1.7551                 3.3782
 Frc consts  --      0.9634                 0.4675                 0.9638
 IR Inten    --      2.3035                 2.6392                 3.3448

                     22                     23                     24
                      A                      A                      A
 Frequencies --    760.5742               775.3161               806.0119
 Red. masses --      2.7859                 1.1751                 2.0551
 Frc consts  --      0.9495                 0.4162                 0.7866
 IR Inten    --      7.0409                 7.9784                 4.3688

                     25                     26                     27
                      A                      A                      A
 Frequencies --    874.4752               924.5170               932.5398
 Red. masses --      2.0775                 2.1528                 1.7626
 Frc consts  --      0.9360                 1.0841                 0.9031
 IR Inten    --      4.1768                 0.7970                 5.3405

                     28                     29                     30
                      A                      A                      A
 Frequencies --    942.6432               985.5048               996.1850
 Red. masses --      1.3551                 1.5378                 1.9471
 Frc consts  --      0.7094                 0.8800                 1.1385
 IR Inten    --     33.4261                 1.6358                 6.4182

                     31                     32                     33
                      A                      A                      A
 Frequencies --   1024.1059              1052.6300              1076.9381
 Red. masses --      1.6903                 1.1281                 1.4446
 Frc consts  --      1.0445                 0.7365                 0.9871
 IR Inten    --      1.3732                15.9816                 0.9281

                     34                     35                     36
                      A                      A                      A
 Frequencies --   1086.0616              1102.1665              1112.9963
 Red. masses --      1.8850                 2.5515                 1.5491
 Frc consts  --      1.3100                 1.8261                 1.1306
 IR Inten    --      1.5094                 0.4733                28.0972

                     37                     38                     39
                      A                      A                      A
 Frequencies --   1156.9357              1195.1312              1237.2985
 Red. masses --      1.5292                 1.1820                 1.5177
 Frc consts  --      1.2060                 0.9948                 1.3689
 IR Inten    --      7.8751                 4.3902                23.9721

                     40                     41                     42
                      A                      A                      A
 Frequencies --   1259.3779              1282.2412              1297.6439
 Red. masses --      1.2819                 1.5758                 1.1966
 Frc consts  --      1.1979                 1.5264                 1.1872
 IR Inten    --     15.3898                32.7171                 5.0887

                     43                     44                     45
                      A                      A                      A
 Frequencies --   1329.2067              1331.1713              1333.6016
 Red. masses --      1.3379                 1.2601                 1.2052
 Frc consts  --      1.3927                 1.3156                 1.2629
 IR Inten    --     15.2323                12.6331                 6.6107

                     46                     47                     48
                      A                      A                      A
 Frequencies --   1361.2404              1391.9277              1397.2687
 Red. masses --      1.5248                 1.3359                 1.3634
 Frc consts  --      1.6647                 1.5249                 1.5684
 IR Inten    --      3.7510                 4.7226                13.4416

                     49                     50                     51
                      A                      A                      A
 Frequencies --   1437.4749              1475.5542              1488.7907
 Red. masses --      1.2223                 1.1785                 1.1065
 Frc consts  --      1.4881                 1.5118                 1.4449
 IR Inten    --      5.4753                 0.8418                13.5544

                     52                     53                     54
                      A                      A                      A
 Frequencies --   1492.1853              1500.4277              1515.9693
 Red. masses --      1.0826                 1.0880                 1.0867
 Frc consts  --      1.4203                 1.4432                 1.4714
 IR Inten    --     18.9229                 5.2454                 6.2515

                     55                     56                     57
                      A                      A                      A
 Frequencies --   1521.1048              1523.1306              1543.1270
 Red. masses --      1.0521                 1.0915                 1.0454
 Frc consts  --      1.4342                 1.4919                 1.4667
 IR Inten    --      7.0814                14.2651                 2.7331

                     58                     59                     60
                      A                      A                      A
 Frequencies --   1733.8584              1786.5446              3037.4773
 Red. masses --      4.4508                10.6842                 1.0647
 Frc consts  --      7.8835                20.0918                 5.7879
 IR Inten    --      3.3703               155.8858                23.2103

                     61                     62                     63
                      A                      A                      A
 Frequencies --   3051.1528              3056.0864              3058.7625
 Red. masses --      1.0595                 1.0379                 1.0650
 Frc consts  --      5.8112                 5.7113                 5.8710
 IR Inten    --     31.5108                28.6682                 6.8856

                     64                     65                     66
                      A                      A                      A
 Frequencies --   3072.1749              3077.9759              3093.0759
 Red. masses --      1.0592                 1.1006                 1.1000
 Frc consts  --      5.8900                 6.1435                 6.2005
 IR Inten    --     13.7240                15.3058                48.5426

                     67                     68                     69
                      A                      A                      A
 Frequencies --   3106.3138              3114.5008              3115.8667
 Red. masses --      1.0584                 1.0969                 1.1056
 Frc consts  --      6.0174                 6.2687                 6.3243
 IR Inten    --     11.7423                14.4810                 4.6778

                     70                     71                     72
                      A                      A                      A
 Frequencies --   3122.5288              3151.2563              3151.5593
 Red. masses --      1.0995                 1.1035                 1.0592
 Frc consts  --      6.3163                 6.4562                 6.1982
 IR Inten    --     23.5151                16.0316                17.1789

                     73                     74                     75
                      A                      A                      A
 Frequencies --   3164.2469              3164.5678              3233.5795
 Red. masses --      1.0948                 1.1047                 1.1151
 Frc consts  --      6.4584                 6.5183                 6.8696
 IR Inten    --      6.5788                 4.4233                19.6604

 - Thermochemistry -
 -------------------
 Temperature   298.150 Kelvin.  Pressure   1.00000 Atm.
 Atom     1 has atomic number  6 and mass  12.00000

 Molecular mass:   172.09219 amu.
 Principal axes and moments of inertia in atomic units:
                           1         2         3
     Eigenvalues --  1257.444313356.668024043.05288
           X            0.99994   0.01100   0.00295
           Y           -0.01110   0.99921   0.03813
           Z           -0.00253  -0.03816   0.99927
 This molecule is an asymmetric top.
 Rotational symmetry number  1.
 Warning -- assumption of classical behavior for rotation
           may cause significant error
 Rotational temperatures (Kelvin)      0.06888     0.02580     0.02142
 Rotational constants (GHZ):           1.43525     0.53766     0.44638
 Zero-point vibrational energy     618069.3 (Joules/Mol)
                                  147.72212 (Kcal/Mol)
 Warning -- explicit consideration of  18 degrees of freedom as
           vibrations may cause significant error
 Vibrational temperatures:     47.27    53.34    77.12    93.09   129.81
          (Kelvin)            153.65   197.94   277.85   301.79   376.27
                              406.88   420.84   526.80   548.54   615.88
                              659.59   733.25   860.09   929.51   967.42
                             1001.20  1094.30  1115.51  1159.67  1258.17
                             1330.17  1341.72  1356.25  1417.92  1433.29
                             1473.46  1514.50  1549.47  1562.60  1585.77
                             1601.35  1664.57  1719.53  1780.20  1811.96
                             1844.86  1867.02  1912.43  1915.26  1918.76
                             1958.52  2002.67  2010.36  2068.21  2122.99
                             2142.04  2146.92  2158.78  2181.14  2188.53
                             2191.45  2220.22  2494.64  2570.44  4370.25
                             4389.93  4397.03  4400.88  4420.17  4428.52
                             4450.25  4469.29  4481.07  4483.04  4492.62
                             4533.95  4534.39  4552.65  4553.11  4652.40

 Zero-point correction=                           0.235410 (Hartree/Particle)
 Thermal correction to Energy=                    0.249059
 Thermal correction to Enthalpy=                  0.250004
 Thermal correction to Gibbs Free Energy=         0.193257
 Sum of electronic and zero-point Energies=           -825.792012
 Sum of electronic and thermal Energies=              -825.778362
 Sum of electronic and thermal Enthalpies=            -825.777418
 Sum of electronic and thermal Free Energies=         -825.834165

                     E (Thermal)             CV                S
                      KCal/Mol        Cal/Mol-Kelvin    Cal/Mol-Kelvin
 Total                  156.287             48.346            119.433
 Electronic               0.000              0.000              0.000
 Translational            0.889              2.981             41.336
 Rotational               0.889              2.981             31.212
 Vibrational            154.510             42.385             46.885
 Vibration     1          0.594              1.983              5.649
 Vibration     2          0.594              1.982              5.410
 Vibration     3          0.596              1.976              4.680
 Vibration     4          0.597              1.971              4.308
 Vibration     5          0.602              1.956              3.655
 Vibration     6          0.606              1.944              3.326
 Vibration     7          0.614              1.916              2.837
 Vibration     8          0.635              1.849              2.198
 Vibration     9          0.642              1.826              2.046
 Vibration    10          0.669              1.743              1.652
 Vibration    11          0.682              1.706              1.517
 Vibration    12          0.688              1.688              1.459
 Vibration    13          0.739              1.542              1.096
 Vibration    14          0.751              1.510              1.034
 Vibration    15          0.790              1.409              0.865
 Vibration    16          0.816              1.342              0.771
 Vibration    17          0.865              1.229              0.634
 Vibration    18          0.956              1.036              0.453

 Optimization completed.
    -- Stationary point found.
 Normal termination of Gaussian 16 at Tue Dec  8 21:38:50 2020.

 ----------------------------------------------------------------------
 # B3LYP/6-311++G(d,p) empiricaldispersion=gd3bj scf=xqc pop=npa geom=c
 heck
 ----------------------------------------------------------------------

 --------------------------------------
 CID_65130489_JID_1874_Energie_neutraal
 --------------------------------------
 Structure from the checkpoint file:  "JID_1874.chk"
 Charge =  0 Multiplicity = 1

 SCF Done:  E(RB3LYP) =  -826.180775767     A.U. after   14 cycles
 Normal termination of Gaussian 16 at Tue Dec  8 21:43:03 2020.

 ----------------------------------------------------------------------
 # B3LYP/6-311++G(d,p) empiricaldispersion=gd3bj scf=xqc pop=npa geom=c
 heck
 ----------------------------------------------------------------------

 ------------------------------------
 CID_65130489_JID_1874_Energie_kation
 ------------------------------------
 Structure from the checkpoint file:  "JID_1874.chk"
 Charge =  1 Multiplicity = 2

 SCF Done:  E(UB3LYP) =  -825.871667331     A.U. after   25 cycles
 Normal termination of Gaussian 16 at Tue Dec  8 21:48:56 2020.
 Gaussian 16:  ES64L-G16RevA.03 25-Dec-2016

 ----------------------------------------------------------------------
 # B3LYP/6-311++G(d,p) empiricaldispersion=gd3bj scf=xqc pop=npa geom=c
 heck
 ----------------------------------------------------------------------

 -----------------------------------
 CID_65130489_JID_1874_Energie_anion
 -----------------------------------
 Structure from the checkpoint file:  "JID_1874.chk"
 Charge = -1 Multiplicity = 2

                         Standard orientation:
 ---------------------------------------------------------------------
 Center     Atomic      Atomic             Coordinates (Angstroms)
 Number     Number       Type             X           Y           Z
 ---------------------------------------------------------------------
      1          6           0       -3.699391   -0.602595   -0.239980
      2          6           0       -2.361398   -1.129713   -0.748182
      3         16           0       -1.049208   -1.264418    0.535784
      4          6           0       -0.942751    0.480132    1.111393
      5          6           0       -0.635957    1.398502   -0.059140
      6          8           0       -1.530900    2.075087   -0.538019
      7          6           0        0.753110    1.397761   -0.682044
      8          6           0        1.963253    1.394215    0.274495
      9          6           0        2.441222    0.020623    0.797853
     10          6           0        2.752518   -0.962667   -0.297496
     11          6           0        3.983410   -1.291780   -0.689849
     12          1           0       -4.051441   -1.178418    0.621759
     13          1           0       -4.450989   -0.674399   -1.035184
     14          1           0       -3.619147    0.450481    0.042320
     15          1           0       -2.454643   -2.155096   -1.121136
     16          1           0       -1.992136   -0.511880   -1.572682
     17          1           0       -1.881622    0.790652    1.572982
     18          1           0       -0.151609    0.486083    1.864406
     19          1           0        0.811544    0.530785   -1.352855
     20          1           0        0.780540    2.283838   -1.322811
     21          1           0        2.803684    1.841319   -0.268664
     22          1           0        1.764173    2.058167    1.126701
     23          1           0        3.339674    0.189356    1.404081
     24          1           0        1.692597   -0.419420    1.467597
     25          1           0        1.894083   -1.420118   -0.788046
     26          1           0        4.159442   -2.000406   -1.494633
     27          1           0        4.866283   -0.867829   -0.214524
 ---------------------------------------------------------------------

 SCF Done:  E(UB3LYP) =  -826.167791997     A.U. after   33 cycles
 SCF Done:  E(UB3LYP) =  -826.167791999     a.u. after    2 cycles

 The electronic state is 2-A.
 Alpha  occ. eigenvalues --  -88.72377 -18.96183 -10.10531 -10.09373 -10.07701
 Alpha  occ. eigenvalues --  -10.06309 -10.05990 -10.05549 -10.05287 -10.04915
 Alpha  occ. eigenvalues --  -10.04628  -7.81013  -5.77409  -5.77056  -5.76384
 Alpha  occ. eigenvalues --   -0.90043  -0.70388  -0.69335  -0.65148  -0.63110
 Alpha  occ. eigenvalues --   -0.57934  -0.55634  -0.49882  -0.48024  -0.43773
 Alpha  occ. eigenvalues --   -0.39759  -0.37282  -0.36395  -0.34943  -0.33932
 Alpha  occ. eigenvalues --   -0.32188  -0.31235  -0.30386  -0.29035  -0.28578
 Alpha  occ. eigenvalues --   -0.27782  -0.27355  -0.26052  -0.24789  -0.22986
 Alpha  occ. eigenvalues --   -0.22829  -0.21809  -0.20746  -0.19828  -0.15052
 Alpha  occ. eigenvalues --   -0.12747  -0.10563   0.05429
 Alpha virt. eigenvalues --    0.07228   0.07573   0.08412   0.09503   0.09577
 Alpha virt. eigenvalues --    0.09933   0.10690   0.11013   0.11398   0.11644
 Alpha virt. eigenvalues --    0.12383   0.13263   0.13656   0.13933   0.14678

  Beta  occ. eigenvalues --  -88.72328 -18.95841 -10.10241 -10.09376 -10.07664
  Beta  occ. eigenvalues --  -10.06299 -10.05982 -10.05534 -10.05230 -10.04848
  Beta  occ. eigenvalues --  -10.04642  -7.80963  -5.77325  -5.76980  -5.76347
  Beta  occ. eigenvalues --   -0.89404  -0.70241  -0.69267  -0.64973  -0.63000
  Beta  occ. eigenvalues --   -0.57768  -0.55508  -0.49685  -0.47853  -0.43637
  Beta  occ. eigenvalues --   -0.39361  -0.37167  -0.36254  -0.34850  -0.33829
  Beta  occ. eigenvalues --   -0.32040  -0.31012  -0.30231  -0.28927  -0.28470
  Beta  occ. eigenvalues --   -0.27416  -0.27155  -0.25947  -0.24495  -0.22807
  Beta  occ. eigenvalues --   -0.22639  -0.21577  -0.20454  -0.19098  -0.14833
  Beta  occ. eigenvalues --   -0.12558  -0.10327
  Beta virt. eigenvalues --    0.07243   0.08114   0.08681   0.09479   0.09676
  Beta virt. eigenvalues --    0.10115   0.10219   0.11162   0.11486   0.11692
  Beta virt. eigenvalues --    0.11945   0.12746   0.13157   0.13807   0.14253

 Mulliken charges and spin densities:
               1          2
     1  C   -0.345178  -0.290908
     2  C   -0.392075   0.055998
     3  S   -0.194585   0.291463
     4  C    0.650335  -0.763509
     5  C   -0.773056   0.456642
     6  O   -0.313652   0.113613
     7  C   -0.159545   0.094925
     8  C    0.335459  -0.683567
     9  C    0.802794  -0.880020
    10  C   -1.402858   1.566887
    11  C    1.171809  -1.784425
    12  H    0.097464   0.022369
    13  H   -0.034863   0.138136
    14  H    0.151701   0.040895
    15  H    0.155238   0.015873
    16  H    0.162744   0.065720
    17  H    0.272086  -0.038686
    18  H    0.058900   0.146430
    19  H   -0.060278   0.188828
    20  H    0.037105   0.139174
    21  H   -0.125585   0.255617
    22  H   -0.335574   0.499980
    23  H   -0.753352   0.958398
    24  H    0.160050  -0.119319
    25  H    0.067904   0.069919
    26  H    0.018605   0.073620
    27  H   -0.251594   0.365946
 Sum of Mulliken charges =  -1.00000   1.00000

 Dipole moment (field-independent basis, Debye):
    X=             -4.8812    Y=             -3.5682    Z=             -1.2656  Tot=              6.1774
 Quadrupole moment (field-independent basis, Debye-Ang):
   XX=           -141.0262   YY=           -111.4536   ZZ=            -99.2738
   XY=              3.7040   XZ=             -9.1510   YZ=              0.4489

 Summary of Natural Population Analysis:

                                       Natural Population
                Natural  -----------------------------------------------
    Atom  No    Charge         Core      Valence    Rydberg      Total
 -----------------------------------------------------------------------
      C    1   -0.29428      0.99965     2.28921    0.00543     3.29428
      C    2   -0.25635      0.99961     2.24529    0.01145     3.25635
      S    3    0.09579      4.99964     2.88670    0.01787     7.90421
      C    4   -0.29052      0.99955     2.28000    0.01097     3.29052
      C    5    0.31679      0.99964     1.65949    0.02408     2.68321
      O    6   -0.27285      0.99988     3.26581    0.00716     4.27285
      C    7   -0.24151      0.99958     2.23087    0.01107     3.24151
      C    8   -0.18485      0.99962     2.17625    0.00898     3.18485
      C    9   -0.21063      0.99960     2.19967    0.01136     3.21063
      C   10   -0.08170      0.99956     2.07143    0.01071     3.08170
      C   11   -0.19033      0.99956     2.18356    0.00721     3.19033
      H   12    0.09493      0.00000     0.40386    0.00121     0.40507
      H   13    0.09533      0.00000     0.40318    0.00149     0.40467
      H   14    0.11060      0.00000     0.38790    0.00150     0.38940
      H   15    0.09953      0.00000     0.39949    0.00098     0.40047
      H   16    0.10456      0.00000     0.39402    0.00142     0.39544
      H   17    0.10578      0.00000     0.39273    0.00149     0.39422
      H   18    0.11180      0.00000     0.38690    0.00130     0.38820
      H   19    0.10997      0.00000     0.38864    0.00139     0.39003
      H   20    0.10717      0.00000     0.39168    0.00115     0.39283
      H   21    0.09862      0.00000     0.39984    0.00154     0.40138
      H   22    0.10035      0.00000     0.39726    0.00239     0.39965
      H   23    0.10056      0.00000     0.39755    0.00189     0.39944
      H   24    0.09772      0.00000     0.40059    0.00169     0.40228
      H   25    0.09586      0.00000     0.40279    0.00135     0.40414
      H   26    0.08835      0.00000     0.41081    0.00084     0.41165
      H   27    0.08931      0.00000     0.40936    0.00133     0.41069
 =======================================================================
   * Total *    0.00000     14.99589    31.85486    0.14926    47.00000

 Normal termination of Gaussian 16 at Tue Dec  8 22:01:18 2020.
