 Gaussian 16, Revision A.03,

 -----------------------------------------------------------
 # opt freq B3LYP/6-31G(d) empiricaldispersion=gd3bj scf=xqc
 -----------------------------------------------------------

 ------------------------------
 CID_86778352_JID_6965_neutraal
 ------------------------------
 Symbolic Z-matrix:
 Charge =  0 Multiplicity = 1

 SCF Done:  E(RB3LYP) =  -747.738602649     A.U. after   14 cycles
 SCF Done:  E(RB3LYP) =  -747.745456447     A.U. after   12 cycles
 SCF Done:  E(RB3LYP) =  -747.746213114     A.U. after   11 cycles
 SCF Done:  E(RB3LYP) =  -747.746423661     A.U. after   10 cycles
 SCF Done:  E(RB3LYP) =  -747.746501368     A.U. after   11 cycles
 SCF Done:  E(RB3LYP) =  -747.746537141     A.U. after   10 cycles
 SCF Done:  E(RB3LYP) =  -747.746554309     A.U. after    9 cycles
 SCF Done:  E(RB3LYP) =  -747.746559257     A.U. after    9 cycles
 SCF Done:  E(RB3LYP) =  -747.746561718     A.U. after    8 cycles
 SCF Done:  E(RB3LYP) =  -747.746562945     A.U. after    8 cycles
 SCF Done:  E(RB3LYP) =  -747.746563176     A.U. after    7 cycles
 SCF Done:  E(RB3LYP) =  -747.746563480     A.U. after    8 cycles
 SCF Done:  E(RB3LYP) =  -747.746563573     A.U. after    7 cycles
 SCF Done:  E(RB3LYP) =  -747.746563604     A.U. after    7 cycles
 SCF Done:  E(RB3LYP) =  -747.746563623     A.U. after    6 cycles
 Optimization completed.
    -- Stationary point found.
 Normal termination of Gaussian 16 at Fri Dec 11 00:32:03 2020.

 --------------------------------------------------------------------
 #N Geom=AllCheck Guess=TCheck SCRF=Check GenChk RB3LYP/6-31G(d) Freq
 --------------------------------------------------------------------

 Structure from the checkpoint file:  "JID_6965.chk"
 ------------------------------
 CID_86778352_JID_6965_neutraal
 ------------------------------
 Charge =  0 Multiplicity = 1

 SCF Done:  E(RB3LYP) =  -747.746563623     A.U. after    1 cycles

  Exact polarizability: 192.919  -2.204 137.298  -6.247  -2.805 111.786
 Approx polarizability: 218.748   3.986 198.168  -9.355  -1.793 166.798

                      1                      2                      3
                      A                      A                      A
 Frequencies --     14.6486                24.9845                36.9800
 Red. masses --      3.7486                 3.5988                 3.6558
 Frc consts  --      0.0005                 0.0013                 0.0029
 IR Inten    --      0.2634                 0.3052                 0.2199

                      4                      5                      6
                      A                      A                      A
 Frequencies --     66.2925                80.2919                83.1435
 Red. masses --      2.6622                 2.9646                 3.1578
 Frc consts  --      0.0069                 0.0113                 0.0129
 IR Inten    --      1.7396                 0.7489                 2.9100

                      7                      8                      9
                      A                      A                      A
 Frequencies --    105.9964               108.7818               124.2842
 Red. masses --      2.7049                 3.2039                 3.8724
 Frc consts  --      0.0179                 0.0223                 0.0352
 IR Inten    --      1.8819                 7.0838                 4.4847

                     10                     11                     12
                      A                      A                      A
 Frequencies --    134.1043               188.2350               189.6423
 Red. masses --      2.3806                 2.2900                 2.5995
 Frc consts  --      0.0252                 0.0478                 0.0551
 IR Inten    --      1.2076                 1.0541                 4.7044

                     13                     14                     15
                      A                      A                      A
 Frequencies --    221.4652               235.7956               248.7502
 Red. masses --      2.5149                 1.4997                 1.3279
 Frc consts  --      0.0727                 0.0491                 0.0484
 IR Inten    --     10.7890                 2.2284                 2.1915

                     16                     17                     18
                      A                      A                      A
 Frequencies --    252.6070               290.3953               352.1954
 Red. masses --      2.7782                 2.8550                 1.4346
 Frc consts  --      0.1044                 0.1419                 0.1048
 IR Inten    --      5.2011                 6.4441                20.5810

                     19                     20                     21
                      A                      A                      A
 Frequencies --    359.7992               377.3320               381.2691
 Red. masses --      2.1071                 2.5674                 2.1969
 Frc consts  --      0.1607                 0.2154                 0.1882
 IR Inten    --      3.2977                 5.2105                19.5394

                     22                     23                     24
                      A                      A                      A
 Frequencies --    437.8891               459.7938               477.6322
 Red. masses --      2.5444                 2.1353                 3.7212
 Frc consts  --      0.2875                 0.2660                 0.5002
 IR Inten    --      4.4000                 1.9626                 6.6426

                     25                     26                     27
                      A                      A                      A
 Frequencies --    533.1090               548.6294               626.1158
 Red. masses --      2.9255                 2.8342                 2.2314
 Frc consts  --      0.4899                 0.5026                 0.5154
 IR Inten    --      1.4060                 3.5172                15.0843

                     28                     29                     30
                      A                      A                      A
 Frequencies --    630.5946               688.7334               751.9630
 Red. masses --      1.7372                 2.8541                 4.0126
 Frc consts  --      0.4070                 0.7977                 1.3368
 IR Inten    --    101.5488                14.0722                82.4988

                     31                     32                     33
                      A                      A                      A
 Frequencies --    794.9049               826.2232               851.6383
 Red. masses --      1.7558                 1.2431                 2.5570
 Frc consts  --      0.6537                 0.5000                 1.0927
 IR Inten    --      4.8272                 2.1554                 8.9506

                     34                     35                     36
                      A                      A                      A
 Frequencies --    857.7892               893.5006               905.9819
 Red. masses --      2.5958                 2.4805                 2.1227
 Frc consts  --      1.1253                 1.1668                 1.0265
 IR Inten    --      0.6711                 3.1277                 7.0525

                     37                     38                     39
                      A                      A                      A
 Frequencies --    925.1933               965.6969               979.2472
 Red. masses --      2.5384                 1.5424                 1.4000
 Frc consts  --      1.2802                 0.8475                 0.7910
 IR Inten    --     14.2223                 2.7302                 1.2414

                     40                     41                     42
                      A                      A                      A
 Frequencies --    996.9972              1012.4608              1024.3564
 Red. masses --      2.1223                 2.5489                 2.3166
 Frc consts  --      1.2429                 1.5394                 1.4322
 IR Inten    --      1.4919                41.8100                 0.4256

                     43                     44                     45
                      A                      A                      A
 Frequencies --   1059.7726              1093.7496              1105.8514
 Red. masses --      2.8376                 2.4632                 2.3736
 Frc consts  --      1.8777                 1.7361                 1.7102
 IR Inten    --     45.4032                 1.9885                13.1146

                     46                     47                     48
                      A                      A                      A
 Frequencies --   1124.0490              1135.0050              1152.5443
 Red. masses --      2.1082                 1.9739                 1.8932
 Frc consts  --      1.5694                 1.4982                 1.4817
 IR Inten    --      2.0429                 8.7065               109.2458

                     49                     50                     51
                      A                      A                      A
 Frequencies --   1157.9930              1169.5709              1185.2065
 Red. masses --      2.9717                 2.6229                 4.4102
 Frc consts  --      2.3478                 2.1139                 3.6501
 IR Inten    --     98.1077                42.0758               139.6478

                     52                     53                     54
                      A                      A                      A
 Frequencies --   1186.8506              1188.9972              1196.0291
 Red. masses --      1.9251                 1.9700                 1.3386
 Frc consts  --      1.5977                 1.6409                 1.1282
 IR Inten    --     16.7999                21.1305                 3.4003

                     55                     56                     57
                      A                      A                      A
 Frequencies --   1205.3941              1236.9067              1242.0886
 Red. masses --      1.3951                 1.5531                 1.7505
 Frc consts  --      1.1943                 1.4000                 1.5911
 IR Inten    --      3.8342                14.5341                16.1311

                     58                     59                     60
                      A                      A                      A
 Frequencies --   1249.0120              1273.2679              1283.3474
 Red. masses --      1.3400                 1.7124                 1.1613
 Frc consts  --      1.2317                 1.6357                 1.1269
 IR Inten    --     27.0503                36.6980                15.5355

                     61                     62                     63
                      A                      A                      A
 Frequencies --   1294.7197              1316.3816              1327.4646
 Red. masses --      1.3002                 1.1982                 1.2987
 Frc consts  --      1.2841                 1.2234                 1.3484
 IR Inten    --      4.9447                18.9467                35.2568

                     64                     65                     66
                      A                      A                      A
 Frequencies --   1329.6667              1348.4063              1382.9670
 Red. masses --      1.2434                 1.2080                 1.3790
 Frc consts  --      1.2953                 1.2941                 1.5540
 IR Inten    --      0.8640                17.0132                21.2647

                     67                     68                     69
                      A                      A                      A
 Frequencies --   1383.7235              1389.7949              1412.3513
 Red. masses --      1.4088                 1.3200                 1.2822
 Frc consts  --      1.5893                 1.5022                 1.5069
 IR Inten    --     36.6896                40.2392                19.0302

                     70                     71                     72
                      A                      A                      A
 Frequencies --   1422.3380              1430.6626              1443.1296
 Red. masses --      1.4658                 1.2466                 1.4635
 Frc consts  --      1.7471                 1.5033                 1.7958
 IR Inten    --     48.4013                 9.4442                38.4997

                     73                     74                     75
                      A                      A                      A
 Frequencies --   1455.7489              1464.3781              1501.3663
 Red. masses --      1.6926                 3.4816                 1.1550
 Frc consts  --      2.1134                 4.3988                 1.5340
 IR Inten    --     51.7044               149.9722                 5.9462

                     76                     77                     78
                      A                      A                      A
 Frequencies --   1506.6782              1515.1653              1520.0417
 Red. masses --      1.1013                 1.0481                 1.0495
 Frc consts  --      1.4730                 1.4176                 1.4288
 IR Inten    --      4.3743                 5.3304                 6.0650

                     79                     80                     81
                      A                      A                      A
 Frequencies --   1522.8396              1527.7364              1531.5311
 Red. masses --      1.0964                 1.0696                 1.0510
 Frc consts  --      1.4981                 1.4709                 1.4524
 IR Inten    --      2.0908                11.4313                14.2940

                     82                     83                     84
                      A                      A                      A
 Frequencies --   1547.9515              1550.3595              1553.9739
 Red. masses --      1.0882                 1.0868                 1.0879
 Frc consts  --      1.5363                 1.5390                 1.5479
 IR Inten    --      6.7273                 9.0183                13.0875

                     85                     86                     87
                      A                      A                      A
 Frequencies --   1555.0234              1562.6753              1678.3701
 Red. masses --      1.0962                 1.0981                 1.3411
 Frc consts  --      1.5617                 1.5799                 2.2259
 IR Inten    --     14.0101                 5.2135               232.8366

                     88                     89                     90
                      A                      A                      A
 Frequencies --   1726.6229              2906.2155              2967.9640
 Red. masses --      3.6776                 1.0748                 1.0592
 Frc consts  --      6.4597                 5.3486                 5.4970
 IR Inten    --    484.3415               115.3187                46.8967

                     91                     92                     93
                      A                      A                      A
 Frequencies --   2981.8782              2992.3114              2999.3571
 Red. masses --      1.0686                 1.0404                 1.0618
 Frc consts  --      5.5980                 5.4886                 5.6280
 IR Inten    --     24.5461                91.3750                55.5083

                     94                     95                     96
                      A                      A                      A
 Frequencies --   3004.3131              3020.0662              3028.2931
 Red. masses --      1.0767                 1.0884                 1.0961
 Frc consts  --      5.7256                 5.8490                 5.9225
 IR Inten    --      3.4600               113.7850                33.1138

                     97                     98                     99
                      A                      A                      A
 Frequencies --   3032.9362              3035.7673              3045.2746
 Red. masses --      1.0763                 1.1052                 1.0443
 Frc consts  --      5.8330                 6.0008                 5.7062
 IR Inten    --     36.2547                56.2168                34.3705

                    100                    101                    102
                      A                      A                      A
 Frequencies --   3045.5393              3054.1286              3057.2502
 Red. masses --      1.0676                 1.0860                 1.0791
 Frc consts  --      5.8345                 5.9684                 5.9428
 IR Inten    --      6.9980                49.4270                47.8216

                    103                    104                    105
                      A                      A                      A
 Frequencies --   3070.6275              3093.6066              3112.7929
 Red. masses --      1.0930                 1.0970                 1.1018
 Frc consts  --      6.0720                 6.1855                 6.2903
 IR Inten    --     64.8019                41.7334                60.9999

                    106                    107                    108
                      A                      A                      A
 Frequencies --   3125.9185              3131.6064              3137.1945
 Red. masses --      1.1024                 1.0908                 1.0970
 Frc consts  --      6.3466                 6.3026                 6.3615
 IR Inten    --     30.7410                13.9853                22.5312

                    109                    110                    111
                      A                      A                      A
 Frequencies --   3139.0294              3549.5796              3646.4834
 Red. masses --      1.0968                 1.0482                 1.0969
 Frc consts  --      6.3676                 7.7814                 8.5934
 IR Inten    --     30.1035                 4.8398                 9.6323

 - Thermochemistry -
 -------------------
 Temperature   298.150 Kelvin.  Pressure   1.00000 Atm.
 Atom     1 has atomic number  6 and mass  12.00000

 Molecular mass:   229.17903 amu.
 Principal axes and moments of inertia in atomic units:
                           1         2         3
     Eigenvalues --  1406.99634********************
           X            0.99999   0.00005  -0.00525
           Y           -0.00013   0.99990  -0.01446
           Z            0.00525   0.01446   0.99988
 This molecule is an asymmetric top.
 Rotational symmetry number  1.
 Warning -- assumption of classical behavior for rotation
           may cause significant error
 Rotational temperatures (Kelvin)      0.06156     0.00788     0.00736
 Rotational constants (GHZ):           1.28269     0.16426     0.15326
 Zero-point vibrational energy     919278.0 (Joules/Mol)
                                  219.71272 (Kcal/Mol)
 Warning -- explicit consideration of  26 degrees of freedom as
           vibrations may cause significant error
 Vibrational temperatures:     21.08    35.95    53.21    95.38   115.52
          (Kelvin)            119.62   152.51   156.51   178.82   192.95
                              270.83   272.85   318.64   339.26   357.90
                              363.45   417.81   506.73   517.67   542.90
                              548.56   630.02   661.54   687.21   767.02
                              789.36   900.84   907.28   990.93  1081.91
                             1143.69  1188.75  1225.32  1234.17  1285.55
                             1303.51  1331.15  1389.42  1408.92  1434.46
                             1456.71  1473.82  1524.78  1573.66  1591.07
                             1617.26  1633.02  1658.25  1666.09  1682.75
                             1705.25  1707.61  1710.70  1720.82  1734.29
                             1779.63  1787.09  1797.05  1831.95  1846.45
                             1862.81  1893.98  1909.93  1913.09  1940.06
                             1989.78  1990.87  1999.60  2032.06  2046.43
                             2058.40  2076.34  2094.50  2106.91  2160.13
                             2167.77  2179.98  2187.00  2191.03  2198.07
                             2203.53  2227.16  2230.62  2235.82  2237.33
                             2248.34  2414.80  2484.23  4181.40  4270.24
                             4290.26  4305.27  4315.41  4322.54  4345.20
                             4357.04  4363.72  4367.79  4381.47  4381.85
                             4394.21  4398.70  4417.95  4451.01  4478.61
                             4497.50  4505.68  4513.72  4516.36  5107.05
                             5246.48

 Zero-point correction=                           0.350135 (Hartree/Particle)
 Thermal correction to Energy=                    0.368528
 Thermal correction to Enthalpy=                  0.369472
 Thermal correction to Gibbs Free Energy=         0.300890
 Sum of electronic and zero-point Energies=           -747.396429
 Sum of electronic and thermal Energies=              -747.378035
 Sum of electronic and thermal Enthalpies=            -747.377091
 Sum of electronic and thermal Free Energies=         -747.445674

                     E (Thermal)             CV                S
                      KCal/Mol        Cal/Mol-Kelvin    Cal/Mol-Kelvin
 Total                  231.255             66.314            144.345
 Electronic               0.000              0.000              0.000
 Translational            0.889              2.981             42.190
 Rotational               0.889              2.981             33.564
 Vibrational            229.478             60.353             68.590
 Vibration     1          0.593              1.986              7.253
 Vibration     2          0.593              1.985              6.192
 Vibration     3          0.594              1.982              5.415
 Vibration     4          0.598              1.970              4.261
 Vibration     5          0.600              1.963              3.884
 Vibration     6          0.600              1.961              3.815
 Vibration     7          0.605              1.944              3.341
 Vibration     8          0.606              1.942              3.291
 Vibration     9          0.610              1.929              3.033
 Vibration    10          0.613              1.919              2.886
 Vibration    11          0.633              1.856              2.245
 Vibration    12          0.633              1.854              2.231
 Vibration    13          0.648              1.808              1.947
 Vibration    14          0.655              1.786              1.834
 Vibration    15          0.662              1.765              1.739
 Vibration    16          0.664              1.758              1.712
 Vibration    17          0.686              1.692              1.472
 Vibration    18          0.729              1.571              1.156
 Vibration    19          0.734              1.555              1.123
 Vibration    20          0.748              1.518              1.050
 Vibration    21          0.751              1.510              1.034
 Vibration    22          0.798              1.388              0.833
 Vibration    23          0.818              1.339              0.767
 Vibration    24          0.834              1.300              0.716
 Vibration    25          0.888              1.177              0.580
 Vibration    26          0.904              1.143              0.547

                           ! Non-Optimized Parameters !
 Normal termination of Gaussian 16 at Fri Dec 11 00:43:17 2020.

 ----------------------------------------------------------------------
 # B3LYP/6-311++G(d,p) empiricaldispersion=gd3bj scf=xqc pop=npa geom=c
 heck
 ----------------------------------------------------------------------

 --------------------------------------
 CID_86778352_JID_6965_Energie_neutraal
 --------------------------------------
 Structure from the checkpoint file:  "JID_6965.chk"
 Charge =  0 Multiplicity = 1

 SCF Done:  E(RB3LYP) =  -747.968261228     A.U. after   14 cycles
 Normal termination of Gaussian 16 at Fri Dec 11 00:49:31 2020.

 ----------------------------------------------------------------------
 # B3LYP/6-311++G(d,p) empiricaldispersion=gd3bj scf=xqc pop=npa geom=c
 heck
 ----------------------------------------------------------------------

 ------------------------------------
 CID_86778352_JID_6965_Energie_kation
 ------------------------------------
 Structure from the checkpoint file:  "JID_6965.chk"
 Charge =  1 Multiplicity = 2

 SCF Done:  E(UB3LYP) =  -747.699067055     A.U. after   25 cycles
 Normal termination of Gaussian 16 at Fri Dec 11 01:05:24 2020.
 Gaussian 16:  ES64L-G16RevA.03 25-Dec-2016

 ----------------------------------------------------------------------
 # B3LYP/6-311++G(d,p) empiricaldispersion=gd3bj scf=xqc pop=npa geom=c
 heck
 ----------------------------------------------------------------------

 -----------------------------------
 CID_86778352_JID_6965_Energie_anion
 -----------------------------------
 Structure from the checkpoint file:  "JID_6965.chk"
 Charge = -1 Multiplicity = 2

                         Standard orientation:
 ---------------------------------------------------------------------
 Center     Atomic      Atomic             Coordinates (Angstroms)
 Number     Number       Type             X           Y           Z
 ---------------------------------------------------------------------
      1          6           0       -5.538579    0.673542    1.503429
      2          6           0       -5.346473    0.220234    0.049351
      3          7           0       -4.053144   -0.391249   -0.175456
      4          6           0       -3.032474    0.358121   -0.408311
      5          7           0       -3.010924    1.762675   -0.405215
      6          7           0       -1.800671   -0.212938   -0.659046
      7          6           0       -1.621944   -1.662510   -0.491715
      8          6           0       -0.186716   -1.797014    0.026979
      9          6           0        0.530212   -0.579579   -0.573951
     10          6           0       -0.542746    0.517738   -0.501950
     11          6           0        1.820245   -0.191176    0.124558
     12          8           0        2.735331   -1.269744   -0.028548
     13          6           0        3.915097   -1.168957    0.743531
     14          6           0        4.957531   -0.220472    0.170795
     15          8           0        4.563448    1.119855    0.401518
     16          6           0        5.469398    2.052236   -0.147372
     17          1           0       -5.375546   -0.171903    2.179728
     18          1           0       -6.550832    1.062165    1.669115
     19          1           0       -4.819156    1.455974    1.770337
     20          1           0       -6.114299   -0.524738   -0.193729
     21          1           0       -5.546671    1.075442   -0.627788
     22          1           0       -2.379538    2.177498   -1.080315
     23          1           0       -3.933435    2.174164   -0.471264
     24          1           0       -1.755753   -2.174519   -1.454311
     25          1           0       -2.379743   -2.047247    0.193463
     26          1           0       -0.173841   -1.720519    1.122345
     27          1           0        0.286585   -2.742179   -0.247846
     28          1           0        0.756239   -0.785680   -1.628299
     29          1           0       -0.505452    1.050565    0.461416
     30          1           0       -0.397169    1.264091   -1.294970
     31          1           0        2.237258    0.734783   -0.290952
     32          1           0        1.628303   -0.011605    1.196281
     33          1           0        3.683168   -0.867605    1.777482
     34          1           0        4.342593   -2.177698    0.768016
     35          1           0        5.932910   -0.417924    0.650659
     36          1           0        5.069538   -0.413033   -0.908921
     37          1           0        6.476195    1.942286    0.286897
     38          1           0        5.551565    1.944582   -1.240715
     39          1           0        5.088723    3.049821    0.085560
 ---------------------------------------------------------------------

 SCF Done:  E(UB3LYP) =  -747.958063079     A.U. after   29 cycles

 The electronic state is 2-A.
 Alpha  occ. eigenvalues --  -19.04051 -19.03797 -14.23025 -14.22552 -14.16863
 Alpha  occ. eigenvalues --  -10.16593 -10.13421 -10.13006 -10.12300 -10.12124
 Alpha  occ. eigenvalues --  -10.11036 -10.10198 -10.09858 -10.08738 -10.07918
 Alpha  occ. eigenvalues --  -10.06923  -0.95989  -0.94465  -0.89042  -0.81544
 Alpha  occ. eigenvalues --   -0.76829  -0.71512  -0.67550  -0.65088  -0.64732
 Alpha  occ. eigenvalues --   -0.60547  -0.57096  -0.54684  -0.52069  -0.51372
 Alpha  occ. eigenvalues --   -0.48714  -0.45737  -0.44027  -0.42487  -0.41527
 Alpha  occ. eigenvalues --   -0.41068  -0.40330  -0.38662  -0.37378  -0.37060
 Alpha  occ. eigenvalues --   -0.35450  -0.35165  -0.34359  -0.33551  -0.31923
 Alpha  occ. eigenvalues --   -0.31760  -0.31193  -0.30081  -0.29436  -0.28742
 Alpha  occ. eigenvalues --   -0.28046  -0.26682  -0.25898  -0.25808  -0.24578
 Alpha  occ. eigenvalues --   -0.24454  -0.23909  -0.22884  -0.18323  -0.16914
 Alpha  occ. eigenvalues --   -0.16540  -0.14832  -0.11576   0.03852
 Alpha virt. eigenvalues --    0.05240   0.06617   0.06971   0.07524   0.07741
 Alpha virt. eigenvalues --    0.08529   0.09048   0.09114   0.09601   0.09844
 Alpha virt. eigenvalues --    0.10548   0.11137   0.11280   0.11558   0.11681

  Beta  occ. eigenvalues --  -19.04042 -19.03792 -14.23025 -14.22499 -14.16863
  Beta  occ. eigenvalues --  -10.16589 -10.13413 -10.12982 -10.12295 -10.12080
  Beta  occ. eigenvalues --  -10.11008 -10.10196 -10.09842 -10.08734 -10.07915
  Beta  occ. eigenvalues --  -10.06913  -0.95976  -0.94453  -0.89019  -0.81511
  Beta  occ. eigenvalues --   -0.76774  -0.71497  -0.67523  -0.65066  -0.64708
  Beta  occ. eigenvalues --   -0.60506  -0.57039  -0.54650  -0.52030  -0.51329
  Beta  occ. eigenvalues --   -0.48684  -0.45703  -0.43957  -0.42463  -0.41490
  Beta  occ. eigenvalues --   -0.41023  -0.40296  -0.38635  -0.37347  -0.37034
  Beta  occ. eigenvalues --   -0.35424  -0.35140  -0.34342  -0.33530  -0.31900
  Beta  occ. eigenvalues --   -0.31734  -0.31160  -0.30062  -0.29414  -0.28715
  Beta  occ. eigenvalues --   -0.28026  -0.26663  -0.25879  -0.25785  -0.24546
  Beta  occ. eigenvalues --   -0.24408  -0.23893  -0.22861  -0.18302  -0.16889
  Beta  occ. eigenvalues --   -0.16506  -0.14818  -0.11568
  Beta virt. eigenvalues --    0.05995   0.06248   0.07120   0.07406   0.07761
  Beta virt. eigenvalues --    0.07921   0.08627   0.09423   0.09508   0.09696
  Beta virt. eigenvalues --    0.10120   0.10746   0.11246   0.11483   0.11650

 Mulliken charges and spin densities:
               1          2
     1  C   -0.180225  -0.186089
     2  C   -0.104566  -0.186463
     3  N   -0.186216   0.060769
     4  C    0.087866  -0.200965
     5  N   -0.286696  -0.014114
     6  N    0.108912   0.050199
     7  C   -0.352733  -0.106173
     8  C   -0.016047  -0.240644
     9  C    0.491993  -0.257420
    10  C    0.318526  -0.896246
    11  C   -0.876768   0.125308
    12  O   -0.066523   0.012258
    13  C   -0.167612  -0.063855
    14  C    0.332302  -0.503172
    15  O   -0.211825   0.077465
    16  C    0.751866  -1.027137
    17  H    0.121372   0.010496
    18  H   -0.009472   0.116454
    19  H    0.056801   0.084446
    20  H    0.090892   0.054915
    21  H   -0.146724   0.243507
    22  H   -0.186012   0.435367
    23  H   -0.145103   0.397724
    24  H    0.067164   0.084261
    25  H    0.225330  -0.029763
    26  H    0.104858   0.045316
    27  H    0.172998  -0.005557
    28  H    0.086867   0.131145
    29  H    0.099302   0.106094
    30  H   -0.493539   0.681768
    31  H    0.282118  -0.081142
    32  H    0.111502   0.011786
    33  H    0.138315  -0.000420
    34  H   -0.101194   0.260603
    35  H   -0.221487   0.360274
    36  H    0.052520   0.093748
    37  H   -0.394993   0.520497
    38  H   -0.295710   0.434353
    39  H   -0.258058   0.400406
 Sum of Mulliken charges =  -1.00000   1.00000

 Dipole moment (field-independent basis, Debye):
    X=             -3.0060    Y=             -5.6266    Z=              2.5723  Tot=              6.8783
 Quadrupole moment (field-independent basis, Debye-Ang):
   XX=           -231.6797   YY=           -144.8594   ZZ=           -129.5229
   XY=             -5.7438   XZ=             -2.6366   YZ=              4.4930

 Summary of Natural Population Analysis:

                                       Natural Population
                Natural  -----------------------------------------------
    Atom  No    Charge         Core      Valence    Rydberg      Total
 -----------------------------------------------------------------------
      C    1   -0.29058      0.99966     2.28642    0.00450     3.29058
      C    2   -0.09781      0.99963     2.08500    0.01317     3.09781
      N    3   -0.31693      0.99965     2.80697    0.01032     3.81693
      C    4    0.31913      0.99957     1.66515    0.01615     2.68087
      N    5   -0.41517      0.99972     2.90585    0.00960     3.91517
      N    6   -0.26393      0.99965     2.75357    0.01071     3.76393
      C    7   -0.07961      0.99963     2.07118    0.00880     3.07961
      C    8   -0.19253      0.99962     2.18541    0.00750     3.19253
      C    9   -0.12236      0.99959     2.11124    0.01153     3.12236
      C   10   -0.07998      0.99960     2.06872    0.01166     3.07998
      C   11   -0.00616      0.99953     1.99380    0.01283     3.00616
      O   12   -0.30157      0.99988     3.29306    0.00864     4.30157
      C   13   -0.01529      0.99957     2.00247    0.01325     3.01529
      C   14   -0.02304      0.99959     2.01104    0.01242     3.02304
      O   15   -0.30102      0.99988     3.29125    0.00989     4.30102
      C   16   -0.09741      0.99962     2.08834    0.00945     3.09741
      H   17    0.09709      0.00000     0.40164    0.00127     0.40291
      H   18    0.09300      0.00000     0.40592    0.00108     0.40700
      H   19    0.09826      0.00000     0.40050    0.00124     0.40174
      H   20    0.08896      0.00000     0.40975    0.00129     0.41104
      H   21    0.07450      0.00000     0.42345    0.00206     0.42550
      H   22    0.19354      0.00000     0.30214    0.00432     0.30646
      H   23    0.18957      0.00000     0.30779    0.00264     0.31043
      H   24    0.08924      0.00000     0.40947    0.00130     0.41076
      H   25    0.10975      0.00000     0.38879    0.00146     0.39025
      H   26    0.09415      0.00000     0.40470    0.00115     0.40585
      H   27    0.10591      0.00000     0.39318    0.00092     0.39409
      H   28    0.10038      0.00000     0.39762    0.00201     0.39962
      H   29    0.09283      0.00000     0.40594    0.00124     0.40717
      H   30    0.09861      0.00000     0.39947    0.00192     0.40139
      H   31    0.09408      0.00000     0.40379    0.00214     0.40592
      H   32    0.07637      0.00000     0.42224    0.00139     0.42363
      H   33    0.08149      0.00000     0.41713    0.00138     0.41851
      H   34    0.09050      0.00000     0.40848    0.00102     0.40950
      H   35    0.08147      0.00000     0.41656    0.00197     0.41853
      H   36    0.08318      0.00000     0.41529    0.00154     0.41682
      H   37    0.07925      0.00000     0.41854    0.00221     0.42075
      H   38    0.08015      0.00000     0.41805    0.00180     0.41985
      H   39    0.09200      0.00000     0.40679    0.00121     0.40800
 =======================================================================
   * Total *    0.00000     15.99440    46.79667    0.20893    63.00000

 Normal termination of Gaussian 16 at Fri Dec 11 01:23:34 2020.
