 Gaussian 16, Revision A.03,

 -----------------------------------------------------------
 # opt freq B3LYP/6-31G(d) empiricaldispersion=gd3bj scf=xqc
 -----------------------------------------------------------

 -------------------------------
 CID_115232955_JID_3937_neutraal
 -------------------------------
 Symbolic Z-matrix:
 Charge =  0 Multiplicity = 1

 SCF Done:  E(RB3LYP) =  -611.358626666     A.U. after   15 cycles
 SCF Done:  E(RB3LYP) =  -611.350456548     A.U. after   13 cycles
 SCF Done:  E(RB3LYP) =  -611.361534948     A.U. after   12 cycles
 SCF Done:  E(RB3LYP) =  -611.361672061     A.U. after   13 cycles
 SCF Done:  E(RB3LYP) =  -611.363022303     A.U. after   12 cycles
 SCF Done:  E(RB3LYP) =  -611.363373486     A.U. after   12 cycles
 SCF Done:  E(RB3LYP) =  -611.363385849     A.U. after   12 cycles
 SCF Done:  E(RB3LYP) =  -611.363513668     A.U. after   11 cycles
 SCF Done:  E(RB3LYP) =  -611.363582085     A.U. after   10 cycles
 SCF Done:  E(RB3LYP) =  -611.363599735     A.U. after   10 cycles
 SCF Done:  E(RB3LYP) =  -611.363601885     A.U. after    8 cycles
 SCF Done:  E(RB3LYP) =  -611.363603199     A.U. after    8 cycles
 SCF Done:  E(RB3LYP) =  -611.363603555     A.U. after    8 cycles
 SCF Done:  E(RB3LYP) =  -611.363603736     A.U. after    7 cycles
 SCF Done:  E(RB3LYP) =  -611.363603887     A.U. after    8 cycles
 Optimization completed.
    -- Stationary point found.
 Normal termination of Gaussian 16 at Sun Dec 13 20:08:29 2020.

 --------------------------------------------------------------------
 #N Geom=AllCheck Guess=TCheck SCRF=Check GenChk RB3LYP/6-31G(d) Freq
 --------------------------------------------------------------------

 Structure from the checkpoint file:  "JID_3937.chk"
 -------------------------------
 CID_115232955_JID_3937_neutraal
 -------------------------------
 Charge =  0 Multiplicity = 1

 SCF Done:  E(RB3LYP) =  -611.363603887     A.U. after    1 cycles

  Exact polarizability: 105.592  -2.447 123.708 -12.844  -2.930  88.481
 Approx polarizability: 146.082  -1.211 178.039 -27.156  -6.914 151.590

                      1                      2                      3
                      A                      A                      A
 Frequencies --     31.4492                52.4535                77.6314
 Red. masses --      4.9216                 5.4684                 2.9835
 Frc consts  --      0.0029                 0.0089                 0.0106
 IR Inten    --      0.3717                 1.9465                 0.9254

                      4                      5                      6
                      A                      A                      A
 Frequencies --    108.9268               119.3821               155.1401
 Red. masses --      3.8609                 3.6402                 1.3673
 Frc consts  --      0.0270                 0.0306                 0.0194
 IR Inten    --      0.3143                 0.9828                 0.5347

                      7                      8                      9
                      A                      A                      A
 Frequencies --    165.1224               219.5938               250.4072
 Red. masses --      2.2297                 4.6866                 1.0834
 Frc consts  --      0.0358                 0.1332                 0.0400
 IR Inten    --      0.9564                 7.8157                 1.2043

                     10                     11                     12
                      A                      A                      A
 Frequencies --    274.0416               284.6382               305.7549
 Red. masses --      3.8975                 3.4133                 3.1925
 Frc consts  --      0.1725                 0.1629                 0.1758
 IR Inten    --      2.3399                10.3258                 9.6015

                     13                     14                     15
                      A                      A                      A
 Frequencies --    360.9303               428.0727               455.1734
 Red. masses --      4.6595                 1.9643                 2.7986
 Frc consts  --      0.3576                 0.2121                 0.3416
 IR Inten    --      7.4777                 6.8853                10.8441

                     16                     17                     18
                      A                      A                      A
 Frequencies --    479.1369               502.5947               595.5380
 Red. masses --      2.3362                 1.5343                 3.9925
 Frc consts  --      0.3160                 0.2283                 0.8343
 IR Inten    --     22.7995                83.3614                13.3645

                     19                     20                     21
                      A                      A                      A
 Frequencies --    630.3443               649.7822               700.4815
 Red. masses --      3.4817                 2.9334                 1.2428
 Frc consts  --      0.8151                 0.7297                 0.3593
 IR Inten    --      1.3907                10.6830                43.0275

                     22                     23                     24
                      A                      A                      A
 Frequencies --    754.3323               759.7683               800.9377
 Red. masses --      2.8897                 5.2564                 1.4370
 Frc consts  --      0.9688                 1.7877                 0.5431
 IR Inten    --     40.6539                12.9698                38.9741

                     25                     26                     27
                      A                      A                      A
 Frequencies --    846.7196               864.9210               890.5702
 Red. masses --      3.0588                 1.3872                 4.8895
 Frc consts  --      1.2921                 0.6114                 2.2848
 IR Inten    --      2.4851                 1.3443                10.0999

                     28                     29                     30
                      A                      A                      A
 Frequencies --    907.4454               945.3117               975.5129
 Red. masses --      5.5554                 1.9564                 2.8185
 Frc consts  --      2.6953                 1.0301                 1.5803
 IR Inten    --      2.4064                 0.6386                12.9566

                     31                     32                     33
                      A                      A                      A
 Frequencies --    993.7763              1037.4377              1063.2908
 Red. masses --      2.5082                 4.5006                 1.3509
 Frc consts  --      1.4594                 2.8540                 0.8999
 IR Inten    --      1.9816                26.9547                19.2214

                     34                     35                     36
                      A                      A                      A
 Frequencies --   1072.3876              1131.6251              1140.3850
 Red. masses --      2.1384                 1.9267                 2.1767
 Frc consts  --      1.4489                 1.4537                 1.6678
 IR Inten    --     38.6642                11.2497               114.0830

                     37                     38                     39
                      A                      A                      A
 Frequencies --   1153.7515              1173.0693              1188.7994
 Red. masses --      1.5317                 1.4555                 1.2808
 Frc consts  --      1.2013                 1.1801                 1.0664
 IR Inten    --     19.9135                22.6074                 0.1995

                     40                     41                     42
                      A                      A                      A
 Frequencies --   1195.8441              1218.2952              1253.3000
 Red. masses --      1.5345                 1.4644                 2.8929
 Frc consts  --      1.2929                 1.2806                 2.6773
 IR Inten    --     33.3508                 5.0389               141.3901

                     43                     44                     45
                      A                      A                      A
 Frequencies --   1280.2069              1311.3803              1364.2302
 Red. masses --      3.2240                 1.8490                 1.5054
 Frc consts  --      3.1132                 1.8735                 1.6507
 IR Inten    --     13.2864                 6.2837                19.4646

                     46                     47                     48
                      A                      A                      A
 Frequencies --   1383.6450              1392.6722              1406.8584
 Red. masses --      1.4543                 1.3016                 1.3949
 Frc consts  --      1.6405                 1.4874                 1.6266
 IR Inten    --      1.9086                40.7497                 7.6050

                     49                     50                     51
                      A                      A                      A
 Frequencies --   1463.7643              1478.1472              1481.7322
 Red. masses --      2.8929                 1.3082                 1.3587
 Frc consts  --      3.6520                 1.6841                 1.7575
 IR Inten    --      6.2415                 2.7162                 8.0620

                     52                     53                     54
                      A                      A                      A
 Frequencies --   1486.2548              1488.4249              1496.8429
 Red. masses --      1.4282                 1.2051                 1.2307
 Frc consts  --      1.8588                 1.5730                 1.6247
 IR Inten    --      9.1524                 5.5654                 6.3689

                     55                     56                     57
                      A                      A                      A
 Frequencies --   1506.7285              1510.5499              1513.5399
 Red. masses --      3.5767                 1.0621                 1.0537
 Frc consts  --      4.7841                 1.4278                 1.4222
 IR Inten    --     10.0095                 7.1847                 5.9533

                     58                     59                     60
                      A                      A                      A
 Frequencies --   1526.2815              1547.1950              1626.3045
 Red. masses --      1.0464                 1.0577                 3.4204
 Frc consts  --      1.4362                 1.4918                 5.3301
 IR Inten    --      4.8618                 9.9722                 0.8605

                     61                     62                     63
                      A                      A                      A
 Frequencies --   1831.1787              3028.0457              3036.2583
 Red. masses --     10.9437                 1.0364                 1.0605
 Frc consts  --     21.6209                 5.5991                 5.7600
 IR Inten    --    148.5126                48.9661                31.8248

                     64                     65                     66
                      A                      A                      A
 Frequencies --   3047.7843              3078.8719              3085.2906
 Red. masses --      1.0627                 1.0286                 1.1028
 Frc consts  --      5.8160                 5.7448                 6.1850
 IR Inten    --     27.1239                27.7968                 7.5488

                     67                     68                     69
                      A                      A                      A
 Frequencies --   3086.2119              3110.5642              3120.8459
 Red. masses --      1.1012                 1.1014                 1.1022
 Frc consts  --      6.1798                 6.2787                 6.3248
 IR Inten    --     49.6134                17.8686                32.7188

                     70                     71                     72
                      A                      A                      A
 Frequencies --   3159.1458              3181.3392              3248.3071
 Red. masses --      1.1076                 1.1082                 1.0906
 Frc consts  --      6.5127                 6.6085                 6.7802
 IR Inten    --     16.4447                15.5582                 5.5539

                     73                     74                     75
                      A                      A                      A
 Frequencies --   3260.8248              3279.0032              3651.8472
 Red. masses --      1.0943                 1.1039                 1.0804
 Frc consts  --      6.8554                 6.9928                 8.4888
 IR Inten    --      7.1730                 4.8507                65.8909

 - Thermochemistry -
 -------------------
 Temperature   298.150 Kelvin.  Pressure   1.00000 Atm.
 Atom     1 has atomic number  6 and mass  12.00000

 Molecular mass:   182.10553 amu.
 Principal axes and moments of inertia in atomic units:
                           1         2         3
     Eigenvalues --  1869.744542229.118383306.34754
           X            0.99956   0.02665  -0.01288
           Y           -0.02675   0.99961  -0.00814
           Z            0.01266   0.00848   0.99988
 This molecule is an asymmetric top.
 Rotational symmetry number  1.
 Warning -- assumption of classical behavior for rotation
           may cause significant error
 Rotational temperatures (Kelvin)      0.04632     0.03886     0.02620
 Rotational constants (GHZ):           0.96523     0.80962     0.54584
 Zero-point vibrational energy     602226.2 (Joules/Mol)
                                  143.93551 (Kcal/Mol)
 Warning -- explicit consideration of  18 degrees of freedom as
           vibrations may cause significant error
 Vibrational temperatures:     45.25    75.47   111.69   156.72   171.76
          (Kelvin)            223.21   237.57   315.95   360.28   394.28
                              409.53   439.91   519.30   615.90   654.89
                              689.37   723.12   856.85   906.92   934.89
                             1007.84  1085.32  1093.14  1152.37  1218.24
                             1244.43  1281.33  1305.61  1360.09  1403.55
                             1429.82  1492.64  1529.84  1542.93  1628.16
                             1640.76  1659.99  1687.79  1710.42  1720.55
                             1752.86  1803.22  1841.93  1886.78  1962.82
                             1990.76  2003.74  2024.16  2106.03  2126.72
                             2131.88  2138.39  2141.51  2153.62  2167.85
                             2173.34  2177.65  2195.98  2226.07  2339.89
                             2634.66  4356.68  4368.50  4385.08  4429.81
                             4439.04  4440.37  4475.41  4490.20  4545.31
                             4577.24  4673.59  4691.60  4717.75  5254.19

 Zero-point correction=                           0.229376 (Hartree/Particle)
 Thermal correction to Energy=                    0.242557
 Thermal correction to Enthalpy=                  0.243501
 Thermal correction to Gibbs Free Energy=         0.189001
 Sum of electronic and zero-point Energies=           -611.134228
 Sum of electronic and thermal Energies=              -611.121047
 Sum of electronic and thermal Enthalpies=            -611.120103
 Sum of electronic and thermal Free Energies=         -611.174603

                     E (Thermal)             CV                S
                      KCal/Mol        Cal/Mol-Kelvin    Cal/Mol-Kelvin
 Total                  152.207             48.622            114.705
 Electronic               0.000              0.000              0.000
 Translational            0.889              2.981             41.505
 Rotational               0.889              2.981             31.000
 Vibrational            150.429             42.661             42.200
 Vibration     1          0.594              1.983              5.736
 Vibration     2          0.596              1.977              4.723
 Vibration     3          0.599              1.964              3.950
 Vibration     4          0.606              1.942              3.288
 Vibration     5          0.609              1.933              3.110
 Vibration     6          0.620              1.897              2.608
 Vibration     7          0.624              1.885              2.490
 Vibration     8          0.647              1.811              1.962
 Vibration     9          0.663              1.762              1.728
 Vibration    10          0.676              1.721              1.571
 Vibration    11          0.683              1.702              1.506
 Vibration    12          0.696              1.663              1.385
 Vibration    13          0.735              1.553              1.118
 Vibration    14          0.790              1.409              0.865
 Vibration    15          0.814              1.349              0.780
 Vibration    16          0.836              1.296              0.712
 Vibration    17          0.858              1.244              0.652
 Vibration    18          0.953              1.041              0.457

                           ! Non-Optimized Parameters !
 Normal termination of Gaussian 16 at Sun Dec 13 20:16:10 2020.

 ----------------------------------------------------------------------
 # B3LYP/6-311++G(d,p) empiricaldispersion=gd3bj scf=xqc pop=npa geom=c
 heck
 ----------------------------------------------------------------------

 ---------------------------------------
 CID_115232955_JID_3937_Energie_neutraal
 ---------------------------------------
 Structure from the checkpoint file:  "JID_3937.chk"
 Charge =  0 Multiplicity = 1

 SCF Done:  E(RB3LYP) =  -611.540917766     A.U. after   15 cycles
 Normal termination of Gaussian 16 at Sun Dec 13 20:19:32 2020.

 ----------------------------------------------------------------------
 # B3LYP/6-311++G(d,p) empiricaldispersion=gd3bj scf=xqc pop=npa geom=c
 heck
 ----------------------------------------------------------------------

 -------------------------------------
 CID_115232955_JID_3937_Energie_kation
 -------------------------------------
 Structure from the checkpoint file:  "JID_3937.chk"
 Charge =  1 Multiplicity = 2

 SCF Done:  E(UB3LYP) =  -611.262812781     A.U. after   24 cycles
 Normal termination of Gaussian 16 at Sun Dec 13 20:27:04 2020.
 Gaussian 16:  ES64L-G16RevA.03 25-Dec-2016

 ----------------------------------------------------------------------
 # B3LYP/6-311++G(d,p) empiricaldispersion=gd3bj scf=xqc pop=npa geom=c
 heck
 ----------------------------------------------------------------------

 ------------------------------------
 CID_115232955_JID_3937_Energie_anion
 ------------------------------------
 Structure from the checkpoint file:  "JID_3937.chk"
 Charge = -1 Multiplicity = 2

                         Standard orientation:
 ---------------------------------------------------------------------
 Center     Atomic      Atomic             Coordinates (Angstroms)
 Number     Number       Type             X           Y           Z
 ---------------------------------------------------------------------
      1          6           0        0.400413   -2.466406    0.958399
      2          7           0        0.598895   -1.984357   -0.403298
      3          6           0       -0.644559   -1.575299   -1.070343
      4          6           0       -1.424528   -0.439033   -0.472721
      5          6           0       -2.434569   -0.432750    0.472648
      6          6           0       -2.798654    0.920825    0.719463
      7          6           0       -2.002096    1.711153   -0.082689
      8          7           0       -1.185538    0.877695   -0.810148
      9          6           0        1.727307   -1.088307   -0.583234
     10          6           0        1.690452    0.216279    0.216459
     11          8           0        1.644018    0.290842    1.423037
     12          8           0        1.725546    1.309560   -0.594162
     13          6           0        1.675756    2.569884    0.101016
     14          1           0       -0.306439   -3.304264    0.930094
     15          1           0        0.014176   -1.705850    1.650505
     16          1           0        1.354734   -2.831833    1.350997
     17          1           0       -0.392029   -1.346907   -2.114438
     18          1           0       -1.292994   -2.459038   -1.087621
     19          1           0       -2.867439   -1.314182    0.926820
     20          1           0       -3.563493    1.274277    1.397292
     21          1           0       -1.965163    2.782899   -0.214219
     22          1           0       -0.426150    1.180809   -1.401889
     23          1           0        2.634442   -1.615840   -0.261161
     24          1           0        1.830775   -0.856413   -1.647798
     25          1           0        0.735011    2.656334    0.650575
     26          1           0        2.509028    2.650493    0.802701
     27          1           0        1.748394    3.334865   -0.672729
 ---------------------------------------------------------------------

 SCF Done:  E(UB3LYP) =  -611.527104256     A.U. after   33 cycles
 SCF Done:  E(UB3LYP) =  -611.527104257     a.u. after    1 cycles

 The electronic state is 2-A.
 Alpha  occ. eigenvalues --  -19.07199 -19.01559 -14.25081 -14.21522 -10.20015
 Alpha  occ. eigenvalues --  -10.11807 -10.11060 -10.10534 -10.09211 -10.08912
 Alpha  occ. eigenvalues --  -10.08516 -10.05648 -10.05470  -1.00924  -0.92405
 Alpha  occ. eigenvalues --   -0.87555  -0.82945  -0.67395  -0.66645  -0.64876
 Alpha  occ. eigenvalues --   -0.60548  -0.58814  -0.51693  -0.48810  -0.47088
 Alpha  occ. eigenvalues --   -0.46574  -0.42417  -0.41318  -0.39903  -0.38506
 Alpha  occ. eigenvalues --   -0.37036  -0.36284  -0.34461  -0.33113  -0.31954
 Alpha  occ. eigenvalues --   -0.30926  -0.29959  -0.29615  -0.29350  -0.28501
 Alpha  occ. eigenvalues --   -0.27695  -0.26801  -0.26364  -0.26036  -0.21337
 Alpha  occ. eigenvalues --   -0.19233  -0.14800  -0.12359  -0.11067   0.04538
 Alpha virt. eigenvalues --    0.06711   0.07478   0.08102   0.08557   0.09127
 Alpha virt. eigenvalues --    0.09384   0.09966   0.10705   0.11144   0.11562
 Alpha virt. eigenvalues --    0.11980   0.12441   0.13352   0.13956   0.14466

  Beta  occ. eigenvalues --  -19.07185 -19.01551 -14.25058 -14.21523 -10.20009
  Beta  occ. eigenvalues --  -10.11755 -10.11034 -10.10511 -10.09210 -10.08892
  Beta  occ. eigenvalues --  -10.08497 -10.05647 -10.05459  -1.00903  -0.92385
  Beta  occ. eigenvalues --   -0.87527  -0.82934  -0.67362  -0.66606  -0.64837
  Beta  occ. eigenvalues --   -0.60486  -0.58771  -0.51644  -0.48766  -0.47063
  Beta  occ. eigenvalues --   -0.46524  -0.42360  -0.41284  -0.39874  -0.38465
  Beta  occ. eigenvalues --   -0.37006  -0.36236  -0.34414  -0.33086  -0.31913
  Beta  occ. eigenvalues --   -0.30890  -0.29930  -0.29593  -0.29318  -0.28476
  Beta  occ. eigenvalues --   -0.27667  -0.26765  -0.26320  -0.26004  -0.21313
  Beta  occ. eigenvalues --   -0.19220  -0.14780  -0.12338  -0.11043
  Beta virt. eigenvalues --    0.06802   0.07770   0.07964   0.08772   0.08844
  Beta virt. eigenvalues --    0.09529   0.09923   0.10557   0.11109   0.11443
  Beta virt. eigenvalues --    0.12087   0.12266   0.12902   0.13472   0.14281

 Mulliken charges and spin densities:
               1          2
     1  C   -0.085813  -0.361457
     2  N   -0.101396   0.313455
     3  C    1.614128  -2.847251
     4  C   -0.165469   0.402412
     5  C   -1.285654   1.552432
     6  C    1.074670  -1.522803
     7  C   -0.492100   0.457867
     8  N    0.033147  -0.013230
     9  C    1.679873  -2.290653
    10  C   -1.110477   1.093217
    11  O   -0.220728   0.021702
    12  O   -0.091390   0.069597
    13  C    0.830549  -1.105912
    14  H   -0.063420   0.199156
    15  H    0.158910   0.023833
    16  H   -0.059980   0.191533
    17  H   -0.382106   0.552785
    18  H   -0.025794   0.223904
    19  H   -0.180196   0.330697
    20  H    0.038287   0.098974
    21  H   -0.868790   1.041111
    22  H    0.124159   0.200751
    23  H   -0.216904   0.412495
    24  H   -0.263228   0.474200
    25  H    0.184597   0.017132
    26  H   -0.223374   0.380358
    27  H   -0.901502   1.083697
 Sum of Mulliken charges =  -1.00000   1.00000

 Dipole moment (field-independent basis, Debye):
    X=             -1.5384    Y=             -3.9127    Z=              2.9167  Tot=              5.1169
 Quadrupole moment (field-independent basis, Debye-Ang):
   XX=           -120.9369   YY=           -137.5817   ZZ=           -116.2777
   XY=             -1.9744   XZ=              0.5712   YZ=              4.8585

 Summary of Natural Population Analysis:

                                       Natural Population
                Natural  -----------------------------------------------
    Atom  No    Charge         Core      Valence    Rydberg      Total
 -----------------------------------------------------------------------
      C    1   -0.17792      0.99963     2.17097    0.00732     3.17792
      N    2   -0.27082      0.99974     2.75579    0.01529     3.77082
      C    3   -0.09972      0.99956     2.08699    0.01317     3.09972
      C    4    0.05016      0.99953     1.93585    0.01447     2.94984
      C    5   -0.14078      0.99950     2.13334    0.00794     3.14078
      C    6   -0.14815      0.99956     2.13992    0.00867     3.14815
      C    7   -0.02097      0.99957     2.00781    0.01359     3.02097
      N    8   -0.26926      0.99966     2.75866    0.01094     3.76926
      C    9   -0.12722      0.99955     2.11507    0.01259     3.12722
      C   10    0.39875      0.99969     1.57567    0.02590     2.60125
      O   11   -0.30124      0.99987     3.29559    0.00578     4.30124
      O   12   -0.28550      0.99987     3.27427    0.01136     4.28550
      C   13   -0.10763      0.99958     2.09847    0.00958     3.10763
      H   14    0.09057      0.00000     0.40825    0.00118     0.40943
      H   15    0.09468      0.00000     0.40360    0.00172     0.40532
      H   16    0.09506      0.00000     0.40394    0.00100     0.40494
      H   17    0.10309      0.00000     0.39522    0.00168     0.39691
      H   18    0.10292      0.00000     0.39586    0.00122     0.39708
      H   19    0.10252      0.00000     0.39667    0.00081     0.39748
      H   20    0.10164      0.00000     0.39768    0.00068     0.39836
      H   21    0.10226      0.00000     0.39614    0.00160     0.39774
      H   22    0.20971      0.00000     0.28518    0.00510     0.29029
      H   23    0.10675      0.00000     0.39196    0.00129     0.39325
      H   24    0.10753      0.00000     0.39017    0.00230     0.39247
      H   25    0.09449      0.00000     0.40390    0.00161     0.40551
      H   26    0.09172      0.00000     0.40715    0.00113     0.40828
      H   27    0.09737      0.00000     0.39838    0.00425     0.40263
 =======================================================================
   * Total *    0.00000     12.99532    35.82248    0.18220    49.00000

 Normal termination of Gaussian 16 at Sun Dec 13 20:37:30 2020.
