 Gaussian 16, Revision A.03,

 -----------------------------------------------------------
 # opt freq B3LYP/6-31G(d) empiricaldispersion=gd3bj scf=xqc
 -----------------------------------------------------------

 ------------------------------
 CID_12472530_JID_3700_neutraal
 ------------------------------
 Symbolic Z-matrix:
 Charge =  0 Multiplicity = 1

 SCF Done:  E(RB3LYP) =  -538.355611395     A.U. after   14 cycles
 SCF Done:  E(RB3LYP) =  -538.357604273     A.U. after   12 cycles
 SCF Done:  E(RB3LYP) =  -538.357794671     A.U. after   10 cycles
 SCF Done:  E(RB3LYP) =  -538.357813400     A.U. after   10 cycles
 SCF Done:  E(RB3LYP) =  -538.357815349     A.U. after    8 cycles
 Optimization completed.
    -- Stationary point found.
 Normal termination of Gaussian 16 at Mon Dec 14 13:05:19 2020.

 --------------------------------------------------------------------
 #N Geom=AllCheck Guess=TCheck SCRF=Check GenChk RB3LYP/6-31G(d) Freq
 --------------------------------------------------------------------

 Structure from the checkpoint file:  "JID_3700.chk"
 ------------------------------
 CID_12472530_JID_3700_neutraal
 ------------------------------
 Charge =  0 Multiplicity = 1

 SCF Done:  E(RB3LYP) =  -538.357815349     A.U. after    1 cycles

  Exact polarizability: 138.507  -0.017 126.790  14.572   0.014  96.287
 Approx polarizability: 184.063  -0.033 205.494  38.042   0.035 155.755

                      1                      2                      3
                      A                      A                      A
 Frequencies --     40.5892                62.2421                86.5559
 Red. masses --      3.2682                 4.6790                 3.2778
 Frc consts  --      0.0032                 0.0107                 0.0145
 IR Inten    --      0.1205                 0.3837                 0.3934

                      4                      5                      6
                      A                      A                      A
 Frequencies --    142.6101               237.3484               242.7530
 Red. masses --      3.3568                 2.2482                 4.2783
 Frc consts  --      0.0402                 0.0746                 0.1485
 IR Inten    --      0.9664                 0.0136                 0.8653

                      7                      8                      9
                      A                      A                      A
 Frequencies --    271.2600               314.2316               392.5692
 Red. masses --      2.8195                 2.4209                 2.6189
 Frc consts  --      0.1222                 0.1408                 0.2378
 IR Inten    --      0.4920                 3.5211                 0.0000

                     10                     11                     12
                      A                      A                      A
 Frequencies --    400.9309               415.2448               444.1447
 Red. masses --      1.9471                 1.8581                 3.2243
 Frc consts  --      0.1844                 0.1888                 0.3747
 IR Inten    --      3.2668                 0.0551                 4.9835

                     13                     14                     15
                      A                      A                      A
 Frequencies --    473.7049               503.2928               554.3492
 Red. masses --      2.6998                 3.9328                 2.1502
 Frc consts  --      0.3569                 0.5869                 0.3893
 IR Inten    --      0.5528                10.4792                 5.3335

                     16                     17                     18
                      A                      A                      A
 Frequencies --    654.6236               688.5607               761.7473
 Red. masses --      2.9587                 6.7901                 3.9635
 Frc consts  --      0.7470                 1.8967                 1.3550
 IR Inten    --     24.5123                 0.4551                 6.8793

                     19                     20                     21
                      A                      A                      A
 Frequencies --    775.1023               817.2035               832.1122
 Red. masses --      2.7977                 2.2005                 1.4716
 Frc consts  --      0.9903                 0.8658                 0.6003
 IR Inten    --      2.4579                14.5298                 0.3857

                     22                     23                     24
                      A                      A                      A
 Frequencies --    864.8472               870.5945               890.7605
 Red. masses --      2.5438                 2.2506                 1.5341
 Frc consts  --      1.1210                 1.0051                 0.7172
 IR Inten    --      1.0983                 2.3172                11.5527

                     25                     26                     27
                      A                      A                      A
 Frequencies --    894.6466               905.4968               979.6204
 Red. masses --      1.2583                 2.1306                 1.3064
 Frc consts  --      0.5934                 1.0292                 0.7387
 IR Inten    --      0.0362                 0.0006                 1.1625

                     28                     29                     30
                      A                      A                      A
 Frequencies --    982.2091               991.2020               996.4189
 Red. masses --      1.7407                 1.4522                 1.3519
 Frc consts  --      0.9894                 0.8406                 0.7908
 IR Inten    --      4.1094                 0.0090                 0.0271

                     31                     32                     33
                      A                      A                      A
 Frequencies --   1013.8498              1018.8135              1061.7421
 Red. masses --      3.9014                 3.4541                 2.1391
 Frc consts  --      2.3627                 2.1124                 1.4208
 IR Inten    --      7.8466                 7.7624                 4.4927

                     34                     35                     36
                      A                      A                      A
 Frequencies --   1085.1608              1103.5226              1120.2281
 Red. masses --      1.5201                 2.0217                 1.7976
 Frc consts  --      1.0547                 1.4506                 1.3291
 IR Inten    --      1.6695                 2.1806                 3.3752

                     37                     38                     39
                      A                      A                      A
 Frequencies --   1137.3228              1141.7707              1188.6342
 Red. masses --      2.5510                 2.0599                 1.1629
 Frc consts  --      1.9442                 1.5822                 0.9680
 IR Inten    --     26.1115                13.0329                 2.9770

                     40                     41                     42
                      A                      A                      A
 Frequencies --   1199.1705              1215.7790              1233.7079
 Red. masses --      2.4673                 1.2902                 3.2722
 Frc consts  --      2.0904                 1.1236                 2.9344
 IR Inten    --     11.5374                 0.8292                 8.8693

                     43                     44                     45
                      A                      A                      A
 Frequencies --   1257.6317              1305.7652              1306.0691
 Red. masses --      1.2858                 1.2437                 3.0318
 Frc consts  --      1.1982                 1.2494                 3.0471
 IR Inten    --      6.3083                 3.2893                 0.9989

                     46                     47                     48
                      A                      A                      A
 Frequencies --   1314.4876              1349.9107              1353.5790
 Red. masses --      1.5761                 1.3977                 1.6934
 Frc consts  --      1.6045                 1.5006                 1.8280
 IR Inten    --      7.2713                 5.4572                16.1969

                     49                     50                     51
                      A                      A                      A
 Frequencies --   1373.3113              1386.1431              1388.7878
 Red. masses --      1.3019                 1.2626                 1.2850
 Frc consts  --      1.4466                 1.4293                 1.4602
 IR Inten    --      0.1076                23.1150                 1.3289

                     52                     53                     54
                      A                      A                      A
 Frequencies --   1402.0186              1406.1370              1416.7031
 Red. masses --      1.4123                 1.4486                 1.4052
 Frc consts  --      1.6356                 1.6875                 1.6617
 IR Inten    --      0.0000                 1.1752                 0.2943

                     55                     56                     57
                      A                      A                      A
 Frequencies --   1442.4759              1462.9123              1501.3606
 Red. masses --      1.4361                 2.0497                 1.0949
 Frc consts  --      1.7606                 2.5845                 1.4541
 IR Inten    --      9.5585                18.0111                 7.9492

                     58                     59                     60
                      A                      A                      A
 Frequencies --   1506.2161              1514.1711              1524.0779
 Red. masses --      1.0982                 1.0862                 1.1071
 Frc consts  --      1.4680                 1.4673                 1.5151
 IR Inten    --      1.5417                 6.1233                 9.9948

                     61                     62                     63
                      A                      A                      A
 Frequencies --   1528.0786              1542.8937              1544.2580
 Red. masses --      1.0825                 1.2469                 1.7187
 Frc consts  --      1.4893                 1.7489                 2.4148
 IR Inten    --      1.1538                 4.1016                 6.2388

                     64                     65                     66
                      A                      A                      A
 Frequencies --   1621.5358              1655.7379              2935.7068
 Red. masses --      6.5723                 5.3752                 1.0723
 Frc consts  --     10.1817                 8.6822                 5.4449
 IR Inten    --     15.0889                43.7760                15.2695

                     67                     68                     69
                      A                      A                      A
 Frequencies --   2942.3822              3028.3302              3043.8576
 Red. masses --      1.0715                 1.0667                 1.0608
 Frc consts  --      5.4655                 5.7636                 5.7908
 IR Inten    --     78.5564                25.0952                32.4515

                     70                     71                     72
                      A                      A                      A
 Frequencies --   3044.7475              3045.4807              3065.1099
 Red. masses --      1.0616                 1.0620                 1.0863
 Frc consts  --      5.7983                 5.8037                 6.0129
 IR Inten    --     17.1695                24.1796                65.4997

                     73                     74                     75
                      A                      A                      A
 Frequencies --   3068.3570              3080.5751              3088.1050
 Red. masses --      1.0874                 1.0938                 1.1052
 Frc consts  --      6.0321                 6.1157                 6.2098
 IR Inten    --     39.7749                50.9225                20.4683

                     76                     77                     78
                      A                      A                      A
 Frequencies --   3090.4081              3094.0210              3167.8334
 Red. masses --      1.1060                 1.1057                 1.0867
 Frc consts  --      6.2237                 6.2366                 6.4250
 IR Inten    --     28.8260                73.0205                26.7366

                     79                     80                     81
                      A                      A                      A
 Frequencies --   3169.5743              3194.7660              3197.1098
 Red. masses --      1.0897                 1.0927                 1.0951
 Frc consts  --      6.4498                 6.5710                 6.5949
 IR Inten    --     23.8901                39.1203                 0.4300

 - Thermochemistry -
 -------------------
 Temperature   298.150 Kelvin.  Pressure   1.00000 Atm.
 Atom     1 has atomic number  6 and mass  12.00000

 Molecular mass:   176.13135 amu.
 Principal axes and moments of inertia in atomic units:
                           1         2         3
     Eigenvalues --  1077.077523959.455774187.68393
           X            0.99995  -0.00001  -0.01003
           Y            0.00001   1.00000   0.00002
           Z            0.01003  -0.00002   0.99995
 This molecule is an asymmetric top.
 Rotational symmetry number  1.
 Warning -- assumption of classical behavior for rotation
           may cause significant error
 Rotational temperatures (Kelvin)      0.08042     0.02188     0.02068
 Rotational constants (GHZ):           1.67559     0.45581     0.43096
 Zero-point vibrational energy     678087.0 (Joules/Mol)
                                  162.06669 (Kcal/Mol)
 Warning -- explicit consideration of  15 degrees of freedom as
           vibrations may cause significant error
 Vibrational temperatures:     58.40    89.55   124.53   205.18   341.49
          (Kelvin)            349.27   390.28   452.11   564.82   576.85
                              597.44   639.03   681.56   724.13   797.58
                              941.86   990.69  1095.98  1115.20  1175.77
                             1197.22  1244.32  1252.59  1281.61  1287.20
                             1302.81  1409.46  1413.18  1426.12  1433.62
                             1458.70  1465.85  1527.61  1561.30  1587.72
                             1611.76  1636.35  1642.75  1710.18  1725.34
                             1749.23  1775.03  1809.45  1878.70  1879.14
                             1891.25  1942.22  1947.50  1975.89  1994.35
                             1998.16  2017.19  2023.12  2038.32  2075.40
                             2104.80  2160.12  2167.11  2178.55  2192.81
                             2198.56  2219.88  2221.84  2333.03  2382.24
                             4223.83  4233.43  4357.09  4379.43  4380.71
                             4381.77  4410.01  4414.68  4432.26  4443.09
                             4446.41  4451.61  4557.81  4560.31  4596.56
                             4599.93

 Zero-point correction=                           0.258270 (Hartree/Particle)
 Thermal correction to Energy=                    0.269334
 Thermal correction to Enthalpy=                  0.270278
 Thermal correction to Gibbs Free Energy=         0.220556
 Sum of electronic and zero-point Energies=           -538.099546
 Sum of electronic and thermal Energies=              -538.088482
 Sum of electronic and thermal Enthalpies=            -538.087538
 Sum of electronic and thermal Free Energies=         -538.137259

                     E (Thermal)             CV                S
                      KCal/Mol        Cal/Mol-Kelvin    Cal/Mol-Kelvin
 Total                  169.009             44.141            104.647
 Electronic               0.000              0.000              0.000
 Translational            0.889              2.981             41.405
 Rotational               0.889              2.981             31.258
 Vibrational            167.232             38.180             31.984
 Vibration     1          0.594              1.981              5.230
 Vibration     2          0.597              1.972              4.385
 Vibration     3          0.601              1.959              3.736
 Vibration     4          0.616              1.911              2.769
 Vibration     5          0.656              1.783              1.823
 Vibration     6          0.659              1.775              1.783
 Vibration     7          0.675              1.726              1.588
 Vibration     8          0.702              1.647              1.340
 Vibration     9          0.760              1.486              0.990
 Vibration    10          0.767              1.468              0.959
 Vibration    11          0.779              1.437              0.908
 Vibration    12          0.804              1.374              0.814
 Vibration    13          0.830              1.308              0.727
 Vibration    14          0.859              1.243              0.650
 Vibration    15          0.910              1.130              0.535

                           ! Non-Optimized Parameters !
 Normal termination of Gaussian 16 at Mon Dec 14 13:13:01 2020.

 ----------------------------------------------------------------------
 # B3LYP/6-311++G(d,p) empiricaldispersion=gd3bj scf=xqc pop=npa geom=c
 heck
 ----------------------------------------------------------------------

 --------------------------------------
 CID_12472530_JID_3700_Energie_neutraal
 --------------------------------------
 Structure from the checkpoint file:  "JID_3700.chk"
 Charge =  0 Multiplicity = 1

 SCF Done:  E(RB3LYP) =  -538.498212457     A.U. after   14 cycles
 Normal termination of Gaussian 16 at Mon Dec 14 13:15:50 2020.

 ----------------------------------------------------------------------
 # B3LYP/6-311++G(d,p) empiricaldispersion=gd3bj scf=xqc pop=npa geom=c
 heck
 ----------------------------------------------------------------------

 ------------------------------------
 CID_12472530_JID_3700_Energie_kation
 ------------------------------------
 Structure from the checkpoint file:  "JID_3700.chk"
 Charge =  1 Multiplicity = 2

 SCF Done:  E(UB3LYP) =  -538.204963448     A.U. after   22 cycles
 Normal termination of Gaussian 16 at Mon Dec 14 13:21:33 2020.
 Gaussian 16:  ES64L-G16RevA.03 25-Dec-2016

 ----------------------------------------------------------------------
 # B3LYP/6-311++G(d,p) empiricaldispersion=gd3bj scf=xqc pop=npa geom=c
 heck
 ----------------------------------------------------------------------

 -----------------------------------
 CID_12472530_JID_3700_Energie_anion
 -----------------------------------
 Structure from the checkpoint file:  "JID_3700.chk"
 Charge = -1 Multiplicity = 2

                         Standard orientation:
 ---------------------------------------------------------------------
 Center     Atomic      Atomic             Coordinates (Angstroms)
 Number     Number       Type             X           Y           Z
 ---------------------------------------------------------------------
      1          6           0        3.200019    0.000255   -1.160637
      2          6           0        2.867215   -1.255263   -0.347152
      3          6           0        1.417099   -1.212857    0.140131
      4          7           0        1.174993    0.000073    0.920983
      5          6           0        1.416042    1.212730    0.139328
      6          6           0        2.866079    1.256061   -0.348063
      7          6           0       -0.107096   -0.000089    1.628578
      8          6           0       -1.338498   -0.000207    0.739259
      9          6           0       -1.912322   -1.191793    0.284635
     10          6           0       -3.000056   -1.139461   -0.586057
     11          7           0       -3.548068   -0.000133   -1.026691
     12          6           0       -3.000874    1.139156   -0.584966
     13          6           0       -1.913135    1.191386    0.285735
     14          1           0        4.254941    0.000626   -1.459556
     15          1           0        2.606273   -0.000359   -2.086224
     16          1           0        3.024775   -2.160886   -0.945442
     17          1           0        3.530466   -1.315288    0.524972
     18          1           0        0.738282   -1.285252   -0.731495
     19          1           0        1.207392   -2.077410    0.781830
     20          1           0        1.205655    2.077503    0.780506
     21          1           0        0.737044    1.283997   -0.732244
     22          1           0        3.529327    1.317335    0.523979
     23          1           0        3.022794    2.161387   -0.947023
     24          1           0       -0.125916   -0.884347    2.276921
     25          1           0       -0.126109    0.884354    2.276651
     26          1           0       -1.521123   -2.151956    0.610110
     27          1           0       -3.457605   -2.059640   -0.945888
     28          1           0       -3.459085    2.059358   -0.943891
     29          1           0       -1.522424    2.151492    0.611996
 ---------------------------------------------------------------------

 SCF Done:  E(UB3LYP) =  -538.487152905     A.U. after   33 cycles
 SCF Done:  E(UB3LYP) =  -538.487152905     a.u. after    1 cycles

 The electronic state is 2-A.
 Alpha  occ. eigenvalues --  -14.19564 -14.18275 -10.08666 -10.08666 -10.08526
 Alpha  occ. eigenvalues --  -10.08166 -10.08165 -10.06357 -10.06182 -10.06000
 Alpha  occ. eigenvalues --  -10.05995 -10.05916 -10.05914  -0.82490  -0.81816
 Alpha  occ. eigenvalues --   -0.70549  -0.67941  -0.64784  -0.64199  -0.59038
 Alpha  occ. eigenvalues --   -0.52378  -0.51866  -0.50915  -0.48369  -0.44552
 Alpha  occ. eigenvalues --   -0.39976  -0.37786  -0.37671  -0.35642  -0.35232
 Alpha  occ. eigenvalues --   -0.34708  -0.32579  -0.31457  -0.30924  -0.30185
 Alpha  occ. eigenvalues --   -0.28317  -0.27943  -0.27263  -0.26171  -0.24345
 Alpha  occ. eigenvalues --   -0.23443  -0.22584  -0.21258  -0.21118  -0.16692
 Alpha  occ. eigenvalues --   -0.14951  -0.14415  -0.10752   0.04662
 Alpha virt. eigenvalues --    0.06830   0.07366   0.07819   0.08524   0.09155
 Alpha virt. eigenvalues --    0.09444   0.09660   0.10193   0.10215   0.11224
 Alpha virt. eigenvalues --    0.11982   0.12430   0.13123   0.13393   0.13908

  Beta  occ. eigenvalues --  -14.19547 -14.18061 -10.08643 -10.08643 -10.08522
  Beta  occ. eigenvalues --  -10.08152 -10.08151 -10.06167 -10.06150 -10.05987
  Beta  occ. eigenvalues --  -10.05978 -10.05899 -10.05897  -0.82308  -0.81656
  Beta  occ. eigenvalues --   -0.70359  -0.67773  -0.64737  -0.64076  -0.58939
  Beta  occ. eigenvalues --   -0.52325  -0.51714  -0.50851  -0.48188  -0.44502
  Beta  occ. eigenvalues --   -0.39880  -0.37677  -0.37574  -0.35521  -0.35189
  Beta  occ. eigenvalues --   -0.34636  -0.32520  -0.31420  -0.30889  -0.30059
  Beta  occ. eigenvalues --   -0.28276  -0.27578  -0.26950  -0.26118  -0.24312
  Beta  occ. eigenvalues --   -0.23383  -0.22546  -0.21176  -0.21076  -0.15762
  Beta  occ. eigenvalues --   -0.14604  -0.14167  -0.10703
  Beta virt. eigenvalues --    0.06985   0.08032   0.08037   0.08429   0.09222
  Beta virt. eigenvalues --    0.09431   0.09528   0.09933   0.10569   0.10675
  Beta virt. eigenvalues --    0.11503   0.12155   0.12698   0.13440   0.13728

 Mulliken charges and spin densities:
               1          2
     1  C   -0.565280   0.306808
     2  C    0.419488  -0.907453
     3  C    0.016867  -0.277532
     4  N    0.028793   0.202906
     5  C    0.016220  -0.276894
     6  C    0.419007  -0.907042
     7  C    1.746341  -2.431410
     8  C   -0.185934   0.457255
     9  C   -0.735744   1.053687
    10  C    0.137136  -0.686579
    11  N   -0.127184   0.098991
    12  C    0.137534  -0.686808
    13  C   -0.735412   1.052912
    14  H   -0.421280   0.591662
    15  H    0.126582  -0.018241
    16  H   -0.166618   0.314353
    17  H   -0.076391   0.218556
    18  H    0.199352  -0.062880
    19  H   -0.052002   0.213670
    20  H   -0.051103   0.212692
    21  H    0.199075  -0.062517
    22  H   -0.076725   0.218893
    23  H   -0.165684   0.313390
    24  H   -0.185757   0.366299
    25  H   -0.185502   0.365977
    26  H   -0.399968   0.565034
    27  H    0.041984   0.099753
    28  H    0.042096   0.099619
    29  H   -0.399894   0.564900
 Sum of Mulliken charges =  -1.00000   1.00000

 Dipole moment (field-independent basis, Debye):
    X=             -0.4660    Y=              0.0049    Z=             -1.3492  Tot=              1.4274
 Quadrupole moment (field-independent basis, Debye-Ang):
   XX=           -152.0364   YY=           -112.7204   ZZ=           -110.2932
   XY=              0.0051   XZ=             -1.7396   YZ=              0.0049

 Summary of Natural Population Analysis:

                                       Natural Population
                Natural  -----------------------------------------------
    Atom  No    Charge         Core      Valence    Rydberg      Total
 -----------------------------------------------------------------------
      C    1   -0.19023      0.99963     2.18209    0.00851     3.19023
      C    2   -0.19235      0.99962     2.18399    0.00874     3.19235
      C    3   -0.08543      0.99960     2.07406    0.01176     3.08543
      N    4   -0.27695      0.99971     2.76269    0.01454     3.77695
      C    5   -0.08543      0.99960     2.07407    0.01176     3.08543
      C    6   -0.19235      0.99962     2.18399    0.00874     3.19235
      C    7   -0.08967      0.99957     2.07706    0.01303     3.08967
      C    8    0.02285      0.99950     1.96809    0.00956     2.97715
      C    9   -0.12339      0.99950     2.11469    0.00920     3.12339
      C   10    0.02432      0.99959     1.96016    0.01593     2.97568
      N   11   -0.21624      0.99972     2.70532    0.01120     3.71624
      C   12    0.02434      0.99959     1.96014    0.01593     2.97566
      C   13   -0.12341      0.99950     2.11471    0.00920     3.12341
      H   14    0.09852      0.00000     0.40029    0.00119     0.40148
      H   15    0.09125      0.00000     0.40747    0.00127     0.40875
      H   16    0.09686      0.00000     0.40218    0.00095     0.40314
      H   17    0.09648      0.00000     0.40179    0.00173     0.40352
      H   18    0.08170      0.00000     0.41655    0.00175     0.41830
      H   19    0.09722      0.00000     0.40127    0.00151     0.40278
      H   20    0.09721      0.00000     0.40128    0.00150     0.40279
      H   21    0.08171      0.00000     0.41654    0.00175     0.41829
      H   22    0.09648      0.00000     0.40179    0.00173     0.40352
      H   23    0.09686      0.00000     0.40219    0.00095     0.40314
      H   24    0.09901      0.00000     0.39947    0.00153     0.40099
      H   25    0.09899      0.00000     0.39949    0.00152     0.40101
      H   26    0.10137      0.00000     0.39735    0.00128     0.39863
      H   27    0.08446      0.00000     0.41428    0.00125     0.41554
      H   28    0.08446      0.00000     0.41429    0.00125     0.41554
      H   29    0.10136      0.00000     0.39736    0.00128     0.39864
 =======================================================================
   * Total *    0.00000     12.99478    34.83465    0.17057    48.00000

 Normal termination of Gaussian 16 at Mon Dec 14 13:30:21 2020.
