 Gaussian 16, Revision A.03,

 -----------------------------------------------------------
 # opt freq B3LYP/6-31G(d) empiricaldispersion=gd3bj scf=xqc
 -----------------------------------------------------------

 -------------------------------
 CID_130015166_JID_2982_neutraal
 -------------------------------
 Symbolic Z-matrix:
 Charge =  0 Multiplicity = 1

 SCF Done:  E(RB3LYP) =  -538.554801682     A.U. after   15 cycles
 SCF Done:  E(RB3LYP) =  -538.559950982     A.U. after   12 cycles
 SCF Done:  E(RB3LYP) =  -538.560655291     A.U. after   12 cycles
 SCF Done:  E(RB3LYP) =  -538.560823438     A.U. after   12 cycles
 SCF Done:  E(RB3LYP) =  -538.561977811     A.U. after   12 cycles
 SCF Done:  E(RB3LYP) =  -538.562271143     A.U. after   11 cycles
 SCF Done:  E(RB3LYP) =  -538.562341544     A.U. after   11 cycles
 SCF Done:  E(RB3LYP) =  -538.562393979     A.U. after   10 cycles
 SCF Done:  E(RB3LYP) =  -538.562440260     A.U. after   11 cycles
 SCF Done:  E(RB3LYP) =  -538.562530705     A.U. after   12 cycles
 SCF Done:  E(RB3LYP) =  -538.562622848     A.U. after    9 cycles
 SCF Done:  E(RB3LYP) =  -538.562622288     A.U. after   10 cycles
 SCF Done:  E(RB3LYP) =  -538.562623672     A.U. after   10 cycles
 SCF Done:  E(RB3LYP) =  -538.562624149     A.U. after    8 cycles
 SCF Done:  E(RB3LYP) =  -538.562624186     A.U. after    7 cycles
 Optimization completed.
    -- Stationary point found.
 Normal termination of Gaussian 16 at Wed Dec  9 18:40:37 2020.

 --------------------------------------------------------------------
 #N Geom=AllCheck Guess=TCheck SCRF=Check GenChk RB3LYP/6-31G(d) Freq
 --------------------------------------------------------------------

 Structure from the checkpoint file:  "JID_2982.chk"
 -------------------------------
 CID_130015166_JID_2982_neutraal
 -------------------------------
 Charge =  0 Multiplicity = 1

 SCF Done:  E(RB3LYP) =  -538.562624186     A.U. after    1 cycles

  Exact polarizability: 157.322   9.046 110.507  -0.000   0.007  87.995
 Approx polarizability: 205.007  26.127 167.752   0.007   0.027 120.285

                      1                      2                      3
                      A                      A                      A
 Frequencies --     11.3572                51.8394                75.0136
 Red. masses --      2.9066                 3.1211                 3.5445
 Frc consts  --      0.0002                 0.0049                 0.0118
 IR Inten    --      0.2514                 0.1747                 0.0998

                      4                      5                      6
                      A                      A                      A
 Frequencies --     90.9268                96.8946               162.3703
 Red. masses --      3.2053                 3.9672                 3.4242
 Frc consts  --      0.0156                 0.0219                 0.0532
 IR Inten    --      0.8937                 0.1390                 0.5282

                      7                      8                      9
                      A                      A                      A
 Frequencies --    182.9429               197.1515               207.6749
 Red. masses --      1.2455                 1.1507                 1.0857
 Frc consts  --      0.0246                 0.0264                 0.0276
 IR Inten    --      0.4666                 0.0365                 0.1157

                     10                     11                     12
                      A                      A                      A
 Frequencies --    222.7755               243.9307               244.1850
 Red. masses --      1.6712                 2.1581                 1.0853
 Frc consts  --      0.0489                 0.0757                 0.0381
 IR Inten    --      1.6890                 0.1992                 0.1037

                     13                     14                     15
                      A                      A                      A
 Frequencies --    260.4550               271.7866               312.6032
 Red. masses --      1.3558                 2.3661                 2.5260
 Frc consts  --      0.0542                 0.1030                 0.1454
 IR Inten    --      0.1325                 4.6392                 1.8070

                     16                     17                     18
                      A                      A                      A
 Frequencies --    348.3861               363.8568               386.2285
 Red. masses --      3.2364                 3.0358                 3.2336
 Frc consts  --      0.2314                 0.2368                 0.2842
 IR Inten    --      3.5143                 0.1218                 2.6412

                     19                     20                     21
                      A                      A                      A
 Frequencies --    422.7607               511.6475               579.6952
 Red. masses --      2.5194                 3.6980                 4.0414
 Frc consts  --      0.2653                 0.5704                 0.8002
 IR Inten    --      4.7532                20.3381                 9.1181

                     22                     23                     24
                      A                      A                      A
 Frequencies --    620.1087               621.5974               730.2647
 Red. masses --      3.6777                 3.3110                 3.6799
 Frc consts  --      0.8332                 0.7538                 1.1562
 IR Inten    --     25.2198                 6.0794                 1.5608

                     25                     26                     27
                      A                      A                      A
 Frequencies --    770.8633               775.4951               808.2862
 Red. masses --      3.7318                 2.8837                 1.3490
 Frc consts  --      1.3065                 1.0218                 0.5193
 IR Inten    --      2.3376                38.2008                41.6746

                     28                     29                     30
                      A                      A                      A
 Frequencies --    895.4062               918.7180               951.5768
 Red. masses --      1.2370                 2.3521                 1.1980
 Frc consts  --      0.5843                 1.1697                 0.6391
 IR Inten    --     40.3492                 3.4118                 0.1065

                     31                     32                     33
                      A                      A                      A
 Frequencies --    985.2503               997.4593              1038.9637
 Red. masses --      1.4141                 2.8159                 1.4971
 Frc consts  --      0.8088                 1.6507                 0.9521
 IR Inten    --      0.0831                26.5789                15.7588

                     34                     35                     36
                      A                      A                      A
 Frequencies --   1068.9480              1076.5127              1101.6358
 Red. masses --      1.5285                 1.5426                 1.6979
 Frc consts  --      1.0290                 1.0532                 1.2141
 IR Inten    --     12.2474                 0.2236               130.6581

                     37                     38                     39
                      A                      A                      A
 Frequencies --   1131.6754              1136.8650              1174.1605
 Red. masses --      1.2380                 2.5678                 2.2468
 Frc consts  --      0.9341                 1.9553                 1.8250
 IR Inten    --      6.8621                 0.9311                12.1953

                     40                     41                     42
                      A                      A                      A
 Frequencies --   1199.0244              1202.8258              1236.2780
 Red. masses --      1.5434                 1.8437                 3.4232
 Frc consts  --      1.3074                 1.5716                 3.0826
 IR Inten    --     17.7060                 1.5088                14.2480

                     43                     44                     45
                      A                      A                      A
 Frequencies --   1260.7383              1304.5221              1352.8205
 Red. masses --      2.8785                 1.5594                 1.9738
 Frc consts  --      2.6957                 1.5635                 2.1284
 IR Inten    --     31.3925                 7.5191                85.4693

                     46                     47                     48
                      A                      A                      A
 Frequencies --   1357.3515              1378.9767              1386.4985
 Red. masses --      1.5743                 1.2919                 2.2623
 Frc consts  --      1.7089                 1.4474                 2.5623
 IR Inten    --     26.2969                 1.2119               102.0085

                     49                     50                     51
                      A                      A                      A
 Frequencies --   1432.5455              1443.7679              1451.9323
 Red. masses --      1.2137                 1.2812                 1.2732
 Frc consts  --      1.4675                 1.5735                 1.5814
 IR Inten    --      2.8877                22.5799                 7.4716

                     52                     53                     54
                      A                      A                      A
 Frequencies --   1461.8461              1473.5218              1498.8839
 Red. masses --      1.1485                 1.7694                 1.3052
 Frc consts  --      1.4461                 2.2635                 1.7277
 IR Inten    --      0.6647               195.2245                35.8087

                     55                     56                     57
                      A                      A                      A
 Frequencies --   1502.3732              1512.0539              1519.9936
 Red. masses --      1.0457                 1.0476                 1.0462
 Frc consts  --      1.3906                 1.4112                 1.4241
 IR Inten    --     12.0421                 4.3211                 0.0905

                     58                     59                     60
                      A                      A                      A
 Frequencies --   1522.1022              1525.2898              1534.3738
 Red. masses --      1.0577                 1.0474                 1.0587
 Frc consts  --      1.4438                 1.4357                 1.4685
 IR Inten    --      5.1701                 1.7841                18.0837

                     61                     62                     63
                      A                      A                      A
 Frequencies --   1534.6287              1538.0124              1540.4438
 Red. masses --      1.0481                 1.0974                 1.0593
 Frc consts  --      1.4544                 1.5295                 1.4810
 IR Inten    --      1.4652                16.7242                19.8342

                     64                     65                     66
                      A                      A                      A
 Frequencies --   1547.8814              1754.7305              1772.3554
 Red. masses --      1.0747                 6.5582                 7.3960
 Frc consts  --      1.5171                11.8976                13.6883
 IR Inten    --      7.8982                 5.9530               543.4939

                     67                     68                     69
                      A                      A                      A
 Frequencies --   2966.6857              2973.2559              3031.8838
 Red. masses --      1.0570                 1.0584                 1.0379
 Frc consts  --      5.4812                 5.5125                 5.6214
 IR Inten    --     32.5668               127.6298                61.6601

                     70                     71                     72
                      A                      A                      A
 Frequencies --   3055.5500              3058.6564              3074.0368
 Red. masses --      1.0359                 1.0367                 1.0994
 Frc consts  --      5.6981                 5.7141                 6.1208
 IR Inten    --     25.8473                20.3358                32.6251

                     73                     74                     75
                      A                      A                      A
 Frequencies --   3081.0058              3082.2725              3083.3098
 Red. masses --      1.0781                 1.0752                 1.0859
 Frc consts  --      6.0296                 6.0183                 6.0826
 IR Inten    --      9.4296                52.2318                 2.8548

                     76                     77                     78
                      A                      A                      A
 Frequencies --   3119.7341              3120.3508              3121.8975
 Red. masses --      1.1020                 1.0990                 1.1019
 Frc consts  --      6.3193                 6.3048                 6.3277
 IR Inten    --      8.7762                20.8139                45.6349

                     79                     80                     81
                      A                      A                      A
 Frequencies --   3132.0698              3133.1478              3135.1116
 Red. masses --      1.1018                 1.1024                 1.1028
 Frc consts  --      6.3683                 6.3761                 6.3862
 IR Inten    --      5.4912                16.8916                36.5376

                     82                     83                     84
                      A                      A                      A
 Frequencies --   3136.8690              3279.3969              3533.5680
 Red. masses --      1.0999                 1.0902                 1.0742
 Frc consts  --      6.3769                 6.9076                 7.9022
 IR Inten    --     62.5706                 8.9998                55.6210

 - Thermochemistry -
 -------------------
 Temperature   298.150 Kelvin.  Pressure   1.00000 Atm.
 Atom     1 has atomic number  6 and mass  12.00000

 Molecular mass:   170.14191 amu.
 Principal axes and moments of inertia in atomic units:
                           1         2         3
     Eigenvalues --  1204.127763790.434214222.12373
           X            0.99975  -0.02238  -0.00001
           Y            0.02238   0.99975  -0.00011
           Z            0.00001   0.00011   1.00000
 This molecule is an asymmetric top.
 Rotational symmetry number  1.
 Warning -- assumption of classical behavior for rotation
           may cause significant error
 Rotational temperatures (Kelvin)      0.07193     0.02285     0.02051
 Rotational constants (GHZ):           1.49880     0.47613     0.42745
 Zero-point vibrational energy     702284.8 (Joules/Mol)
                                  167.85009 (Kcal/Mol)
 Warning -- explicit consideration of  22 degrees of freedom as
           vibrations may cause significant error
 Vibrational temperatures:     16.34    74.59   107.93   130.82   139.41
          (Kelvin)            233.61   263.21   283.66   298.80   320.52
                              350.96   351.33   374.74   391.04   449.77
                              501.25   523.51   555.70   608.26   736.15
                              834.05   892.20   894.34  1050.69  1109.10
                             1115.76  1162.94  1288.29  1321.83  1369.11
                             1417.56  1435.12  1494.84  1537.98  1548.86
                             1585.01  1628.23  1635.70  1689.36  1725.13
                             1730.60  1778.73  1813.92  1876.92  1946.41
                             1952.93  1984.04  1994.86  2061.11  2077.26
                             2089.01  2103.27  2120.07  2156.56  2161.58
                             2175.51  2186.93  2189.97  2194.55  2207.62
                             2207.99  2212.86  2216.36  2227.06  2524.67
                             2550.02  4268.40  4277.85  4362.20  4396.25
                             4400.72  4422.85  4432.88  4434.70  4436.20
                             4488.60  4489.49  4491.71  4506.35  4507.90
                             4510.73  4513.25  4718.32  5084.02

 Zero-point correction=                           0.267486 (Hartree/Particle)
 Thermal correction to Energy=                    0.282460
 Thermal correction to Enthalpy=                  0.283405
 Thermal correction to Gibbs Free Energy=         0.224509
 Sum of electronic and zero-point Energies=           -538.295138
 Sum of electronic and thermal Energies=              -538.280164
 Sum of electronic and thermal Enthalpies=            -538.279220
 Sum of electronic and thermal Free Energies=         -538.338116

                     E (Thermal)             CV                S
                      KCal/Mol        Cal/Mol-Kelvin    Cal/Mol-Kelvin
 Total                  177.247             53.588            123.957
 Electronic               0.000              0.000              0.000
 Translational            0.889              2.981             41.302
 Rotational               0.889              2.981             31.333
 Vibrational            175.469             47.626             51.322
 Vibration     1          0.593              1.987              7.758
 Vibration     2          0.596              1.977              4.746
 Vibration     3          0.599              1.966              4.017
 Vibration     4          0.602              1.956              3.640
 Vibration     5          0.603              1.951              3.516
 Vibration     6          0.622              1.889              2.522
 Vibration     7          0.630              1.863              2.298
 Vibration     8          0.637              1.844              2.160
 Vibration     9          0.641              1.829              2.064
 Vibration    10          0.648              1.806              1.936
 Vibration    11          0.659              1.773              1.774
 Vibration    12          0.660              1.772              1.772
 Vibration    13          0.669              1.745              1.659
 Vibration    14          0.675              1.725              1.585
 Vibration    15          0.701              1.650              1.349
 Vibration    16          0.726              1.579              1.173
 Vibration    17          0.737              1.547              1.106
 Vibration    18          0.755              1.500              1.015
 Vibration    19          0.785              1.421              0.883
 Vibration    20          0.867              1.224              0.630
 Vibration    21          0.936              1.075              0.486
 Vibration    22          0.980              0.989              0.416

                           ! Non-Optimized Parameters !
 Normal termination of Gaussian 16 at Wed Dec  9 18:47:11 2020.

 ----------------------------------------------------------------------
 # B3LYP/6-311++G(d,p) empiricaldispersion=gd3bj scf=xqc pop=npa geom=c
 heck
 ----------------------------------------------------------------------

 ---------------------------------------
 CID_130015166_JID_2982_Energie_neutraal
 ---------------------------------------
 Structure from the checkpoint file:  "JID_2982.chk"
 Charge =  0 Multiplicity = 1

 SCF Done:  E(RB3LYP) =  -538.721381745     A.U. after   14 cycles
 Normal termination of Gaussian 16 at Wed Dec  9 18:49:45 2020.

 ----------------------------------------------------------------------
 # B3LYP/6-311++G(d,p) empiricaldispersion=gd3bj scf=xqc pop=npa geom=c
 heck
 ----------------------------------------------------------------------

 -------------------------------------
 CID_130015166_JID_2982_Energie_kation
 -------------------------------------
 Structure from the checkpoint file:  "JID_2982.chk"
 Charge =  1 Multiplicity = 2

 SCF Done:  E(UB3LYP) =  -538.433478468     A.U. after   33 cycles
 SCF Done:  E(UB3LYP) =  -538.433478471     a.u. after    2 cycles
 Normal termination of Gaussian 16 at Wed Dec  9 19:01:53 2020.
 Gaussian 16:  ES64L-G16RevA.03 25-Dec-2016

 ----------------------------------------------------------------------
 # B3LYP/6-311++G(d,p) empiricaldispersion=gd3bj scf=xqc pop=npa geom=c
 heck
 ----------------------------------------------------------------------

 ------------------------------------
 CID_130015166_JID_2982_Energie_anion
 ------------------------------------
 Structure from the checkpoint file:  "JID_2982.chk"
 Charge = -1 Multiplicity = 2

                         Standard orientation:
 ---------------------------------------------------------------------
 Center     Atomic      Atomic             Coordinates (Angstroms)
 Number     Number       Type             X           Y           Z
 ---------------------------------------------------------------------
      1          6           0       -2.880245    0.915047    1.283413
      2          6           0       -2.869099    0.066656   -0.000135
      3          6           0       -2.879827    0.916228   -1.282925
      4          6           0       -1.780840   -1.011855   -0.000537
      5          8           0       -2.078080   -2.200966   -0.001864
      6          7           0       -0.449820   -0.653549    0.000700
      7          6           0        0.182800    0.583731    0.000658
      8          6           0        1.522127    0.701276    0.000070
      9          6           0        2.216041    2.037390    0.000233
     10          7           0        2.293195   -0.516380   -0.000489
     11          6           0        3.089171   -0.698638    1.211498
     12          6           0        3.091902   -0.696140   -1.211022
     13          1           0       -2.014541    1.578884    1.364963
     14          1           0       -2.895392    0.275444    2.172138
     15          1           0       -3.778850    1.541844    1.303425
     16          1           0       -3.784675   -0.532552   -0.000578
     17          1           0       -2.013901    1.579859   -1.363741
     18          1           0       -2.895042    0.277412   -2.172215
     19          1           0       -3.778250    1.543298   -1.302504
     20          1           0        0.198625   -1.437481   -0.000247
     21          1           0       -0.450320    1.458280    0.001435
     22          1           0        2.859700    2.163468    0.881088
     23          1           0        2.858508    2.164300   -0.881366
     24          1           0        1.489331    2.855904    0.001081
     25          1           0        3.504911   -1.712337    1.219656
     26          1           0        3.930605    0.012231    1.297028
     27          1           0        2.446124   -0.581417    2.088302
     28          1           0        2.450911   -0.576793   -2.089049
     29          1           0        3.933739    0.014655   -1.293021
     30          1           0        3.507358   -1.709942   -1.220483
 ---------------------------------------------------------------------

 SCF Done:  E(UB3LYP) =  -538.709492303     A.U. after   32 cycles

 The electronic state is 2-A.
 Alpha  occ. eigenvalues --  -18.99428 -14.24789 -14.21775 -10.17911 -10.10787
 Alpha  occ. eigenvalues --  -10.09908 -10.09450 -10.09320 -10.09319 -10.07459
 Alpha  occ. eigenvalues --  -10.07458 -10.06479  -0.94584  -0.85034  -0.82173
 Alpha  occ. eigenvalues --   -0.71044  -0.67819  -0.61320  -0.60189  -0.60045
 Alpha  occ. eigenvalues --   -0.55279  -0.54113  -0.48503  -0.46615  -0.41288
 Alpha  occ. eigenvalues --   -0.38364  -0.36559  -0.36411  -0.35696  -0.34714
 Alpha  occ. eigenvalues --   -0.34241  -0.33407  -0.31796  -0.31247  -0.30937
 Alpha  occ. eigenvalues --   -0.29616  -0.29196  -0.28780  -0.27823  -0.27423
 Alpha  occ. eigenvalues --   -0.26958  -0.25773  -0.24368  -0.22749  -0.16227
 Alpha  occ. eigenvalues --   -0.13304  -0.11793   0.04183
 Alpha virt. eigenvalues --    0.06096   0.07400   0.07541   0.08390   0.08653
 Alpha virt. eigenvalues --    0.08773   0.09336   0.10329   0.10690   0.11211
 Alpha virt. eigenvalues --    0.11540   0.11973   0.12344   0.12706   0.13943

  Beta  occ. eigenvalues --  -18.99427 -14.24788 -14.21769 -10.17911 -10.10775
  Beta  occ. eigenvalues --  -10.09908 -10.09445 -10.09286 -10.09285 -10.07432
  Beta  occ. eigenvalues --  -10.07432 -10.06428  -0.94582  -0.85025  -0.82163
  Beta  occ. eigenvalues --   -0.71023  -0.67792  -0.61263  -0.60136  -0.59989
  Beta  occ. eigenvalues --   -0.55217  -0.54069  -0.48475  -0.46569  -0.41253
  Beta  occ. eigenvalues --   -0.38337  -0.36511  -0.36377  -0.35668  -0.34685
  Beta  occ. eigenvalues --   -0.34213  -0.33385  -0.31750  -0.31203  -0.30910
  Beta  occ. eigenvalues --   -0.29568  -0.29169  -0.28744  -0.27790  -0.27386
  Beta  occ. eigenvalues --   -0.26915  -0.25748  -0.24339  -0.22741  -0.16218
  Beta  occ. eigenvalues --   -0.13274  -0.11780
  Beta virt. eigenvalues --    0.06395   0.06925   0.08126   0.08188   0.08563
  Beta virt. eigenvalues --    0.08884   0.09373   0.09753   0.10674   0.11147
  Beta virt. eigenvalues --    0.11549   0.11934   0.12158   0.12760   0.12938

 Mulliken charges and spin densities:
               1          2
     1  C    0.604145  -1.065283
     2  C   -1.028574   1.047342
     3  C    0.604096  -1.065034
     4  C    0.240569  -0.320413
     5  O   -0.336292  -0.000866
     6  N   -0.233352   0.108039
     7  C   -0.432642   0.453601
     8  C   -1.276799   1.088700
     9  C    1.157950  -1.918296
    10  N    0.056039   0.063471
    11  C    0.742628  -1.070763
    12  C    0.743467  -1.071306
    13  H   -0.554547   0.694607
    14  H    0.033965   0.110566
    15  H   -0.188167   0.338679
    16  H    0.003818   0.223704
    17  H   -0.553572   0.693603
    18  H    0.033846   0.110679
    19  H   -0.187630   0.338135
    20  H    0.425320  -0.056590
    21  H    1.291350  -1.182622
    22  H   -0.261613   0.422236
    23  H   -0.261216   0.421831
    24  H   -0.684210   0.838659
    25  H   -0.001540   0.140709
    26  H   -0.277441   0.412866
    27  H   -0.189703   0.344472
    28  H   -0.189582   0.344433
    29  H   -0.277929   0.413302
    30  H   -0.002384   0.141537
 Sum of Mulliken charges =  -1.00000   1.00000

 Dipole moment (field-independent basis, Debye):
    X=             -1.7319    Y=             -3.1395    Z=             -0.0001  Tot=              3.5855
 Quadrupole moment (field-independent basis, Debye-Ang):
   XX=           -149.3925   YY=           -129.1071   ZZ=           -110.6766
   XY=             -5.8090   XZ=              0.0008   YZ=             -0.0119

 Summary of Natural Population Analysis:

                                       Natural Population
                Natural  -----------------------------------------------
    Atom  No    Charge         Core      Valence    Rydberg      Total
 -----------------------------------------------------------------------
      C    1   -0.28315      0.99965     2.27781    0.00569     3.28315
      C    2   -0.15168      0.99957     2.14261    0.00950     3.15168
      C    3   -0.28315      0.99965     2.27781    0.00568     3.28315
      C    4    0.34689      0.99963     1.62993    0.02354     2.65311
      O    5   -0.32258      0.99988     3.31716    0.00554     4.32258
      N    6   -0.30692      0.99964     2.79790    0.00938     3.80692
      C    7   -0.00483      0.99940     1.99337    0.01206     3.00483
      C    8    0.06689      0.99948     1.91921    0.01443     2.93311
      C    9   -0.30418      0.99962     2.29867    0.00589     3.30418
      N   10   -0.29537      0.99971     2.78173    0.01392     3.79537
      C   11   -0.17531      0.99963     2.16715    0.00852     3.17531
      C   12   -0.17532      0.99963     2.16715    0.00853     3.17532
      H   13    0.09967      0.00000     0.39892    0.00141     0.40033
      H   14    0.10192      0.00000     0.39709    0.00099     0.39808
      H   15    0.10125      0.00000     0.39767    0.00108     0.39875
      H   16    0.10717      0.00000     0.39103    0.00180     0.39283
      H   17    0.09968      0.00000     0.39892    0.00141     0.40032
      H   18    0.10192      0.00000     0.39709    0.00099     0.39808
      H   19    0.10125      0.00000     0.39767    0.00108     0.39875
      H   20    0.20573      0.00000     0.29093    0.00333     0.29427
      H   21    0.09992      0.00000     0.39799    0.00209     0.40008
      H   22    0.10380      0.00000     0.39448    0.00172     0.39620
      H   23    0.10380      0.00000     0.39448    0.00172     0.39620
      H   24    0.10731      0.00000     0.39103    0.00165     0.39269
      H   25    0.09390      0.00000     0.40512    0.00098     0.40610
      H   26    0.08453      0.00000     0.41393    0.00154     0.41547
      H   27    0.09920      0.00000     0.39977    0.00103     0.40080
      H   28    0.09920      0.00000     0.39977    0.00103     0.40080
      H   29    0.08453      0.00000     0.41393    0.00154     0.41547
      H   30    0.09391      0.00000     0.40511    0.00098     0.40609
 =======================================================================
   * Total *    0.00000     11.99550    34.85545    0.14905    47.00000

 Normal termination of Gaussian 16 at Wed Dec  9 19:09:23 2020.
