 Gaussian 16, Revision A.03,

 -----------------------------------------------------------
 # opt freq B3LYP/6-31G(d) empiricaldispersion=gd3bj scf=xqc
 -----------------------------------------------------------

 -------------------------------
 CID_116303585_JID_6671_neutraal
 -------------------------------
 Symbolic Z-matrix:
 Charge =  0 Multiplicity = 1

 SCF Done:  E(RB3LYP) =  -672.294851198     A.U. after   14 cycles
 SCF Done:  E(RB3LYP) =  -672.301702640     A.U. after   13 cycles
 SCF Done:  E(RB3LYP) =  -672.301154892     A.U. after   12 cycles
 SCF Done:  E(RB3LYP) =  -672.305093309     A.U. after   11 cycles
 SCF Done:  E(RB3LYP) =  -672.307898453     A.U. after   14 cycles
 SCF Done:  E(RB3LYP) =  -672.309156225     A.U. after   12 cycles
 SCF Done:  E(RB3LYP) =  -672.309300179     A.U. after   12 cycles
 SCF Done:  E(RB3LYP) =  -672.309892331     A.U. after   11 cycles
 SCF Done:  E(RB3LYP) =  -672.310406008     A.U. after   12 cycles
 SCF Done:  E(RB3LYP) =  -672.310795139     A.U. after   12 cycles
 SCF Done:  E(RB3LYP) =  -672.311972362     A.U. after   10 cycles
 SCF Done:  E(RB3LYP) =  -672.311977284     A.U. after    9 cycles
 SCF Done:  E(RB3LYP) =  -672.311978843     A.U. after    9 cycles
 SCF Done:  E(RB3LYP) =  -672.311979238     A.U. after    7 cycles
 SCF Done:  E(RB3LYP) =  -672.311979438     A.U. after    7 cycles
 Optimization completed.
    -- Stationary point found.
 Normal termination of Gaussian 16 at Fri Dec 11 00:22:22 2020.

 --------------------------------------------------------------------
 #N Geom=AllCheck Guess=TCheck SCRF=Check GenChk RB3LYP/6-31G(d) Freq
 --------------------------------------------------------------------

 Structure from the checkpoint file:  "JID_6671.chk"
 -------------------------------
 CID_116303585_JID_6671_neutraal
 -------------------------------
 Charge =  0 Multiplicity = 1

 SCF Done:  E(RB3LYP) =  -672.311979438     A.U. after    1 cycles

  Exact polarizability: 143.441 -20.403 172.132  -9.438  -2.306 135.684
 Approx polarizability: 196.377 -43.280 273.909 -26.192  -8.897 221.851

                      1                      2                      3
                      A                      A                      A
 Frequencies --     35.5004                47.2197                66.4327
 Red. masses --      3.2152                 3.7911                 3.7093
 Frc consts  --      0.0024                 0.0050                 0.0096
 IR Inten    --      0.0725                 0.1118                 0.9723

                      4                      5                      6
                      A                      A                      A
 Frequencies --     75.3613                96.0677               110.5767
 Red. masses --      3.6010                 3.8720                 3.6516
 Frc consts  --      0.0120                 0.0211                 0.0263
 IR Inten    --      0.1025                 1.2756                 2.6609

                      7                      8                      9
                      A                      A                      A
 Frequencies --    129.8600               153.9767               169.4235
 Red. masses --      2.7414                 2.2470                 2.6887
 Frc consts  --      0.0272                 0.0314                 0.0455
 IR Inten    --      0.2895                 0.8456                 1.1722

                     10                     11                     12
                      A                      A                      A
 Frequencies --    195.6113               226.3858               246.9069
 Red. masses --      2.1607                 2.5426                 1.3309
 Frc consts  --      0.0487                 0.0768                 0.0478
 IR Inten    --      3.1269                 0.4338                 1.6561

                     13                     14                     15
                      A                      A                      A
 Frequencies --    267.0918               278.2965               302.2222
 Red. masses --      1.3004                 2.4680                 2.6369
 Frc consts  --      0.0547                 0.1126                 0.1419
 IR Inten    --      2.8065                 1.7634                 0.6652

                     16                     17                     18
                      A                      A                      A
 Frequencies --    350.9464               356.6578               378.5298
 Red. masses --      2.2633                 2.6306                 2.0566
 Frc consts  --      0.1642                 0.1972                 0.1736
 IR Inten    --      0.0793                 7.0906                 0.5686

                     19                     20                     21
                      A                      A                      A
 Frequencies --    417.0069               437.2234               469.5159
 Red. masses --      2.3855                 1.9877                 2.9584
 Frc consts  --      0.2444                 0.2239                 0.3842
 IR Inten    --      3.0529                 2.2440                13.5657

                     22                     23                     24
                      A                      A                      A
 Frequencies --    499.0076               549.7924               562.0742
 Red. masses --      3.3144                 3.9763                 3.4090
 Frc consts  --      0.4863                 0.7082                 0.6345
 IR Inten    --      2.1080                 4.4530                 3.4701

                     25                     26                     27
                      A                      A                      A
 Frequencies --    592.1344               615.3722               655.7297
 Red. masses --      3.2062                 4.7220                 1.5873
 Frc consts  --      0.6623                 1.0535                 0.4021
 IR Inten    --      2.7105                 0.2080                 8.1060

                     28                     29                     30
                      A                      A                      A
 Frequencies --    718.4183               772.9592               797.4880
 Red. masses --      3.7523                 1.6955                 1.5061
 Frc consts  --      1.1410                 0.5968                 0.5644
 IR Inten    --      3.2188               118.8669                40.5389

                     31                     32                     33
                      A                      A                      A
 Frequencies --    812.1150               822.4489               851.1992
 Red. masses --      1.6935                 3.6341                 3.5235
 Frc consts  --      0.6581                 1.4483                 1.5041
 IR Inten    --     21.3471                 3.0907                35.4758

                     34                     35                     36
                      A                      A                      A
 Frequencies --    869.5877               919.2640               924.7114
 Red. masses --      2.9993                 1.9501                 2.1458
 Frc consts  --      1.3363                 0.9709                 1.0811
 IR Inten    --     11.2483                 1.0862                 2.5593

                     37                     38                     39
                      A                      A                      A
 Frequencies --    952.6547               955.1789               957.8739
 Red. masses --      1.3754                 1.5187                 1.5105
 Frc consts  --      0.7355                 0.8164                 0.8165
 IR Inten    --     35.0102                 6.5128                 7.9841

                     40                     41                     42
                      A                      A                      A
 Frequencies --    969.8813               987.5161               995.9867
 Red. masses --      1.3372                 1.5504                 1.9988
 Frc consts  --      0.7411                 0.8908                 1.1682
 IR Inten    --      1.7220                 3.1547                24.1834

                     43                     44                     45
                      A                      A                      A
 Frequencies --   1040.2538              1062.7670              1087.3075
 Red. masses --      1.1177                 1.8986                 2.1259
 Frc consts  --      0.7126                 1.2635                 1.4808
 IR Inten    --     15.6374                 4.8160                 5.1472

                     46                     47                     48
                      A                      A                      A
 Frequencies --   1096.7328              1102.5136              1127.0808
 Red. masses --      2.6331                 2.0703                 1.6161
 Frc consts  --      1.8660                 1.4827                 1.2096
 IR Inten    --      6.6606                 5.4628                15.5599

                     49                     50                     51
                      A                      A                      A
 Frequencies --   1143.1424              1155.3877              1167.0910
 Red. masses --      3.1324                 1.4317                 1.4124
 Frc consts  --      2.4117                 1.1261                 1.1335
 IR Inten    --     22.1396                 4.9316                21.4860

                     52                     53                     54
                      A                      A                      A
 Frequencies --   1173.7465              1181.0515              1205.7968
 Red. masses --      1.5183                 1.5626                 2.1520
 Frc consts  --      1.2324                 1.2842                 1.8435
 IR Inten    --      7.3279                10.9897                 2.3594

                     55                     56                     57
                      A                      A                      A
 Frequencies --   1239.9920              1252.2162              1262.3995
 Red. masses --      2.2731                 1.5170                 1.5892
 Frc consts  --      2.0592                 1.4015                 1.4922
 IR Inten    --     11.4939                25.2379                13.0371

                     58                     59                     60
                      A                      A                      A
 Frequencies --   1307.2590              1315.7108              1329.7435
 Red. masses --      1.9205                 2.7844                 1.4771
 Frc consts  --      1.9337                 2.8399                 1.5388
 IR Inten    --     11.7687                 0.6289                13.6407

                     61                     62                     63
                      A                      A                      A
 Frequencies --   1338.7820              1349.6777              1377.8734
 Red. masses --      1.2568                 1.5399                 1.3474
 Frc consts  --      1.3272                 1.6528                 1.5071
 IR Inten    --      1.2492                 3.2155                 6.8681

                     64                     65                     66
                      A                      A                      A
 Frequencies --   1384.0809              1392.6414              1412.1532
 Red. masses --      1.3734                 1.5496                 1.3608
 Frc consts  --      1.5501                 1.7707                 1.5989
 IR Inten    --     13.0566                17.7477                 7.6414

                     67                     68                     69
                      A                      A                      A
 Frequencies --   1439.2092              1466.7894              1479.1522
 Red. masses --      1.4034                 1.5586                 1.1910
 Frc consts  --      1.7127                 1.9757                 1.5353
 IR Inten    --     12.2058               110.0102                 0.4716

                     70                     71                     72
                      A                      A                      A
 Frequencies --   1480.6559              1493.6599              1498.4544
 Red. masses --      1.1670                 1.5734                 1.7055
 Frc consts  --      1.5074                 2.0682                 2.2563
 IR Inten    --      0.4081                63.6592                11.8956

                     73                     74                     75
                      A                      A                      A
 Frequencies --   1505.9849              1509.2223              1510.9115
 Red. masses --      1.1342                 1.0858                 1.0947
 Frc consts  --      1.5156                 1.4571                 1.4724
 IR Inten    --     25.5093                 4.1646                 4.6730

                     76                     77                     78
                      A                      A                      A
 Frequencies --   1514.0330              1515.5973              1521.8842
 Red. masses --      1.1015                 1.1277                 1.1302
 Frc consts  --      1.4877                 1.5262                 1.5424
 IR Inten    --      7.5436                 4.6123                12.3030

                     79                     80                     81
                      A                      A                      A
 Frequencies --   1525.5824              1547.2856              1549.4987
 Red. masses --      1.2345                 1.0933                 1.0815
 Frc consts  --      1.6929                 1.5421                 1.5298
 IR Inten    --     20.2250                16.8959                25.2632

                     82                     83                     84
                      A                      A                      A
 Frequencies --   1616.4080              1645.2899              1734.6610
 Red. masses --      6.2826                 5.3434                 4.4833
 Frc consts  --      9.6714                 8.5222                 7.9483
 IR Inten    --     32.1181                71.1232                 4.3374

                     85                     86                     87
                      A                      A                      A
 Frequencies --   2988.0940              3023.9742              3027.2886
 Red. masses --      1.0554                 1.0685                 1.0671
 Frc consts  --      5.5523                 5.7569                 5.7616
 IR Inten    --     51.1050                11.7081                60.6732

                     88                     89                     90
                      A                      A                      A
 Frequencies --   3030.9577              3041.6665              3061.6501
 Red. masses --      1.0450                 1.0686                 1.0707
 Frc consts  --      5.6560                 5.8251                 5.9131
 IR Inten    --     24.7567                98.0571                34.3195

                     91                     92                     93
                      A                      A                      A
 Frequencies --   3082.2884              3083.1977              3091.0944
 Red. masses --      1.0772                 1.0938                 1.0978
 Frc consts  --      6.0295                 6.1263                 6.1804
 IR Inten    --     41.9932                35.3691                33.9368

                     94                     95                     96
                      A                      A                      A
 Frequencies --   3099.2137              3124.6470              3127.1403
 Red. masses --      1.0933                 1.1042                 1.0862
 Frc consts  --      6.1873                 6.3516                 6.2585
 IR Inten    --      6.2928                33.6665                33.9877

                     97                     98                     99
                      A                      A                      A
 Frequencies --   3139.0545              3146.1917              3155.8515
 Red. masses --      1.0935                 1.1003                 1.0921
 Frc consts  --      6.3482                 6.4171                 6.4082
 IR Inten    --     24.9078                20.6629                 7.6898

                    100                    101                    102
                      A                      A                      A
 Frequencies --   3163.6624              3166.3589              3166.8390
 Red. masses --      1.0879                 1.0647                 1.0901
 Frc consts  --      6.4153                 6.2892                 6.4413
 IR Inten    --      9.2710                10.5094                35.2849

                    103                    104                    105
                      A                      A                      A
 Frequencies --   3214.4727              3246.6312              3479.3358
 Red. masses --      1.0952                 1.1154                 1.0737
 Frc consts  --      6.6677                 6.9270                 7.6584
 IR Inten    --     21.7200                13.1606                 1.3313

 - Thermochemistry -
 -------------------
 Temperature   298.150 Kelvin.  Pressure   1.00000 Atm.
 Atom     1 has atomic number  6 and mass  12.00000

 Molecular mass:   219.17355 amu.
 Principal axes and moments of inertia in atomic units:
                           1         2         3
     Eigenvalues --  2714.694343957.816064725.87318
           X            1.00000  -0.00245   0.00113
           Y            0.00241   0.99940   0.03442
           Z           -0.00121  -0.03442   0.99941
 This molecule is an asymmetric top.
 Rotational symmetry number  1.
 Warning -- assumption of classical behavior for rotation
           may cause significant error
 Rotational temperatures (Kelvin)      0.03191     0.02188     0.01833
 Rotational constants (GHZ):           0.66480     0.45599     0.38189
 Zero-point vibrational energy     863174.4 (Joules/Mol)
                                  206.30364 (Kcal/Mol)
 Warning -- explicit consideration of  26 degrees of freedom as
           vibrations may cause significant error
 Vibrational temperatures:     51.08    67.94    95.58   108.43   138.22
          (Kelvin)            159.10   186.84   221.54   243.76   281.44
                              325.72   355.24   384.29   400.41   434.83
                              504.93   513.15   544.62   599.98   629.07
                              675.53   717.96   791.03   808.70   851.95
                              885.38   943.45  1033.64  1112.12  1147.41
                             1168.45  1183.32  1224.69  1251.14  1322.62
                             1330.45  1370.66  1374.29  1378.17  1395.44
                             1420.82  1433.00  1496.69  1529.08  1564.39
                             1577.95  1586.27  1621.62  1644.73  1662.35
                             1679.18  1688.76  1699.27  1734.87  1784.07
                             1801.66  1816.31  1880.85  1893.01  1913.20
                             1926.21  1941.89  1982.45  1991.38  2003.70
                             2031.77  2070.70  2110.38  2128.17  2130.33
                             2149.04  2155.94  2166.78  2171.43  2173.86
                             2178.36  2180.61  2189.65  2194.97  2226.20
                             2229.38  2325.65  2367.21  2495.79  4299.20
                             4350.82  4355.59  4360.87  4376.28  4405.03
                             4434.73  4436.03  4447.40  4459.08  4495.67
                             4499.26  4516.40  4526.67  4540.57  4551.80
                             4555.68  4556.37  4624.91  4671.18  5005.99

 Zero-point correction=                           0.328766 (Hartree/Particle)
 Thermal correction to Energy=                    0.345450
 Thermal correction to Enthalpy=                  0.346394
 Thermal correction to Gibbs Free Energy=         0.284371
 Sum of electronic and zero-point Energies=           -671.983214
 Sum of electronic and thermal Energies=              -671.966530
 Sum of electronic and thermal Enthalpies=            -671.965585
 Sum of electronic and thermal Free Energies=         -672.027609

                     E (Thermal)             CV                S
                      KCal/Mol        Cal/Mol-Kelvin    Cal/Mol-Kelvin
 Total                  216.773             63.143            130.539
 Electronic               0.000              0.000              0.000
 Translational            0.889              2.981             42.057
 Rotational               0.889              2.981             32.296
 Vibrational            214.996             57.181             56.186
 Vibration     1          0.594              1.982              5.496
 Vibration     2          0.595              1.979              4.931
 Vibration     3          0.598              1.970              4.256
 Vibration     4          0.599              1.965              4.008
 Vibration     5          0.603              1.952              3.533
 Vibration     6          0.606              1.941              3.259
 Vibration     7          0.612              1.923              2.948
 Vibration     8          0.619              1.898              2.623
 Vibration     9          0.625              1.880              2.442
 Vibration    10          0.636              1.846              2.174
 Vibration    11          0.650              1.801              1.907
 Vibration    12          0.661              1.768              1.753
 Vibration    13          0.672              1.734              1.615
 Vibration    14          0.679              1.714              1.544
 Vibration    15          0.694              1.669              1.405
 Vibration    16          0.728              1.573              1.162
 Vibration    17          0.732              1.562              1.137
 Vibration    18          0.749              1.516              1.045
 Vibration    19          0.780              1.433              0.902
 Vibration    20          0.798              1.389              0.835
 Vibration    21          0.827              1.318              0.739
 Vibration    22          0.854              1.252              0.661
 Vibration    23          0.905              1.140              0.545
 Vibration    24          0.918              1.113              0.520
 Vibration    25          0.950              1.049              0.463
 Vibration    26          0.975              0.999              0.424

 Optimization completed.
    -- Stationary point found.
 Normal termination of Gaussian 16 at Fri Dec 11 00:36:52 2020.

 ----------------------------------------------------------------------
 # B3LYP/6-311++G(d,p) empiricaldispersion=gd3bj scf=xqc pop=npa geom=c
 heck
 ----------------------------------------------------------------------

 ---------------------------------------
 CID_116303585_JID_6671_Energie_neutraal
 ---------------------------------------
 Structure from the checkpoint file:  "JID_6671.chk"
 Charge =  0 Multiplicity = 1

 SCF Done:  E(RB3LYP) =  -672.496338056     A.U. after   15 cycles
 Normal termination of Gaussian 16 at Fri Dec 11 00:42:56 2020.

 ----------------------------------------------------------------------
 # B3LYP/6-311++G(d,p) empiricaldispersion=gd3bj scf=xqc pop=npa geom=c
 heck
 ----------------------------------------------------------------------

 -------------------------------------
 CID_116303585_JID_6671_Energie_kation
 -------------------------------------
 Structure from the checkpoint file:  "JID_6671.chk"
 Charge =  1 Multiplicity = 2

 SCF Done:  E(UB3LYP) =  -672.225680428     A.U. after   26 cycles
 Normal termination of Gaussian 16 at Fri Dec 11 00:57:32 2020.
 Gaussian 16:  ES64L-G16RevA.03 25-Dec-2016

 ----------------------------------------------------------------------
 # B3LYP/6-311++G(d,p) empiricaldispersion=gd3bj scf=xqc pop=npa geom=c
 heck
 ----------------------------------------------------------------------

 ------------------------------------
 CID_116303585_JID_6671_Energie_anion
 ------------------------------------
 Structure from the checkpoint file:  "JID_6671.chk"
 Charge = -1 Multiplicity = 2

                         Standard orientation:
 ---------------------------------------------------------------------
 Center     Atomic      Atomic             Coordinates (Angstroms)
 Number     Number       Type             X           Y           Z
 ---------------------------------------------------------------------
      1          6           0       -3.199322   -1.599181   -0.014947
      2          7           0       -3.109384   -0.791426    1.198914
      3          6           0       -1.741466   -0.369088    1.524690
      4          6           0       -1.103122    0.521720    0.468667
      5          6           0       -0.277599    0.040052   -0.581000
      6          7           0        0.021990    0.784557   -1.657578
      7          6           0       -0.410203    2.049145   -1.710568
      8          6           0       -1.132672    2.654611   -0.688210
      9          6           0       -1.489888    1.857821    0.401138
     10          7           0        0.214345   -1.272270   -0.563870
     11          6           0        0.537402   -1.863460   -1.854778
     12          6           0        1.084306   -1.690019    0.543212
     13          6           0        2.591099   -1.549701    0.273602
     14          6           0        3.045843   -0.099753    0.022634
     15          6           0        2.852498    0.781847    1.225460
     16          6           0        2.089212    1.874282    1.264341
     17          1           0       -2.605743   -2.509675    0.119430
     18          1           0       -2.834995   -1.100554   -0.928893
     19          1           0       -4.243072   -1.890549   -0.172064
     20          1           0       -3.689452    0.039126    1.086570
     21          1           0       -1.780763    0.171968    2.477659
     22          1           0       -1.163920   -1.278203    1.693841
     23          1           0       -0.149971    2.601955   -2.611905
     24          1           0       -1.430282    3.696033   -0.754289
     25          1           0       -2.110407    2.267762    1.196560
     26          1           0        0.666281   -2.942539   -1.713969
     27          1           0       -0.291176   -1.693861   -2.545579
     28          1           0        1.445001   -1.454826   -2.318474
     29          1           0        0.836513   -1.085652    1.417073
     30          1           0        0.858442   -2.737149    0.788325
     31          1           0        3.121196   -1.957550    1.146073
     32          1           0        2.880950   -2.175327   -0.578437
     33          1           0        4.112156   -0.118424   -0.245758
     34          1           0        2.507776    0.317292   -0.835543
     35          1           0        3.378799    0.468401    2.129921
     36          1           0        1.985588    2.466471    2.169959
     37          1           0        1.541883    2.219607    0.391792
 ---------------------------------------------------------------------

 SCF Done:  E(UB3LYP) =  -672.483053667     A.U. after   33 cycles
 SCF Done:  E(UB3LYP) =  -672.483053667     a.u. after    1 cycles

 The electronic state is 2-A.
 Alpha  occ. eigenvalues --  -14.21622 -14.19944 -14.19096 -10.13114 -10.09879
 Alpha  occ. eigenvalues --  -10.09376 -10.09196 -10.08737 -10.08341 -10.07347
 Alpha  occ. eigenvalues --  -10.07204 -10.07010 -10.06990 -10.06876 -10.06699
 Alpha  occ. eigenvalues --  -10.06027  -0.86340  -0.80453  -0.80255  -0.70732
 Alpha  occ. eigenvalues --   -0.69699  -0.66204  -0.64546  -0.60141  -0.59981
 Alpha  occ. eigenvalues --   -0.56494  -0.54229  -0.51187  -0.49584  -0.47771
 Alpha  occ. eigenvalues --   -0.45344  -0.41928  -0.40263  -0.37975  -0.37907
 Alpha  occ. eigenvalues --   -0.37534  -0.36285  -0.34912  -0.34616  -0.33672
 Alpha  occ. eigenvalues --   -0.32587  -0.31699  -0.30883  -0.29756  -0.28881
 Alpha  occ. eigenvalues --   -0.28641  -0.28052  -0.27222  -0.26817  -0.26477
 Alpha  occ. eigenvalues --   -0.26191  -0.25355  -0.23919  -0.22953  -0.18456
 Alpha  occ. eigenvalues --   -0.17510  -0.15831  -0.15537  -0.12693  -0.10522
 Alpha  occ. eigenvalues --    0.04426
 Alpha virt. eigenvalues --    0.06082   0.07057   0.07145   0.07532   0.08290
 Alpha virt. eigenvalues --    0.08638   0.08891   0.08958   0.09685   0.09991
 Alpha virt. eigenvalues --    0.10228   0.11002   0.11348   0.11556   0.12145

  Beta  occ. eigenvalues --  -14.21625 -14.19934 -14.18997 -10.13127 -10.09871
  Beta  occ. eigenvalues --  -10.09301 -10.09189 -10.08719 -10.08322 -10.07340
  Beta  occ. eigenvalues --  -10.07091 -10.06971 -10.06960 -10.06865 -10.06719
  Beta  occ. eigenvalues --  -10.06017  -0.86269  -0.80400  -0.80181  -0.70706
  Beta  occ. eigenvalues --   -0.69530  -0.66138  -0.64499  -0.60108  -0.59930
  Beta  occ. eigenvalues --   -0.56439  -0.54128  -0.51120  -0.49469  -0.47718
  Beta  occ. eigenvalues --   -0.45305  -0.41884  -0.40205  -0.37925  -0.37866
  Beta  occ. eigenvalues --   -0.37479  -0.36246  -0.34847  -0.34571  -0.33632
  Beta  occ. eigenvalues --   -0.32551  -0.31662  -0.30834  -0.29718  -0.28741
  Beta  occ. eigenvalues --   -0.28515  -0.27988  -0.27185  -0.26744  -0.26445
  Beta  occ. eigenvalues --   -0.26154  -0.25316  -0.23872  -0.22924  -0.18166
  Beta  occ. eigenvalues --   -0.17234  -0.15757  -0.15360  -0.12646  -0.10404
  Beta virt. eigenvalues --    0.06509   0.07078   0.07555   0.07683   0.08010
  Beta virt. eigenvalues --    0.08743   0.08921   0.09137   0.09343   0.09836
  Beta virt. eigenvalues --    0.10116   0.10442   0.11284   0.11653   0.11885

 Mulliken charges and spin densities:
               1          2
     1  C   -0.006942  -0.450299
     2  N   -0.105315   0.088375
     3  C    0.295412  -1.146613
     4  C   -0.194077   0.779407
     5  C   -1.040189   0.079779
     6  N   -0.087575   0.135681
     7  C    0.148632  -0.150403
     8  C    0.068995  -0.536868
     9  C    0.527825  -0.515631
    10  N    0.326260   0.050927
    11  C    0.401601  -0.639454
    12  C   -0.314155   0.229180
    13  C    0.769372  -1.433181
    14  C   -0.672111   0.517820
    15  C    0.417511  -0.348374
    16  C   -0.165206  -0.395813
    17  H    0.053642   0.095935
    18  H    0.045154   0.099766
    19  H   -0.076018   0.220718
    20  H    0.148415   0.068961
    21  H   -0.176199   0.383302
    22  H    0.034977   0.111234
    23  H    0.068194   0.090978
    24  H   -0.357405   0.520310
    25  H   -0.559193   0.740548
    26  H   -0.234754   0.377836
    27  H    0.111122   0.054145
    28  H    0.100705   0.059745
    29  H    0.135551  -0.030059
    30  H   -0.170557   0.373917
    31  H   -0.399052   0.566141
    32  H   -0.063888   0.210599
    33  H   -0.101911   0.289749
    34  H   -0.036659   0.193966
    35  H    0.007801   0.146645
    36  H   -0.170009   0.308700
    37  H    0.270045  -0.147672
 Sum of Mulliken charges =  -1.00000   1.00000

 Dipole moment (field-independent basis, Debye):
    X=             -0.0153    Y=              0.0970    Z=             -2.1284  Tot=              2.1307
 Quadrupole moment (field-independent basis, Debye-Ang):
   XX=           -157.1310   YY=           -152.0896   ZZ=           -138.8403
   XY=              7.0608   XZ=              4.1815   YZ=             -2.8847

 Summary of Natural Population Analysis:

                                       Natural Population
                Natural  -----------------------------------------------
    Atom  No    Charge         Core      Valence    Rydberg      Total
 -----------------------------------------------------------------------
      C    1   -0.17934      0.99965     2.17253    0.00716     3.17934
      N    2   -0.33052      0.99976     2.81957    0.01118     3.83052
      C    3   -0.09629      0.99959     2.08369    0.01302     3.09629
      C    4   -0.05007      0.99944     2.03912    0.01151     3.05007
      C    5    0.21097      0.99945     1.77367    0.01591     2.78903
      N    6   -0.24977      0.99967     2.73947    0.01064     3.74977
      C    7    0.03741      0.99958     1.94881    0.01421     2.96259
      C    8   -0.14433      0.99955     2.13474    0.01004     3.14433
      C    9   -0.06224      0.99951     2.05096    0.01177     3.06224
      N   10   -0.27658      0.99967     2.76368    0.01322     3.77658
      C   11   -0.17603      0.99964     2.16766    0.00873     3.17603
      C   12   -0.08127      0.99959     2.07002    0.01167     3.08127
      C   13   -0.19329      0.99962     2.18483    0.00884     3.19329
      C   14   -0.21699      0.99960     2.20768    0.00971     3.21699
      C   15   -0.08895      0.99956     2.07944    0.00995     3.08895
      C   16   -0.18747      0.99955     2.18006    0.00786     3.18747
      H   17    0.09298      0.00000     0.40555    0.00147     0.40702
      H   18    0.08359      0.00000     0.41485    0.00156     0.41641
      H   19    0.08985      0.00000     0.40925    0.00090     0.41015
      H   20    0.16812      0.00000     0.32873    0.00315     0.33188
      H   21    0.09943      0.00000     0.39899    0.00159     0.40057
      H   22    0.09796      0.00000     0.40020    0.00184     0.40204
      H   23    0.08629      0.00000     0.41276    0.00095     0.41371
      H   24    0.10248      0.00000     0.39650    0.00102     0.39752
      H   25    0.09933      0.00000     0.39880    0.00187     0.40067
      H   26    0.09276      0.00000     0.40632    0.00092     0.40724
      H   27    0.10118      0.00000     0.39782    0.00100     0.39882
      H   28    0.09068      0.00000     0.40787    0.00144     0.40932
      H   29    0.10193      0.00000     0.39623    0.00184     0.39807
      H   30    0.09351      0.00000     0.40524    0.00125     0.40649
      H   31    0.09768      0.00000     0.40085    0.00147     0.40232
      H   32    0.09941      0.00000     0.39923    0.00135     0.40059
      H   33    0.10152      0.00000     0.39743    0.00105     0.39848
      H   34    0.10793      0.00000     0.38966    0.00241     0.39207
      H   35    0.08900      0.00000     0.40997    0.00103     0.41100
      H   36    0.09251      0.00000     0.40654    0.00095     0.40749
      H   37    0.09661      0.00000     0.40135    0.00204     0.40339
 =======================================================================
   * Total *    0.00000     15.99344    43.80008    0.20648    60.00000

 Normal termination of Gaussian 16 at Fri Dec 11 01:16:25 2020.
