 Gaussian 16, Revision A.03,

 -----------------------------------------------------------
 # opt freq B3LYP/6-31G(d) empiricaldispersion=gd3bj scf=xqc
 -----------------------------------------------------------

 -------------------------------
 CID_116972318_JID_9384_neutraal
 -------------------------------
 Symbolic Z-matrix:
 Charge =  0 Multiplicity = 1

 SCF Done:  E(RB3LYP) =  -860.900619216     A.U. after   15 cycles
 SCF Done:  E(RB3LYP) =  -860.909334299     A.U. after   13 cycles
 SCF Done:  E(RB3LYP) =  -860.910435369     A.U. after   13 cycles
 SCF Done:  E(RB3LYP) =  -860.910752643     A.U. after   13 cycles
 SCF Done:  E(RB3LYP) =  -860.910840172     A.U. after   13 cycles
 SCF Done:  E(RB3LYP) =  -860.910915807     A.U. after   12 cycles
 SCF Done:  E(RB3LYP) =  -860.910988097     A.U. after   11 cycles
 SCF Done:  E(RB3LYP) =  -860.911072796     A.U. after   12 cycles
 SCF Done:  E(RB3LYP) =  -860.911166944     A.U. after   12 cycles
 SCF Done:  E(RB3LYP) =  -860.911153523     A.U. after   12 cycles
 SCF Done:  E(RB3LYP) =  -860.912320514     A.U. after   10 cycles
 SCF Done:  E(RB3LYP) =  -860.912325354     A.U. after   10 cycles
 SCF Done:  E(RB3LYP) =  -860.912325784     A.U. after    8 cycles
 SCF Done:  E(RB3LYP) =  -860.912325792     A.U. after    8 cycles
 SCF Done:  E(RB3LYP) =  -860.912325809     A.U. after    7 cycles
 Optimization completed.
    -- Stationary point found.
 Normal termination of Gaussian 16 at Sun Dec 13 16:32:53 2020.

 --------------------------------------------------------------------
 #N Geom=AllCheck Guess=TCheck SCRF=Check GenChk RB3LYP/6-31G(d) Freq
 --------------------------------------------------------------------

 Structure from the checkpoint file:  "JID_9384.chk"
 -------------------------------
 CID_116972318_JID_9384_neutraal
 -------------------------------
 Charge =  0 Multiplicity = 1

 SCF Done:  E(RB3LYP) =  -860.912325809     A.U. after    1 cycles

  Exact polarizability: 217.936  29.050 149.976  -1.296   3.587 142.032
 Approx polarizability: 294.281  52.546 214.848  -8.926  11.404 245.152

                      1                      2                      3
                      A                      A                      A
 Frequencies --     20.0143                29.3683                34.6009
 Red. masses --      4.0953                 3.9202                 7.1124
 Frc consts  --      0.0010                 0.0020                 0.0050
 IR Inten    --      0.2339                 0.1557                 1.1281

                      4                      5                      6
                      A                      A                      A
 Frequencies --     49.9183                71.9789                77.7181
 Red. masses --      5.5603                 4.1199                 4.2942
 Frc consts  --      0.0082                 0.0126                 0.0153
 IR Inten    --      5.6720                 1.4986                 1.0125

                      7                      8                      9
                      A                      A                      A
 Frequencies --     95.5036               146.6381               169.7607
 Red. masses --      3.0260                 4.3353                 3.2964
 Frc consts  --      0.0163                 0.0549                 0.0560
 IR Inten    --      0.5100                 2.4423                 2.4775

                     10                     11                     12
                      A                      A                      A
 Frequencies --    196.7185               231.9105               235.8371
 Red. masses --      3.8465                 2.3885                 1.1304
 Frc consts  --      0.0877                 0.0757                 0.0370
 IR Inten    --      0.1169                 2.6437                 0.4077

                     13                     14                     15
                      A                      A                      A
 Frequencies --    251.7581               270.1760               291.5912
 Red. masses --      2.8134                 1.1752                 3.3174
 Frc consts  --      0.1051                 0.0505                 0.1662
 IR Inten    --      2.0381                 0.1362                 1.7769

                     16                     17                     18
                      A                      A                      A
 Frequencies --    327.6448               351.6989               370.8769
 Red. masses --      2.6816                 2.3152                 3.3370
 Frc consts  --      0.1696                 0.1687                 0.2704
 IR Inten    --      0.1638                 4.1917                 1.8012

                     19                     20                     21
                      A                      A                      A
 Frequencies --    393.7690               417.6922               452.3618
 Red. masses --      3.0835                 3.1598                 3.1603
 Frc consts  --      0.2817                 0.3248                 0.3810
 IR Inten    --      0.0375                 3.2899                 0.7788

                     22                     23                     24
                      A                      A                      A
 Frequencies --    471.8509               478.2705               496.4841
 Red. masses --      3.3827                 4.3305                 2.0685
 Frc consts  --      0.4437                 0.5836                 0.3004
 IR Inten    --     12.5247                20.1504                 0.6815

                     25                     26                     27
                      A                      A                      A
 Frequencies --    526.4863               536.6763               562.6417
 Red. masses --      1.9119                 2.8622                 3.2129
 Frc consts  --      0.3122                 0.4857                 0.5993
 IR Inten    --     18.6413                 5.7268                 0.8872

                     28                     29                     30
                      A                      A                      A
 Frequencies --    585.6189               625.3925               649.8772
 Red. masses --      2.9256                 3.7196                 5.0498
 Frc consts  --      0.5912                 0.8571                 1.2566
 IR Inten    --      1.8474                27.7288                 2.4339

                     31                     32                     33
                      A                      A                      A
 Frequencies --    675.5243               690.3159               707.2686
 Red. masses --      2.3246                 1.6987                 3.2545
 Frc consts  --      0.6250                 0.4769                 0.9592
 IR Inten    --     21.5475                77.9785                 5.3053

                     34                     35                     36
                      A                      A                      A
 Frequencies --    788.7969               799.9537               821.7014
 Red. masses --      7.4810                 4.3623                 3.4792
 Frc consts  --      2.7425                 1.6447                 1.3841
 IR Inten    --      2.1863                 2.5453                 6.1870

                     37                     38                     39
                      A                      A                      A
 Frequencies --    845.7742               865.7196               878.7952
 Red. masses --      1.6423                 2.1312                 1.4597
 Frc consts  --      0.6922                 0.9411                 0.6642
 IR Inten    --     19.7309                 4.1035                10.0433

                     40                     41                     42
                      A                      A                      A
 Frequencies --    893.4615               907.6812               915.9821
 Red. masses --      2.7070                 2.6063                 2.8556
 Frc consts  --      1.2732                 1.2651                 1.4116
 IR Inten    --      1.0296                 5.5492                11.5335

                     43                     44                     45
                      A                      A                      A
 Frequencies --    943.4867               947.4642               968.0861
 Red. masses --      1.1485                 2.8321                 1.9016
 Frc consts  --      0.6024                 1.4979                 1.0500
 IR Inten    --      1.6840                16.1824                 4.9524

                     46                     47                     48
                      A                      A                      A
 Frequencies --    977.0755               980.0777              1030.9173
 Red. masses --      1.5468                 1.3121                 1.9564
 Frc consts  --      0.8701                 0.7426                 1.2251
 IR Inten    --      0.0348                 0.6063                 3.6907

                     49                     50                     51
                      A                      A                      A
 Frequencies --   1039.4081              1048.2517              1054.9194
 Red. masses --      2.6750                 3.4644                 2.0223
 Frc consts  --      1.7027                 2.2429                 1.3260
 IR Inten    --     62.8293                 5.7278                 9.1123

                     52                     53                     54
                      A                      A                      A
 Frequencies --   1099.6452              1117.0833              1136.6099
 Red. masses --      1.7212                 1.7392                 2.2858
 Frc consts  --      1.2263                 1.2787                 1.7399
 IR Inten    --     17.7850                16.7863                 0.2411

                     55                     56                     57
                      A                      A                      A
 Frequencies --   1142.4537              1158.7002              1171.1796
 Red. masses --      2.2889                 1.9057                 1.7772
 Frc consts  --      1.7602                 1.5075                 1.4362
 IR Inten    --     12.2074                35.3349               126.8542

                     58                     59                     60
                      A                      A                      A
 Frequencies --   1181.5883              1187.2092              1209.9567
 Red. masses --      1.6010                 2.0842                 1.4371
 Frc consts  --      1.3169                 1.7307                 1.2396
 IR Inten    --     51.7599                29.6197                 4.8038

                     61                     62                     63
                      A                      A                      A
 Frequencies --   1222.8880              1251.6735              1260.3815
 Red. masses --      3.8730                 1.8038                 1.3026
 Frc consts  --      3.4125                 1.6650                 1.2192
 IR Inten    --     23.5510                10.7685                 5.6702

                     64                     65                     66
                      A                      A                      A
 Frequencies --   1263.2525              1287.1034              1293.7847
 Red. masses --      2.0625                 1.6751                 1.3014
 Frc consts  --      1.9392                 1.6350                 1.2835
 IR Inten    --      1.4165               128.0296                30.6451

                     67                     68                     69
                      A                      A                      A
 Frequencies --   1319.8135              1354.2482              1358.1382
 Red. masses --      1.2441                 1.7405                 2.2583
 Frc consts  --      1.2768                 1.8807                 2.4543
 IR Inten    --      3.8102                12.4014                12.7813

                     70                     71                     72
                      A                      A                      A
 Frequencies --   1359.8720              1373.1824              1384.6717
 Red. masses --      1.3358                 1.3042                 1.5215
 Frc consts  --      1.4554                 1.4489                 1.7187
 IR Inten    --      2.2834                 0.7528                13.0325

                     73                     74                     75
                      A                      A                      A
 Frequencies --   1400.5353              1406.1544              1419.0609
 Red. masses --      1.5297                 1.5331                 1.4447
 Frc consts  --      1.7679                 1.7860                 1.7141
 IR Inten    --     10.2939                 6.0885                14.8875

                     76                     77                     78
                      A                      A                      A
 Frequencies --   1420.2000              1425.8570              1435.1436
 Red. masses --      1.2343                 2.0942                 1.5357
 Frc consts  --      1.4668                 2.5086                 1.8636
 IR Inten    --      4.0068                 4.1476                 6.0933

                     79                     80                     81
                      A                      A                      A
 Frequencies --   1442.4184              1447.1863              1486.4827
 Red. masses --      1.6419                 1.6789                 1.6623
 Frc consts  --      2.0127                 2.0717                 2.1641
 IR Inten    --     51.6531                16.4861               120.7079

                     82                     83                     84
                      A                      A                      A
 Frequencies --   1489.2009              1510.4565              1514.9923
 Red. masses --      1.1290                 1.3219                 1.0417
 Frc consts  --      1.4752                 1.7769                 1.4087
 IR Inten    --     62.5934               104.2647                 0.6617

                     85                     86                     87
                      A                      A                      A
 Frequencies --   1523.1396              1524.1562              1525.7394
 Red. masses --      1.1323                 1.0496                 1.1611
 Frc consts  --      1.5477                 1.4365                 1.5924
 IR Inten    --      2.6765                 1.0039                36.1223

                     88                     89                     90
                      A                      A                      A
 Frequencies --   1530.3950              1537.6017              1544.3190
 Red. masses --      1.0533                 1.1594                 1.0742
 Frc consts  --      1.4535                 1.6150                 1.5094
 IR Inten    --     10.4504                33.3426                 8.8997

                     91                     92                     93
                      A                      A                      A
 Frequencies --   1598.0773              1650.2757              1842.3819
 Red. masses --      4.7176                 6.2775                 9.4861
 Frc consts  --      7.0985                10.0728                18.9714
 IR Inten    --     79.4559               106.9866               234.2947

                     94                     95                     96
                      A                      A                      A
 Frequencies --   3030.8339              3032.1570              3034.2344
 Red. masses --      1.0835                 1.0722                 1.0720
 Frc consts  --      5.8644                 5.8079                 5.8149
 IR Inten    --     27.0873                10.0455                52.1966

                     97                     98                     99
                      A                      A                      A
 Frequencies --   3048.0993              3050.1687              3050.5449
 Red. masses --      1.0349                 1.0700                 1.0710
 Frc consts  --      5.6653                 5.8654                 5.8719
 IR Inten    --     33.2306                52.0933                 8.7393

                    100                    101                    102
                      A                      A                      A
 Frequencies --   3052.1556              3057.0960              3066.7613
 Red. masses --      1.0364                 1.0620                 1.0829
 Frc consts  --      5.6883                 5.8479                 6.0006
 IR Inten    --     30.5188                25.4636                52.6470

                    103                    104                    105
                      A                      A                      A
 Frequencies --   3097.3444              3107.7617              3113.1394
 Red. masses --      1.1001                 1.0952                 1.1032
 Frc consts  --      6.2180                 6.2321                 6.2992
 IR Inten    --     50.7293                25.2215                20.3309

                    106                    107                    108
                      A                      A                      A
 Frequencies --   3116.0562              3116.1317              3129.8411
 Red. masses --      1.0954                 1.0980                 1.0943
 Frc consts  --      6.2665                 6.2821                 6.3157
 IR Inten    --     56.3630                17.7489                23.9967

                    109                    110                    111
                      A                      A                      A
 Frequencies --   3133.1761              3138.1987              3173.3847
 Red. masses --      1.1023                 1.1016                 1.0922
 Frc consts  --      6.3756                 6.3919                 6.4806
 IR Inten    --      6.2809                34.7621                 4.2660

                    112                    113                    114
                      A                      A                      A
 Frequencies --   3191.6375              3221.4640              3683.8037
 Red. masses --      1.0895                 1.0935                 1.0639
 Frc consts  --      6.5387                 6.6864                 8.5067
 IR Inten    --     14.7835                14.3122                47.1133

 - Thermochemistry -
 -------------------
 Temperature   298.150 Kelvin.  Pressure   1.00000 Atm.
 Atom     1 has atomic number  6 and mass  12.00000

 Molecular mass:   263.16338 amu.
 Principal axes and moments of inertia in atomic units:
                           1         2         3
     Eigenvalues --  3056.304708238.464469761.29832
           X            0.99958   0.02884  -0.00145
           Y           -0.02884   0.99958   0.00209
           Z            0.00150  -0.00204   1.00000
 This molecule is an asymmetric top.
 Rotational symmetry number  1.
 Warning -- assumption of classical behavior for rotation
           may cause significant error
 Rotational temperatures (Kelvin)      0.02834     0.01051     0.00887
 Rotational constants (GHZ):           0.59050     0.21906     0.18489
 Zero-point vibrational energy     907084.6 (Joules/Mol)
                                  216.79841 (Kcal/Mol)
 Warning -- explicit consideration of  28 degrees of freedom as
           vibrations may cause significant error
 Vibrational temperatures:     28.80    42.25    49.78    71.82   103.56
          (Kelvin)            111.82   137.41   210.98   244.25   283.03
                              333.67   339.32   362.22   388.72   419.53
                              471.41   506.02   533.61   566.55   600.97
                              650.85   678.89   688.12   714.33   757.50
                              772.16   809.52   842.58   899.80   935.03
                              971.93   993.21  1017.60  1134.90  1150.95
                             1182.25  1216.88  1245.58  1264.39  1285.49
                             1305.95  1317.89  1357.47  1363.19  1392.86
                             1405.79  1410.11  1483.26  1495.48  1508.20
                             1517.79  1582.14  1607.23  1635.33  1643.74
                             1667.11  1685.07  1700.04  1708.13  1740.86
                             1759.46  1800.88  1813.41  1817.54  1851.85
                             1861.47  1898.92  1948.46  1954.06  1956.55
                             1975.70  1992.23  2015.06  2023.14  2041.71
                             2043.35  2051.49  2064.85  2075.32  2082.18
                             2138.72  2142.63  2173.21  2179.74  2191.46
                             2192.92  2195.20  2201.90  2212.27  2221.93
                             2299.28  2374.38  2650.78  4360.69  4362.60
                             4365.59  4385.54  4388.51  4389.05  4391.37
                             4398.48  4412.39  4456.39  4471.38  4479.11
                             4483.31  4483.42  4503.14  4507.94  4515.17
                             4565.79  4592.05  4634.97  5300.17

 Zero-point correction=                           0.345490 (Hartree/Particle)
 Thermal correction to Energy=                    0.363717
 Thermal correction to Enthalpy=                  0.364661
 Thermal correction to Gibbs Free Energy=         0.297050
 Sum of electronic and zero-point Energies=           -860.566836
 Sum of electronic and thermal Energies=              -860.548609
 Sum of electronic and thermal Enthalpies=            -860.547664
 Sum of electronic and thermal Free Energies=         -860.615276

                     E (Thermal)             CV                S
                      KCal/Mol        Cal/Mol-Kelvin    Cal/Mol-Kelvin
 Total                  228.236             69.972            142.300
 Electronic               0.000              0.000              0.000
 Translational            0.889              2.981             42.602
 Rotational               0.889              2.981             33.863
 Vibrational            226.459             64.011             65.835
 Vibration     1          0.593              1.986              6.633
 Vibration     2          0.593              1.984              5.872
 Vibration     3          0.594              1.983              5.546
 Vibration     4          0.595              1.978              4.821
 Vibration     5          0.598              1.967              4.098
 Vibration     6          0.599              1.964              3.948
 Vibration     7          0.603              1.952              3.544
 Vibration     8          0.617              1.906              2.715
 Vibration     9          0.625              1.880              2.438
 Vibration    10          0.636              1.844              2.164
 Vibration    11          0.653              1.792              1.864
 Vibration    12          0.655              1.786              1.834
 Vibration    13          0.664              1.760              1.718
 Vibration    14          0.674              1.728              1.595
 Vibration    15          0.687              1.689              1.465
 Vibration    16          0.711              1.620              1.272
 Vibration    17          0.728              1.572              1.159
 Vibration    18          0.743              1.532              1.076
 Vibration    19          0.761              1.483              0.986
 Vibration    20          0.781              1.432              0.900
 Vibration    21          0.811              1.356              0.789
 Vibration    22          0.829              1.312              0.732
 Vibration    23          0.835              1.298              0.715
 Vibration    24          0.852              1.258              0.667
 Vibration    25          0.881              1.191              0.595
 Vibration    26          0.892              1.169              0.572
 Vibration    27          0.918              1.112              0.519
 Vibration    28          0.943              1.062              0.475

 Optimization completed.
    -- Stationary point found.
 Normal termination of Gaussian 16 at Sun Dec 13 16:53:16 2020.

 ----------------------------------------------------------------------
 # B3LYP/6-311++G(d,p) empiricaldispersion=gd3bj scf=xqc pop=npa geom=c
 heck
 ----------------------------------------------------------------------

 ---------------------------------------
 CID_116972318_JID_9384_Energie_neutraal
 ---------------------------------------
 Structure from the checkpoint file:  "JID_9384.chk"
 Charge =  0 Multiplicity = 1

 SCF Done:  E(RB3LYP) =  -861.152916350     A.U. after   16 cycles
 Normal termination of Gaussian 16 at Sun Dec 13 17:03:48 2020.

 ----------------------------------------------------------------------
 # B3LYP/6-311++G(d,p) empiricaldispersion=gd3bj scf=xqc pop=npa geom=c
 heck
 ----------------------------------------------------------------------

 -------------------------------------
 CID_116972318_JID_9384_Energie_kation
 -------------------------------------
 Structure from the checkpoint file:  "JID_9384.chk"
 Charge =  1 Multiplicity = 2

 SCF Done:  E(UB3LYP) =  -860.877393994     A.U. after   25 cycles
 Normal termination of Gaussian 16 at Sun Dec 13 17:25:30 2020.
 Gaussian 16:  ES64L-G16RevA.03 25-Dec-2016

 ----------------------------------------------------------------------
 # B3LYP/6-311++G(d,p) empiricaldispersion=gd3bj scf=xqc pop=npa geom=c
 heck
 ----------------------------------------------------------------------

 ------------------------------------
 CID_116972318_JID_9384_Energie_anion
 ------------------------------------
 Structure from the checkpoint file:  "JID_9384.chk"
 Charge = -1 Multiplicity = 2

                         Standard orientation:
 ---------------------------------------------------------------------
 Center     Atomic      Atomic             Coordinates (Angstroms)
 Number     Number       Type             X           Y           Z
 ---------------------------------------------------------------------
      1          6           0        5.251163   -0.158945   -0.379420
      2          6           0        4.176767    0.825237    0.109579
      3          6           0        4.022974    2.005419   -0.863703
      4          6           0        2.848489    0.119921    0.305643
      5          7           0        2.314304   -0.453181   -0.772970
      6          7           0        1.136419   -1.069221   -0.712038
      7          6           0        0.464384   -1.155513    0.452173
      8          6           0        0.989318   -0.588674    1.638571
      9          6           0        2.196738    0.062795    1.550594
     10          7           0       -0.726810   -1.861979    0.435110
     11          6           0       -1.175601   -2.462555   -0.827123
     12          6           0       -2.044196   -1.491858   -1.634707
     13          6           0       -3.217477   -0.980840   -0.784922
     14          6           0       -2.751176   -0.411858    0.571308
     15          6           0       -1.850646   -1.446410    1.275020
     16          6           0       -2.035610    0.937975    0.424503
     17          6           0       -2.970250    2.059646    0.031240
     18          8           0       -4.181187    2.012839    0.014060
     19          8           0       -2.283181    3.182901   -0.292827
     20          1           0        4.946721   -0.598499   -1.334074
     21          1           0        5.397491   -0.974786    0.337262
     22          1           0        6.210519    0.352439   -0.518349
     23          1           0        4.485867    1.220102    1.087166
     24          1           0        3.677354    1.642536   -1.836637
     25          1           0        3.291017    2.732354   -0.494035
     26          1           0        4.979840    2.521637   -1.002030
     27          1           0        0.476159   -0.683412    2.588553
     28          1           0        2.651742    0.514496    2.427877
     29          1           0       -1.760676   -3.354201   -0.562308
     30          1           0       -0.298933   -2.773849   -1.392258
     31          1           0       -2.421649   -1.994071   -2.533754
     32          1           0       -1.412576   -0.663990   -1.976441
     33          1           0       -3.798016   -0.225953   -1.324159
     34          1           0       -3.902814   -1.816885   -0.586529
     35          1           0       -3.634588   -0.248629    1.200234
     36          1           0       -1.487776   -1.059253    2.229255
     37          1           0       -2.442813   -2.342489    1.500127
     38          1           0       -1.564321    1.235788    1.371266
     39          1           0       -1.219091    0.899423   -0.303205
     40          1           0       -2.955180    3.855945   -0.511082
 ---------------------------------------------------------------------

 SCF Done:  E(UB3LYP) =  -861.150479662     A.U. after   33 cycles
 SCF Done:  E(UB3LYP) =  -861.150479666     a.u. after    2 cycles

 The electronic state is 2-A.
 Alpha  occ. eigenvalues --  -19.06788 -19.01452 -14.21207 -14.17936 -14.17759
 Alpha  occ. eigenvalues --  -10.20334 -10.10886 -10.09907 -10.08717 -10.07764
 Alpha  occ. eigenvalues --  -10.07739 -10.06830 -10.06686 -10.06511 -10.06267
 Alpha  occ. eigenvalues --  -10.05307 -10.05193 -10.04401 -10.03874  -1.00889
 Alpha  occ. eigenvalues --   -0.91996  -0.87329  -0.83045  -0.72196  -0.70522
 Alpha  occ. eigenvalues --   -0.67826  -0.66016  -0.65027  -0.62362  -0.57820
 Alpha  occ. eigenvalues --   -0.56091  -0.54135  -0.51969  -0.51157  -0.48443
 Alpha  occ. eigenvalues --   -0.46167  -0.44066  -0.41461  -0.39881  -0.38875
 Alpha  occ. eigenvalues --   -0.38489  -0.37850  -0.36003  -0.34851  -0.34325
 Alpha  occ. eigenvalues --   -0.33753  -0.33083  -0.32035  -0.31375  -0.30827
 Alpha  occ. eigenvalues --   -0.30519  -0.29636  -0.28998  -0.28315  -0.27618
 Alpha  occ. eigenvalues --   -0.27283  -0.26423  -0.25172  -0.24828  -0.23791
 Alpha  occ. eigenvalues --   -0.23624  -0.22818  -0.22648  -0.22439  -0.21650
 Alpha  occ. eigenvalues --   -0.18417  -0.18113  -0.17183  -0.16309  -0.09076
 Alpha  occ. eigenvalues --   -0.08554   0.04553
 Alpha virt. eigenvalues --    0.06236   0.06986   0.07309   0.08123   0.09100
 Alpha virt. eigenvalues --    0.09330   0.09702   0.09825   0.10036   0.11157
 Alpha virt. eigenvalues --    0.11348   0.11635   0.11942   0.12550   0.12679

  Beta  occ. eigenvalues --  -19.06746 -19.01425 -14.21219 -14.17690 -14.17312
  Beta  occ. eigenvalues --  -10.20298 -10.10950 -10.09896 -10.08713 -10.07758
  Beta  occ. eigenvalues --  -10.07722 -10.06830 -10.06681 -10.06575 -10.06266
  Beta  occ. eigenvalues --  -10.05304 -10.05192 -10.04220 -10.03609  -1.00809
  Beta  occ. eigenvalues --   -0.91931  -0.86921  -0.82845  -0.72113  -0.70422
  Beta  occ. eigenvalues --   -0.67622  -0.65710  -0.64811  -0.62271  -0.57813
  Beta  occ. eigenvalues --   -0.56004  -0.53927  -0.51652  -0.51111  -0.48270
  Beta  occ. eigenvalues --   -0.46023  -0.43975  -0.41399  -0.39815  -0.38732
  Beta  occ. eigenvalues --   -0.38449  -0.37749  -0.35950  -0.34796  -0.34275
  Beta  occ. eigenvalues --   -0.33700  -0.33012  -0.31923  -0.31156  -0.30756
  Beta  occ. eigenvalues --   -0.30447  -0.29540  -0.28813  -0.28141  -0.27420
  Beta  occ. eigenvalues --   -0.27125  -0.26267  -0.25138  -0.24683  -0.23707
  Beta  occ. eigenvalues --   -0.23508  -0.22778  -0.22535  -0.22407  -0.21626
  Beta  occ. eigenvalues --   -0.18346  -0.17536  -0.16651  -0.14732  -0.08467
  Beta  occ. eigenvalues --   -0.08032
  Beta virt. eigenvalues --    0.06718   0.07231   0.07693   0.08214   0.09059
  Beta virt. eigenvalues --    0.09314   0.09505   0.09806   0.09858   0.10525
  Beta virt. eigenvalues --    0.11146   0.11341   0.11579   0.11923   0.12502

 Mulliken charges and spin densities:
               1          2
     1  C   -0.565568  -0.112341
     2  C    0.088722   0.040578
     3  C   -0.665283  -0.022704
     4  C   -0.083365  -0.041877
     5  N   -0.032057   0.264904
     6  N   -0.105096   0.042092
     7  C   -0.415871  -0.032544
     8  C   -0.092999   0.173776
     9  C   -0.027540   0.048521
    10  N    0.335687  -0.021541
    11  C   -0.253763  -0.038464
    12  C   -0.298947   0.068894
    13  C   -0.366676  -0.157994
    14  C    0.409167   0.172684
    15  C   -0.366171  -0.358357
    16  C    0.083739  -0.606432
    17  C    0.041315  -0.088885
    18  O   -0.281307   0.005750
    19  O   -0.147048   0.018079
    20  H    0.169382  -0.003841
    21  H    0.083499   0.038662
    22  H    0.097144   0.020958
    23  H    0.127090   0.022263
    24  H    0.153947   0.009195
    25  H    0.127043  -0.000703
    26  H    0.116046   0.000100
    27  H    0.036067   0.067790
    28  H    0.057568   0.064475
    29  H    0.107083   0.023778
    30  H    0.200126   0.009312
    31  H    0.138046   0.005007
    32  H    0.154865   0.018297
    33  H    0.133504   0.025988
    34  H    0.085126   0.041440
    35  H    0.048695   0.197905
    36  H    0.102873   0.029953
    37  H   -0.024351   0.177223
    38  H   -0.140314   0.375926
    39  H    0.260884  -0.056159
    40  H   -0.291260   0.578288
 Sum of Mulliken charges =  -1.00000   1.00000

 Dipole moment (field-independent basis, Debye):
    X=              0.7609    Y=             -3.1112    Z=              0.7137  Tot=              3.2814
 Quadrupole moment (field-independent basis, Debye-Ang):
   XX=           -179.0277   YY=           -153.0745   ZZ=           -134.0990
   XY=             19.5038   XZ=              4.9751   YZ=              0.6554

 Summary of Natural Population Analysis:

                                       Natural Population
                Natural  -----------------------------------------------
    Atom  No    Charge         Core      Valence    Rydberg      Total
 -----------------------------------------------------------------------
      C    1   -0.28164      0.99966     2.27674    0.00525     3.28164
      C    2   -0.11920      0.99959     2.11031    0.00930     3.11920
      C    3   -0.28119      0.99966     2.27690    0.00463     3.28119
      C    4    0.06176      0.99953     1.92325    0.01547     2.93824
      N    5   -0.07471      0.99966     2.56133    0.01372     3.57471
      N    6   -0.13953      0.99968     2.62413    0.01572     3.63953
      C    7    0.17715      0.99951     1.80775    0.01559     2.82285
      C    8   -0.08179      0.99952     2.07303    0.00923     3.08179
      C    9   -0.06988      0.99951     2.06178    0.00859     3.06988
      N   10   -0.26504      0.99966     2.75332    0.01206     3.76504
      C   11   -0.08463      0.99962     2.07482    0.01019     3.08463
      C   12   -0.20216      0.99962     2.19476    0.00777     3.20216
      C   13   -0.18976      0.99961     2.18254    0.00761     3.18976
      C   14   -0.11843      0.99959     2.10749    0.01135     3.11843
      C   15   -0.07763      0.99959     2.06585    0.01219     3.07763
      C   16   -0.24948      0.99955     2.23958    0.01035     3.24948
      C   17    0.41506      0.99972     1.56007    0.02515     2.58494
      O   18   -0.31297      0.99987     3.30711    0.00599     4.31297
      O   19   -0.34374      0.99988     3.33768    0.00618     4.34374
      H   20    0.10591      0.00000     0.39276    0.00133     0.39409
      H   21    0.09739      0.00000     0.40153    0.00108     0.40261
      H   22    0.08813      0.00000     0.41084    0.00103     0.41187
      H   23    0.08859      0.00000     0.40936    0.00205     0.41141
      H   24    0.10567      0.00000     0.39319    0.00114     0.39433
      H   25    0.09916      0.00000     0.39997    0.00087     0.40084
      H   26    0.08790      0.00000     0.41120    0.00091     0.41210
      H   27    0.09342      0.00000     0.40507    0.00151     0.40658
      H   28    0.09300      0.00000     0.40577    0.00123     0.40700
      H   29    0.08357      0.00000     0.41526    0.00117     0.41643
      H   30    0.11651      0.00000     0.38216    0.00133     0.38349
      H   31    0.09424      0.00000     0.40464    0.00112     0.40576
      H   32    0.10449      0.00000     0.39401    0.00150     0.39551
      H   33    0.10529      0.00000     0.39357    0.00113     0.39471
      H   34    0.09231      0.00000     0.40644    0.00124     0.40769
      H   35    0.10465      0.00000     0.39375    0.00161     0.39535
      H   36    0.10182      0.00000     0.39720    0.00098     0.39818
      H   37    0.09203      0.00000     0.40701    0.00097     0.40797
      H   38    0.12188      0.00000     0.37688    0.00124     0.37812
      H   39    0.12153      0.00000     0.37686    0.00161     0.37847
      H   40    0.24034      0.00000     0.24974    0.00993     0.25966
 =======================================================================
   * Total *    0.00000     18.99304    51.76566    0.24130    71.00000

 Normal termination of Gaussian 16 at Sun Dec 13 18:15:23 2020.
