 Gaussian 16, Revision A.03,

 -----------------------------------------------------------
 # opt freq B3LYP/6-31G(d) empiricaldispersion=gd3bj scf=xqc
 -----------------------------------------------------------

 -------------------------------
 CID_115287789_JID_6582_neutraal
 -------------------------------
 Symbolic Z-matrix:
 Charge =  0 Multiplicity = 1

 SCF Done:  E(RB3LYP) =  -1053.44934613     A.U. after   14 cycles
 SCF Done:  E(RB3LYP) =  -1053.45262383     A.U. after   12 cycles
 SCF Done:  E(RB3LYP) =  -1053.45130998     A.U. after   13 cycles
 SCF Done:  E(RB3LYP) =  -1053.45390755     A.U. after   12 cycles
 SCF Done:  E(RB3LYP) =  -1053.45491756     A.U. after   12 cycles
 SCF Done:  E(RB3LYP) =  -1053.45583048     A.U. after   12 cycles
 SCF Done:  E(RB3LYP) =  -1053.45602194     A.U. after   11 cycles
 SCF Done:  E(RB3LYP) =  -1053.45615309     A.U. after   11 cycles
 SCF Done:  E(RB3LYP) =  -1053.45624792     A.U. after   11 cycles
 SCF Done:  E(RB3LYP) =  -1053.45632757     A.U. after   11 cycles
 SCF Done:  E(RB3LYP) =  -1053.45641840     A.U. after    7 cycles
 SCF Done:  E(RB3LYP) =  -1053.45641829     A.U. after    7 cycles
 SCF Done:  E(RB3LYP) =  -1053.45641844     A.U. after    7 cycles
 SCF Done:  E(RB3LYP) =  -1053.45641851     A.U. after    6 cycles
 SCF Done:  E(RB3LYP) =  -1053.45641852     A.U. after    6 cycles
 Optimization completed.
    -- Stationary point found.
 Normal termination of Gaussian 16 at Thu Dec 10 23:52:53 2020.

 --------------------------------------------------------------------
 #N Geom=AllCheck Guess=TCheck SCRF=Check GenChk RB3LYP/6-31G(d) Freq
 --------------------------------------------------------------------

 Structure from the checkpoint file:  "JID_6582.chk"
 -------------------------------
 CID_115287789_JID_6582_neutraal
 -------------------------------
 Charge =  0 Multiplicity = 1

 SCF Done:  E(RB3LYP) =  -1053.45641852     A.U. after    1 cycles

  Exact polarizability: 159.227 -17.176 149.264   1.500   3.245 149.409
 Approx polarizability: 208.611 -34.259 227.730  11.095   7.628 254.491

                      1                      2                      3
                      A                      A                      A
 Frequencies --     23.1752                41.2195                63.3904
 Red. masses --      4.5897                 4.5218                 5.3555
 Frc consts  --      0.0015                 0.0045                 0.0127
 IR Inten    --      0.1218                 0.8757                 0.2394

                      4                      5                      6
                      A                      A                      A
 Frequencies --     70.9080                86.0996                89.6695
 Red. masses --      3.8896                 2.6943                 2.4932
 Frc consts  --      0.0115                 0.0118                 0.0118
 IR Inten    --      0.0639                 2.9790                 0.6239

                      7                      8                      9
                      A                      A                      A
 Frequencies --    114.7329               129.9970               145.5385
 Red. masses --      2.8531                 2.2547                 2.3050
 Frc consts  --      0.0221                 0.0224                 0.0288
 IR Inten    --      0.0576                 0.1517                 3.9653

                     10                     11                     12
                      A                      A                      A
 Frequencies --    174.4638               187.1381               197.3000
 Red. masses --      1.9426                 4.0216                 2.2351
 Frc consts  --      0.0348                 0.0830                 0.0513
 IR Inten    --      2.2922                 2.2275                 2.7963

                     13                     14                     15
                      A                      A                      A
 Frequencies --    218.6402               229.0171               248.0626
 Red. masses --      2.2175                 1.2207                 1.4255
 Frc consts  --      0.0625                 0.0377                 0.0517
 IR Inten    --      1.5965                 0.7655                 0.3050

                     16                     17                     18
                      A                      A                      A
 Frequencies --    267.7509               303.4962               317.9850
 Red. masses --      1.2046                 2.3889                 2.5498
 Frc consts  --      0.0509                 0.1296                 0.1519
 IR Inten    --     36.6806                 8.9235                 3.3169

                     19                     20                     21
                      A                      A                      A
 Frequencies --    358.1317               380.8261               404.0786
 Red. masses --      2.8088                 3.2657                 2.7443
 Frc consts  --      0.2123                 0.2790                 0.2640
 IR Inten    --      0.7924                 0.8335                 2.2184

                     22                     23                     24
                      A                      A                      A
 Frequencies --    417.3392               432.6044               443.2843
 Red. masses --      3.3921                 2.5766                 2.4288
 Frc consts  --      0.3481                 0.2841                 0.2812
 IR Inten    --      2.9395                 5.4825                14.7752

                     25                     26                     27
                      A                      A                      A
 Frequencies --    522.6023               531.1534               570.4707
 Red. masses --      3.5882                 3.5902                 4.6349
 Frc consts  --      0.5774                 0.5968                 0.8887
 IR Inten    --      6.6413                22.9156                 2.3747

                     28                     29                     30
                      A                      A                      A
 Frequencies --    602.2564               635.1155               702.4153
 Red. masses --      3.1595                 2.9879                 1.2546
 Frc consts  --      0.6752                 0.7101                 0.3647
 IR Inten    --      5.6135                 3.3833                58.6822

                     31                     32                     33
                      A                      A                      A
 Frequencies --    717.3724               738.0519               748.7354
 Red. masses --      3.0582                 2.9617                 6.6951
 Frc consts  --      0.9273                 0.9505                 2.2114
 IR Inten    --     19.6413                 1.0243                 0.7164

                     34                     35                     36
                      A                      A                      A
 Frequencies --    811.0991               839.5402               861.1980
 Red. masses --      1.1659                 1.3235                 4.2175
 Frc consts  --      0.4519                 0.5496                 1.8429
 IR Inten    --      3.5116                 9.7972                13.2487

                     37                     38                     39
                      A                      A                      A
 Frequencies --    887.5343               903.1056               909.9547
 Red. masses --      1.8943                 1.7023                 1.3485
 Frc consts  --      0.8791                 0.8180                 0.6579
 IR Inten    --     11.4167               132.0769                17.2923

                     40                     41                     42
                      A                      A                      A
 Frequencies --    928.7199               946.2754               964.5764
 Red. masses --      1.9660                 1.5695                 3.0444
 Frc consts  --      0.9991                 0.8280                 1.6689
 IR Inten    --      4.6733                 3.9730                42.2554

                     43                     44                     45
                      A                      A                      A
 Frequencies --    971.9368              1014.7921              1062.5754
 Red. masses --      3.0211                 1.8348                 1.7543
 Frc consts  --      1.6815                 1.1132                 1.1670
 IR Inten    --     15.0201                28.5014                 5.7690

                     46                     47                     48
                      A                      A                      A
 Frequencies --   1067.8130              1096.7621              1105.6751
 Red. masses --      2.3938                 2.5322                 1.4579
 Frc consts  --      1.6082                 1.7946                 1.0501
 IR Inten    --     19.3770                30.1708                 0.4759

                     49                     50                     51
                      A                      A                      A
 Frequencies --   1115.4853              1123.6979              1128.0962
 Red. masses --      2.3098                 2.1312                 1.8674
 Frc consts  --      1.6934                 1.5855                 1.4002
 IR Inten    --     31.2843                26.7468                 2.3507

                     52                     53                     54
                      A                      A                      A
 Frequencies --   1140.0899              1144.6543              1174.5256
 Red. masses --      1.7117                 2.2705                 2.0832
 Frc consts  --      1.3109                 1.7527                 1.6932
 IR Inten    --     11.4827                71.5066                30.7821

                     55                     56                     57
                      A                      A                      A
 Frequencies --   1186.0362              1197.9150              1226.4950
 Red. masses --      1.3126                 2.1195                 1.6295
 Frc consts  --      1.0879                 1.7920                 1.4443
 IR Inten    --      4.0726                27.5134                45.8077

                     58                     59                     60
                      A                      A                      A
 Frequencies --   1244.5253              1266.3972              1277.7038
 Red. masses --      1.5842                 2.1856                 1.6856
 Frc consts  --      1.4457                 2.0652                 1.6213
 IR Inten    --     22.2859                19.3016                26.1351

                     61                     62                     63
                      A                      A                      A
 Frequencies --   1321.7471              1328.9064              1355.0973
 Red. masses --      1.2853                 1.2824                 1.4977
 Frc consts  --      1.3229                 1.3343                 1.6203
 IR Inten    --      5.5695                 2.4512                18.5990

                     64                     65                     66
                      A                      A                      A
 Frequencies --   1362.2115              1381.8321              1398.3085
 Red. masses --      1.2414                 1.4780                 1.5465
 Frc consts  --      1.3572                 1.6628                 1.7816
 IR Inten    --      3.5605                25.6811                 8.8209

                     67                     68                     69
                      A                      A                      A
 Frequencies --   1408.3289              1415.6989              1422.2363
 Red. masses --      1.4327                 1.2673                 1.3068
 Frc consts  --      1.6742                 1.4965                 1.5575
 IR Inten    --      8.7899                 3.6137                 7.3961

                     70                     71                     72
                      A                      A                      A
 Frequencies --   1434.0841              1439.5506              1441.5147
 Red. masses --      1.3462                 1.2398                 1.2439
 Frc consts  --      1.6312                 1.5138                 1.5229
 IR Inten    --      8.4369                 6.1485                 8.5261

                     73                     74                     75
                      A                      A                      A
 Frequencies --   1459.3700              1492.1196              1494.0790
 Red. masses --      1.3473                 1.1430                 6.0170
 Frc consts  --      1.6906                 1.4993                 7.9136
 IR Inten    --     24.9461                 1.0181                 5.5598

                     76                     77                     78
                      A                      A                      A
 Frequencies --   1509.3102              1513.7250              1517.8712
 Red. masses --      1.0542                 1.0745                 1.0711
 Frc consts  --      1.4149                 1.4506                 1.4540
 IR Inten    --      1.0713                 0.7433                 3.2633

                     79                     80                     81
                      A                      A                      A
 Frequencies --   1520.7536              1526.9260              1530.4584
 Red. masses --      1.0759                 1.0731                 1.0515
 Frc consts  --      1.4660                 1.4741                 1.4511
 IR Inten    --      5.4486                 0.5988                 3.5915

                     82                     83                     84
                      A                      A                      A
 Frequencies --   1534.9851              1548.9797              1550.4420
 Red. masses --      1.0472                 1.0700                 1.0756
 Frc consts  --      1.4538                 1.5125                 1.5234
 IR Inten    --      3.2426                 3.3375                 5.5761

                     85                     86                     87
                      A                      A                      A
 Frequencies --   1597.7702              1699.6534              2972.5245
 Red. masses --      4.8771                 1.0884                 1.0725
 Frc consts  --      7.3357                 1.8525                 5.5832
 IR Inten    --      0.6603                23.0975                56.0283

                     88                     89                     90
                      A                      A                      A
 Frequencies --   2994.0438              3020.7038              3035.0648
 Red. masses --      1.0486                 1.0563                 1.0646
 Frc consts  --      5.5382                 5.6789                 5.7778
 IR Inten    --     67.2595                50.1354                37.7358

                     91                     92                     93
                      A                      A                      A
 Frequencies --   3053.0436              3056.1315              3061.7570
 Red. masses --      1.0404                 1.0838                 1.0778
 Frc consts  --      5.7138                 5.9642                 5.9529
 IR Inten    --     23.5858                 6.5251                30.4403

                     94                     95                     96
                      A                      A                      A
 Frequencies --   3065.9020              3070.6733              3081.0878
 Red. masses --      1.0601                 1.0885                 1.0843
 Frc consts  --      5.8712                 6.0473                 6.0644
 IR Inten    --     35.6046                25.0598                38.4153

                     97                     98                     99
                      A                      A                      A
 Frequencies --   3085.6148              3097.1851              3119.0845
 Red. masses --      1.0931                 1.0949                 1.1003
 Frc consts  --      6.1317                 6.1883                 6.3068
 IR Inten    --      2.0513                32.4373                71.1453

                    100                    101                    102
                      A                      A                      A
 Frequencies --   3123.1196              3128.1234              3135.7458
 Red. masses --      1.1005                 1.1037                 1.1016
 Frc consts  --      6.3243                 6.3630                 6.3820
 IR Inten    --     29.6227                40.4867                25.4679

                    103                    104                    105
                      A                      A                      A
 Frequencies --   3158.3790              3204.9689              3224.9768
 Red. masses --      1.0993                 1.0896                 1.0939
 Frc consts  --      6.4608                 6.5945                 6.7031
 IR Inten    --     13.5269                 8.0806                 7.3754

                    106                    107                    108
                      A                      A                      A
 Frequencies --   3272.5329              3454.6190              3538.4236
 Red. masses --      1.0968                 1.0500                 1.0917
 Frc consts  --      6.9208                 7.3832                 8.0531
 IR Inten    --      1.1784                 1.1347                 0.2209

 - Thermochemistry -
 -------------------
 Temperature   298.150 Kelvin.  Pressure   1.00000 Atm.
 Atom     1 has atomic number  6 and mass  12.00000

 Molecular mass:   242.14529 amu.
 Principal axes and moments of inertia in atomic units:
                           1         2         3
     Eigenvalues --  2592.690695927.685746149.91360
           X            0.99979   0.00029  -0.02034
           Y           -0.00120   0.99900  -0.04474
           Z            0.02031   0.04476   0.99879
 This molecule is an asymmetric top.
 Rotational symmetry number  1.
 Warning -- assumption of classical behavior for rotation
           may cause significant error
 Rotational temperatures (Kelvin)      0.03341     0.01461     0.01408
 Rotational constants (GHZ):           0.69609     0.30446     0.29346
 Zero-point vibrational energy     878476.9 (Joules/Mol)
                                  209.96102 (Kcal/Mol)
 Warning -- explicit consideration of  28 degrees of freedom as
           vibrations may cause significant error
 Vibrational temperatures:     33.34    59.31    91.20   102.02   123.88
          (Kelvin)            129.01   165.08   187.04   209.40   251.01
                              269.25   283.87   314.57   329.50   356.91
                              385.23   436.66   457.51   515.27   547.92
                              581.38   600.46   622.42   637.79   751.91
                              764.21   820.78   866.51   913.79  1010.62
                             1032.14  1061.89  1077.26  1166.99  1207.91
                             1239.07  1276.96  1299.37  1309.22  1336.22
                             1361.48  1387.81  1398.40  1460.06  1528.81
                             1536.34  1578.00  1590.82  1604.93  1616.75
                             1623.08  1640.34  1646.90  1689.88  1706.44
                             1723.53  1764.65  1790.59  1822.06  1838.33
                             1901.70  1912.00  1949.68  1959.92  1988.15
                             2011.85  2026.27  2036.87  2046.28  2063.33
                             2071.19  2074.02  2099.71  2146.83  2149.65
                             2171.56  2177.91  2183.88  2188.03  2196.91
                             2201.99  2208.50  2228.64  2230.74  2298.83
                             2445.42  4276.80  4307.76  4346.12  4366.78
                             4392.65  4397.09  4405.19  4411.15  4418.01
                             4433.00  4439.51  4456.16  4487.67  4493.47
                             4500.67  4511.64  4544.20  4611.24  4640.02
                             4708.44  4970.43  5091.00

 Zero-point correction=                           0.334594 (Hartree/Particle)
 Thermal correction to Energy=                    0.353070
 Thermal correction to Enthalpy=                  0.354014
 Thermal correction to Gibbs Free Energy=         0.287358
 Sum of electronic and zero-point Energies=          -1053.121824
 Sum of electronic and thermal Energies=             -1053.103349
 Sum of electronic and thermal Enthalpies=           -1053.102405
 Sum of electronic and thermal Free Energies=        -1053.169061

                     E (Thermal)             CV                S
                      KCal/Mol        Cal/Mol-Kelvin    Cal/Mol-Kelvin
 Total                  221.555             68.269            140.290
 Electronic               0.000              0.000              0.000
 Translational            0.889              2.981             42.354
 Rotational               0.889              2.981             32.913
 Vibrational            219.777             62.307             65.023
 Vibration     1          0.593              1.985              6.342
 Vibration     2          0.594              1.981              5.200
 Vibration     3          0.597              1.972              4.349
 Vibration     4          0.598              1.968              4.128
 Vibration     5          0.601              1.959              3.747
 Vibration     6          0.602              1.956              3.667
 Vibration     7          0.608              1.937              3.187
 Vibration     8          0.612              1.923              2.946
 Vibration     9          0.617              1.907              2.730
 Vibration    10          0.627              1.874              2.387
 Vibration    11          0.632              1.857              2.256
 Vibration    12          0.637              1.844              2.158
 Vibration    13          0.646              1.813              1.970
 Vibration    14          0.652              1.797              1.887
 Vibration    15          0.662              1.766              1.744
 Vibration    16          0.673              1.732              1.611
 Vibration    17          0.695              1.667              1.398
 Vibration    18          0.704              1.639              1.320
 Vibration    19          0.733              1.559              1.130
 Vibration    20          0.751              1.511              1.036
 Vibration    21          0.769              1.461              0.948
 Vibration    22          0.780              1.433              0.901
 Vibration    23          0.793              1.399              0.850
 Vibration    24          0.803              1.376              0.816
 Vibration    25          0.878              1.200              0.604
 Vibration    26          0.886              1.181              0.585
 Vibration    27          0.927              1.095              0.503
 Vibration    28          0.961              1.027              0.446

 Optimization completed.
    -- Stationary point found.
 Normal termination of Gaussian 16 at Fri Dec 11 00:07:43 2020.

 ----------------------------------------------------------------------
 # B3LYP/6-311++G(d,p) empiricaldispersion=gd3bj scf=xqc pop=npa geom=c
 heck
 ----------------------------------------------------------------------

 ---------------------------------------
 CID_115287789_JID_6582_Energie_neutraal
 ---------------------------------------
 Structure from the checkpoint file:  "JID_6582.chk"
 Charge =  0 Multiplicity = 1

 SCF Done:  E(RB3LYP) =  -1053.67561516     A.U. after   15 cycles
 Normal termination of Gaussian 16 at Fri Dec 11 00:14:45 2020.

 ----------------------------------------------------------------------
 # B3LYP/6-311++G(d,p) empiricaldispersion=gd3bj scf=xqc pop=npa geom=c
 heck
 ----------------------------------------------------------------------

 -------------------------------------
 CID_115287789_JID_6582_Energie_kation
 -------------------------------------
 Structure from the checkpoint file:  "JID_6582.chk"
 Charge =  1 Multiplicity = 2

 SCF Done:  E(UB3LYP) =  -1053.41404972     A.U. after   21 cycles
 Normal termination of Gaussian 16 at Fri Dec 11 00:27:45 2020.
 Gaussian 16:  ES64L-G16RevA.03 25-Dec-2016

 ----------------------------------------------------------------------
 # B3LYP/6-311++G(d,p) empiricaldispersion=gd3bj scf=xqc pop=npa geom=c
 heck
 ----------------------------------------------------------------------

 ------------------------------------
 CID_115287789_JID_6582_Energie_anion
 ------------------------------------
 Structure from the checkpoint file:  "JID_6582.chk"
 Charge = -1 Multiplicity = 2

                         Standard orientation:
 ---------------------------------------------------------------------
 Center     Atomic      Atomic             Coordinates (Angstroms)
 Number     Number       Type             X           Y           Z
 ---------------------------------------------------------------------
      1          6           0       -2.417947   -0.384214    2.495839
      2          6           0       -1.116760    0.159855    1.896965
      3          7           0       -1.139224    0.296185    0.448474
      4          6           0       -0.502530    1.483963   -0.082694
      5          6           0        0.998813    1.691032    0.243791
      6          6           0        1.859283    0.527158   -0.192381
      7          6           0        2.019463   -0.011989   -1.443769
      8          6           0        2.940414   -1.103281   -1.481967
      9          6           0        3.483325   -1.383020   -0.257903
     10         16           0        2.870185   -0.309331    0.959838
     11          7           0        1.404012    2.989685   -0.318166
     12          6           0       -1.158567   -0.905024   -0.398912
     13          6           0       -0.493080   -2.147937    0.206897
     14          6           0       -2.580512   -1.221299   -0.890145
     15          8           0       -3.110244   -0.168610   -1.683657
     16          6           0       -3.958554    0.725090   -0.988693
     17          1           0       -3.267565    0.239886    2.200341
     18          1           0       -2.354864   -0.392610    3.590485
     19          1           0       -2.624092   -1.408204    2.170495
     20          1           0       -0.953514    1.163329    2.306579
     21          1           0       -0.269650   -0.452837    2.250540
     22          1           0       -0.638641    1.482820   -1.169938
     23          1           0       -1.017206    2.379561    0.290152
     24          1           0        1.085905    1.786706    1.332486
     25          1           0        1.487938    0.353008   -2.316855
     26          1           0        3.184704   -1.655522   -2.382892
     27          1           0        4.200531   -2.150123   -0.000392
     28          1           0        2.377634    3.169927   -0.075609
     29          1           0        1.385358    2.927083   -1.336406
     30          1           0       -0.593076   -0.657593   -1.301757
     31          1           0       -1.010853   -2.507030    1.102474
     32          1           0       -0.500994   -2.962590   -0.525361
     33          1           0        0.547089   -1.945092    0.470630
     34          1           0       -2.545341   -2.109696   -1.535289
     35          1           0       -3.248992   -1.446508   -0.047236
     36          1           0       -4.818497    0.197459   -0.544579
     37          1           0       -3.428203    1.261586   -0.193884
     38          1           0       -4.332286    1.441527   -1.726452
 ---------------------------------------------------------------------

 SCF Done:  E(UB3LYP) =  -1053.66081537     A.U. after   33 cycles
 SCF Done:  E(UB3LYP) =  -1053.66081537     a.u. after    1 cycles

 The electronic state is 2-A.
 Alpha  occ. eigenvalues --  -88.78277 -19.02990 -14.20817 -14.20311 -10.11870
 Alpha  occ. eigenvalues --  -10.11699 -10.11673 -10.10852 -10.10342 -10.10309
 Alpha  occ. eigenvalues --  -10.10157 -10.10139 -10.08351 -10.08095 -10.06791
 Alpha  occ. eigenvalues --  -10.06237  -7.86899  -5.83170  -5.82811  -5.82520
 Alpha  occ. eigenvalues --   -0.94076  -0.83262  -0.80534  -0.78024  -0.68716
 Alpha  occ. eigenvalues --   -0.66823  -0.64500  -0.64074  -0.61777  -0.59452
 Alpha  occ. eigenvalues --   -0.55726  -0.53890  -0.52051  -0.47218  -0.46578
 Alpha  occ. eigenvalues --   -0.44165  -0.42119  -0.41655  -0.39559  -0.38864
 Alpha  occ. eigenvalues --   -0.38484  -0.36879  -0.35495  -0.35150  -0.33497
 Alpha  occ. eigenvalues --   -0.32716  -0.32445  -0.31373  -0.30869  -0.30253
 Alpha  occ. eigenvalues --   -0.29346  -0.29182  -0.28246  -0.28109  -0.26869
 Alpha  occ. eigenvalues --   -0.26366  -0.25411  -0.25131  -0.24646  -0.24272
 Alpha  occ. eigenvalues --   -0.22263  -0.17517  -0.17017  -0.16246  -0.13655
 Alpha  occ. eigenvalues --   -0.10603   0.04240
 Alpha virt. eigenvalues --    0.05854   0.06498   0.06747   0.06979   0.07662
 Alpha virt. eigenvalues --    0.08149   0.08454   0.08793   0.09684   0.09802
 Alpha virt. eigenvalues --    0.10510   0.10784   0.11507   0.11746   0.12394

  Beta  occ. eigenvalues --  -88.78273 -19.02983 -14.20792 -14.20308 -10.11866
  Beta  occ. eigenvalues --  -10.11686 -10.11666 -10.10854 -10.10338 -10.10282
  Beta  occ. eigenvalues --  -10.10145 -10.10131 -10.08336 -10.08074 -10.06766
  Beta  occ. eigenvalues --  -10.06218  -7.86895  -5.83166  -5.82808  -5.82515
  Beta  occ. eigenvalues --   -0.94062  -0.83245  -0.80503  -0.77993  -0.68698
  Beta  occ. eigenvalues --   -0.66793  -0.64468  -0.64036  -0.61754  -0.59416
  Beta  occ. eigenvalues --   -0.55689  -0.53850  -0.52018  -0.47164  -0.46545
  Beta  occ. eigenvalues --   -0.44129  -0.42080  -0.41622  -0.39541  -0.38840
  Beta  occ. eigenvalues --   -0.38463  -0.36856  -0.35470  -0.35122  -0.33469
  Beta  occ. eigenvalues --   -0.32692  -0.32423  -0.31340  -0.30827  -0.30229
  Beta  occ. eigenvalues --   -0.29321  -0.29160  -0.28214  -0.28079  -0.26843
  Beta  occ. eigenvalues --   -0.26339  -0.25387  -0.25107  -0.24626  -0.24250
  Beta  occ. eigenvalues --   -0.22239  -0.17492  -0.17004  -0.16220  -0.13618
  Beta  occ. eigenvalues --   -0.10584
  Beta virt. eigenvalues --    0.06122   0.06790   0.06866   0.07174   0.07284
  Beta virt. eigenvalues --    0.08203   0.08665   0.08777   0.09181   0.09823
  Beta virt. eigenvalues --    0.10031   0.10814   0.11046   0.11778   0.11962

 Mulliken charges and spin densities:
               1          2
     1  C    0.840876  -1.439235
     2  C   -0.703299   0.577335
     3  N    0.180035   0.042971
     4  C   -0.018340  -0.498670
     5  C    1.987315  -2.183929
     6  C    0.328996  -0.434057
     7  C   -2.963600   2.909567
     8  C    2.270549  -2.611433
     9  C   -0.736312   0.379164
    10  S    0.372474  -0.264240
    11  N   -0.309889   0.069515
    12  C   -0.057578   0.098163
    13  C   -0.428680  -0.299061
    14  C   -0.171372  -0.121616
    15  O   -0.095314   0.013818
    16  C    0.159658  -0.455771
    17  H   -0.076708   0.229248
    18  H   -0.242973   0.384875
    19  H   -0.005242   0.136245
    20  H   -0.053676   0.181481
    21  H    0.070852   0.080220
    22  H    0.128907   0.045781
    23  H    0.164639   0.028172
    24  H   -0.030710   0.237044
    25  H   -0.584950   0.758671
    26  H   -0.634644   0.811370
    27  H   -0.928602   1.184817
    28  H    0.023842   0.228510
    29  H    0.035284   0.182244
    30  H    0.507345  -0.314459
    31  H   -0.031243   0.166603
    32  H   -0.114582   0.249005
    33  H    0.027398   0.018276
    34  H   -0.057739   0.218362
    35  H    0.166451  -0.048497
    36  H   -0.068073   0.188930
    37  H   -0.008818   0.170633
    38  H    0.057723   0.079949
 Sum of Mulliken charges =  -1.00000   1.00000

 Dipole moment (field-independent basis, Debye):
    X=             -3.2502    Y=              1.5895    Z=              1.4455  Tot=              3.8961
 Quadrupole moment (field-independent basis, Debye-Ang):
   XX=           -182.8875   YY=           -159.6819   ZZ=           -156.7329
   XY=             12.0308   XZ=             11.0325   YZ=             -2.6113

 Summary of Natural Population Analysis:

                                       Natural Population
                Natural  -----------------------------------------------
    Atom  No    Charge         Core      Valence    Rydberg      Total
 -----------------------------------------------------------------------
      C    1   -0.28860      0.99966     2.28362    0.00533     3.28860
      C    2   -0.08423      0.99961     2.07347    0.01115     3.08423
      N    3   -0.29757      0.99969     2.78180    0.01608     3.79757
      C    4   -0.07283      0.99958     2.06000    0.01324     3.07283
      C    5   -0.04050      0.99952     2.02757    0.01341     3.04050
      C    6   -0.10598      0.99947     2.09023    0.01627     3.10598
      C    7   -0.13262      0.99944     2.12031    0.01287     3.13262
      C    8   -0.12197      0.99953     2.11074    0.01169     3.12197
      C    9   -0.19410      0.99954     2.18262    0.01195     3.19410
      S   10    0.20671      4.99939     2.77384    0.02006     7.79329
      N   11   -0.41316      0.99978     2.90404    0.00934     3.91316
      C   12   -0.01706      0.99957     2.00375    0.01375     3.01706
      C   13   -0.29650      0.99963     2.29062    0.00624     3.29650
      C   14   -0.00614      0.99953     1.99547    0.01114     3.00614
      O   15   -0.30282      0.99989     3.29292    0.01002     4.30282
      C   16   -0.09574      0.99961     2.08783    0.00831     3.09574
      H   17    0.09781      0.00000     0.40083    0.00136     0.40219
      H   18    0.09832      0.00000     0.40062    0.00106     0.40168
      H   19    0.09472      0.00000     0.40397    0.00131     0.40528
      H   20    0.09437      0.00000     0.40422    0.00141     0.40563
      H   21    0.08627      0.00000     0.41214    0.00160     0.41373
      H   22    0.09853      0.00000     0.39995    0.00152     0.40147
      H   23    0.09707      0.00000     0.40158    0.00135     0.40293
      H   24    0.09511      0.00000     0.40288    0.00201     0.40489
      H   25    0.10906      0.00000     0.38909    0.00185     0.39094
      H   26    0.10994      0.00000     0.38782    0.00223     0.39006
      H   27    0.11354      0.00000     0.38390    0.00256     0.38646
      H   28    0.17669      0.00000     0.32155    0.00176     0.32331
      H   29    0.17327      0.00000     0.32469    0.00204     0.32673
      H   30    0.09999      0.00000     0.39725    0.00276     0.40001
      H   31    0.09610      0.00000     0.40294    0.00096     0.40390
      H   32    0.10231      0.00000     0.39674    0.00094     0.39769
      H   33    0.10869      0.00000     0.38930    0.00201     0.39131
      H   34    0.08524      0.00000     0.41344    0.00131     0.41476
      H   35    0.07910      0.00000     0.41921    0.00169     0.42090
      H   36    0.07402      0.00000     0.42452    0.00146     0.42598
      H   37    0.08737      0.00000     0.41098    0.00165     0.41263
      H   38    0.08558      0.00000     0.41328    0.00114     0.41442
 =======================================================================
   * Total *   -0.00000     19.99344    45.77973    0.22683    66.00000

 Normal termination of Gaussian 16 at Fri Dec 11 00:50:41 2020.
