 Gaussian 16, Revision A.03,

 -----------------------------------------------------------
 # opt freq B3LYP/6-31G(d) empiricaldispersion=gd3bj scf=xqc
 -----------------------------------------------------------

 -------------------------------
 CID_137240168_JID_5314_neutraal
 -------------------------------
 Symbolic Z-matrix:
 Charge =  0 Multiplicity = 1

 SCF Done:  E(RB3LYP) =  -754.355693498     A.U. after   15 cycles
 SCF Done:  E(RB3LYP) =  -754.361064982     A.U. after   13 cycles
 SCF Done:  E(RB3LYP) =  -754.361582400     A.U. after   12 cycles
 SCF Done:  E(RB3LYP) =  -754.361636841     A.U. after   11 cycles
 SCF Done:  E(RB3LYP) =  -754.361693317     A.U. after   10 cycles
 SCF Done:  E(RB3LYP) =  -754.361743295     A.U. after   10 cycles
 SCF Done:  E(RB3LYP) =  -754.361795460     A.U. after   11 cycles
 SCF Done:  E(RB3LYP) =  -754.361868051     A.U. after   11 cycles
 SCF Done:  E(RB3LYP) =  -754.361946074     A.U. after   11 cycles
 SCF Done:  E(RB3LYP) =  -754.362017436     A.U. after   11 cycles
 SCF Done:  E(RB3LYP) =  -754.362483064     A.U. after   10 cycles
 SCF Done:  E(RB3LYP) =  -754.362483251     A.U. after    8 cycles
 SCF Done:  E(RB3LYP) =  -754.362483439     A.U. after    8 cycles
 SCF Done:  E(RB3LYP) =  -754.362483500     A.U. after    7 cycles
 SCF Done:  E(RB3LYP) =  -754.362483543     A.U. after    7 cycles
 Optimization completed.
    -- Stationary point found.
 Normal termination of Gaussian 16 at Thu Dec 10 15:47:37 2020.

 --------------------------------------------------------------------
 #N Geom=AllCheck Guess=TCheck SCRF=Check GenChk RB3LYP/6-31G(d) Freq
 --------------------------------------------------------------------

 Structure from the checkpoint file:  "JID_5314.chk"
 -------------------------------
 CID_137240168_JID_5314_neutraal
 -------------------------------
 Charge =  0 Multiplicity = 1

 SCF Done:  E(RB3LYP) =  -754.362483543     A.U. after    1 cycles

  Exact polarizability: 178.396   0.893 121.548   0.014   0.008  56.093
 Approx polarizability: 247.063   7.461 203.593   0.047   0.045  86.860

                      1                      2                      3
                      A                      A                      A
 Frequencies --     14.1593                42.9295                70.1421
 Red. masses --      4.7416                10.6581                 1.0992
 Frc consts  --      0.0006                 0.0116                 0.0032
 IR Inten    --      4.9436                 0.0155                 0.5262

                      4                      5                      6
                      A                      A                      A
 Frequencies --     84.8230                84.9732               100.6439
 Red. masses --      1.4904                 5.2441                 2.3513
 Frc consts  --      0.0063                 0.0223                 0.0140
 IR Inten    --      1.4777                 3.1887                 2.0867

                      7                      8                      9
                      A                      A                      A
 Frequencies --    169.0360               189.7310               198.1245
 Red. masses --      4.4059                 6.1702                 4.3417
 Frc consts  --      0.0742                 0.1309                 0.1004
 IR Inten    --      1.7950                 0.3820                 0.2611

                     10                     11                     12
                      A                      A                      A
 Frequencies --    240.2562               292.7268               319.3454
 Red. masses --      3.3222                 4.8036                 4.7300
 Frc consts  --      0.1130                 0.2425                 0.2842
 IR Inten    --      3.6028                 0.8450                 1.6512

                     13                     14                     15
                      A                      A                      A
 Frequencies --    356.8307               388.9814               455.6415
 Red. masses --      5.4927                 6.6169                 8.7564
 Frc consts  --      0.4121                 0.5899                 1.0711
 IR Inten    --      1.0473                 0.0822                 8.4952

                     16                     17                     18
                      A                      A                      A
 Frequencies --    487.8844               535.3698               572.1165
 Red. masses --      4.8748                 1.3403                 1.9052
 Frc consts  --      0.6837                 0.2263                 0.3674
 IR Inten    --      2.2853                77.6316                33.6817

                     19                     20                     21
                      A                      A                      A
 Frequencies --    575.5030               625.9410               661.9526
 Red. masses --      6.5606                 4.4493                 2.8537
 Frc consts  --      1.2802                 1.0271                 0.7367
 IR Inten    --      3.3015                 3.6682                27.2318

                     22                     23                     24
                      A                      A                      A
 Frequencies --    676.4213               704.4056               714.7930
 Red. masses --      2.7589                 5.7951                 4.0956
 Frc consts  --      0.7438                 1.6942                 1.2329
 IR Inten    --     42.1223                35.0529                82.2832

                     25                     26                     27
                      A                      A                      A
 Frequencies --    767.6532               776.7190               793.0772
 Red. masses --      5.2077                 9.3027                11.8695
 Frc consts  --      1.8081                 3.3066                 4.3986
 IR Inten    --     13.6810                25.1386                 0.0815

                     28                     29                     30
                      A                      A                      A
 Frequencies --    955.6274               985.8488               994.2739
 Red. masses --     13.5798                 1.6780                10.3549
 Frc consts  --      7.3067                 0.9608                 6.0313
 IR Inten    --     32.1399                 2.7453                12.9154

                     31                     32                     33
                      A                      A                      A
 Frequencies --   1030.7306              1034.0544              1052.1982
 Red. masses --      2.6220                 5.7667                 2.4199
 Frc consts  --      1.6413                 3.6330                 1.5785
 IR Inten    --      9.6733                 4.4211                 6.2478

                     34                     35                     36
                      A                      A                      A
 Frequencies --   1074.0334              1080.7400              1137.3073
 Red. masses --      1.4336                 1.4758                 7.2860
 Frc consts  --      0.9744                 1.0156                 5.5526
 IR Inten    --      0.1266                 2.7075                42.6200

                     37                     38                     39
                      A                      A                      A
 Frequencies --   1171.8068              1231.1377              1264.2693
 Red. masses --      4.1081                 1.7796                 5.5733
 Frc consts  --      3.3236                 1.5892                 5.2486
 IR Inten    --    352.8464                 6.4057                43.3369

                     40                     41                     42
                      A                      A                      A
 Frequencies --   1292.4328              1357.5922              1405.1205
 Red. masses --      2.9755                 6.4675                 3.3231
 Frc consts  --      2.9284                 7.0230                 3.8657
 IR Inten    --      9.1301                32.3530                41.6880

                     43                     44                     45
                      A                      A                      A
 Frequencies --   1417.9573              1439.2334              1446.8783
 Red. masses --      3.3603                 1.4300                 2.4353
 Frc consts  --      3.9807                 1.7452                 3.0038
 IR Inten    --     47.5753                13.2995                18.7469

                     46                     47                     48
                      A                      A                      A
 Frequencies --   1452.1323              1512.5419              1515.0479
 Red. masses --      1.5767                 1.0431                 1.6938
 Frc consts  --      1.9590                 1.4061                 2.2907
 IR Inten    --     11.0193                 8.2429                 7.0685

                     49                     50                     51
                      A                      A                      A
 Frequencies --   1520.5408              1524.4646              1536.3870
 Red. masses --      1.1232                 1.0436                 2.7967
 Frc consts  --      1.5300                 1.4289                 3.8896
 IR Inten    --      1.4365                 7.5373                75.8440

                     52                     53                     54
                      A                      A                      A
 Frequencies --   1613.8650              1625.0678              1648.6124
 Red. masses --      9.6506                 6.4850                 6.7559
 Frc consts  --     14.8094                10.0903                10.8186
 IR Inten    --     38.1300               171.8025                71.3046

                     55                     56                     57
                      A                      A                      A
 Frequencies --   1845.3003              3038.5148              3046.2237
 Red. masses --     10.7085                 1.0415                 1.0402
 Frc consts  --     21.4838                 5.6656                 5.6871
 IR Inten    --    298.3137                40.0770                36.4156

                     58                     59                     60
                      A                      A                      A
 Frequencies --   3085.2423              3095.1906              3166.7989
 Red. masses --      1.1013                 1.1016                 1.0975
 Frc consts  --      6.1765                 6.2180                 6.4849
 IR Inten    --     18.1484                18.8136                 2.8084

                     61                     62                     63
                      A                      A                      A
 Frequencies --   3172.4447              3633.9405              3691.0473
 Red. masses --      1.0959                 1.0804                 1.0641
 Frc consts  --      6.4982                 8.4057                 8.5411
 IR Inten    --      0.0526                50.2924                90.2818

 - Thermochemistry -
 -------------------
 Temperature   298.150 Kelvin.  Pressure   1.00000 Atm.
 Atom     1 has atomic number  6 and mass  12.00000

 Molecular mass:   208.05964 amu.
 Principal axes and moments of inertia in atomic units:
                           1         2         3
     Eigenvalues --  1296.945425877.310617151.64699
           X            1.00000  -0.00108   0.00000
           Y            0.00108   1.00000  -0.00006
           Z           -0.00000   0.00006   1.00000
 This molecule is an asymmetric top.
 Rotational symmetry number  1.
 Warning -- assumption of classical behavior for rotation
           may cause significant error
 Rotational temperatures (Kelvin)      0.06678     0.01474     0.01211
 Rotational constants (GHZ):           1.39153     0.30707     0.25235
 Zero-point vibrational energy     442587.1 (Joules/Mol)
                                  105.78086 (Kcal/Mol)
 Warning -- explicit consideration of  19 degrees of freedom as
           vibrations may cause significant error
 Vibrational temperatures:     20.37    61.77   100.92   122.04   122.26
          (Kelvin)            144.80   243.21   272.98   285.06   345.68
                              421.17   459.47   513.40   559.66   655.57
                              701.96   770.28   823.15   828.02   900.59
                              952.40   973.22  1013.48  1028.43  1104.48
                             1117.53  1141.06  1374.93  1418.42  1430.54
                             1482.99  1487.77  1513.88  1545.29  1554.94
                             1636.33  1685.97  1771.33  1819.00  1859.52
                             1953.27  2021.65  2040.12  2070.74  2081.74
                             2089.29  2176.21  2179.82  2187.72  2193.36
                             2210.52  2321.99  2338.11  2371.99  2654.98
                             4371.75  4382.84  4438.98  4453.29  4556.32
                             4564.44  5228.43  5310.59

 Zero-point correction=                           0.168573 (Hartree/Particle)
 Thermal correction to Energy=                    0.182308
 Thermal correction to Enthalpy=                  0.183252
 Thermal correction to Gibbs Free Energy=         0.125360
 Sum of electronic and zero-point Energies=           -754.193911
 Sum of electronic and thermal Energies=              -754.180176
 Sum of electronic and thermal Enthalpies=            -754.179232
 Sum of electronic and thermal Free Energies=         -754.237123

                     E (Thermal)             CV                S
                      KCal/Mol        Cal/Mol-Kelvin    Cal/Mol-Kelvin
 Total                  114.400             48.808            121.843
 Electronic               0.000              0.000              0.000
 Translational            0.889              2.981             41.902
 Rotational               0.889              2.981             32.366
 Vibrational            112.622             42.846             47.574
 Vibration     1          0.593              1.986              7.320
 Vibration     2          0.595              1.980              5.119
 Vibration     3          0.598              1.968              4.149
 Vibration     4          0.601              1.960              3.776
 Vibration     5          0.601              1.960              3.773
 Vibration     6          0.604              1.949              3.442
 Vibration     7          0.625              1.881              2.446
 Vibration     8          0.633              1.854              2.230
 Vibration     9          0.637              1.843              2.150
 Vibration    10          0.657              1.779              1.801
 Vibration    11          0.688              1.687              1.458
 Vibration    12          0.705              1.637              1.313
 Vibration    13          0.732              1.561              1.136
 Vibration    14          0.757              1.494              1.004
 Vibration    15          0.814              1.348              0.779
 Vibration    16          0.844              1.277              0.689
 Vibration    17          0.890              1.172              0.575
 Vibration    18          0.928              1.092              0.500
 Vibration    19          0.932              1.084              0.494

                           ! Non-Optimized Parameters !
 Normal termination of Gaussian 16 at Thu Dec 10 15:53:37 2020.

 ----------------------------------------------------------------------
 # B3LYP/6-311++G(d,p) empiricaldispersion=gd3bj scf=xqc pop=npa geom=c
 heck
 ----------------------------------------------------------------------

 ---------------------------------------
 CID_137240168_JID_5314_Energie_neutraal
 ---------------------------------------
 Structure from the checkpoint file:  "JID_5314.chk"
 Charge =  0 Multiplicity = 1

 SCF Done:  E(RB3LYP) =  -754.577346823     A.U. after   15 cycles
 Normal termination of Gaussian 16 at Thu Dec 10 15:56:18 2020.

 ----------------------------------------------------------------------
 # B3LYP/6-311++G(d,p) empiricaldispersion=gd3bj scf=xqc pop=npa geom=c
 heck
 ----------------------------------------------------------------------

 -------------------------------------
 CID_137240168_JID_5314_Energie_kation
 -------------------------------------
 Structure from the checkpoint file:  "JID_5314.chk"
 Charge =  1 Multiplicity = 2

 SCF Done:  E(UB3LYP) =  -754.277698925     A.U. after   24 cycles
 Normal termination of Gaussian 16 at Thu Dec 10 16:02:14 2020.
 Gaussian 16:  ES64L-G16RevA.03 25-Dec-2016

 ----------------------------------------------------------------------
 # B3LYP/6-311++G(d,p) empiricaldispersion=gd3bj scf=xqc pop=npa geom=c
 heck
 ----------------------------------------------------------------------

 ------------------------------------
 CID_137240168_JID_5314_Energie_anion
 ------------------------------------
 Structure from the checkpoint file:  "JID_5314.chk"
 Charge = -1 Multiplicity = 2

                         Standard orientation:
 ---------------------------------------------------------------------
 Center     Atomic      Atomic             Coordinates (Angstroms)
 Number     Number       Type             X           Y           Z
 ---------------------------------------------------------------------
      1          6           0       -2.306692    2.525116   -0.002304
      2          6           0       -2.270265    1.034350   -0.000748
      3          6           0       -1.238359    0.110232    0.000409
      4          7           0       -1.733374   -1.183883    0.001054
      5          6           0       -3.040188   -1.068665    0.000312
      6          7           0       -3.410016    0.259906   -0.000931
      7          6           0       -4.023012   -2.190945    0.000648
      8          6           0        0.191602    0.365095    0.000859
      9          7           0        0.714910    1.581432    0.002718
     10          8           0        2.092277    1.358271    0.002178
     11          6           0        2.251439    0.024193    0.000276
     12          7           0        1.138574   -0.644075   -0.000622
     13          6           0        3.651153   -0.481226   -0.000643
     14          8           0        4.623222    0.237561   -0.000503
     15          8           0        3.685651   -1.824657   -0.001613
     16          1           0       -2.823056    2.915031    0.884470
     17          1           0       -2.827218    2.912903   -0.887547
     18          1           0       -1.289502    2.918816   -0.004872
     19          1           0       -4.355055    0.617885   -0.000985
     20          1           0       -3.470718   -3.132234    0.001491
     21          1           0       -4.669708   -2.166896    0.886564
     22          1           0       -4.669030   -2.168023   -0.885782
     23          1           0        4.630356   -2.069439   -0.002218
 ---------------------------------------------------------------------

 SCF Done:  E(UB3LYP) =  -754.597322917     A.U. after   33 cycles
 SCF Done:  E(UB3LYP) =  -754.597322917     a.u. after    1 cycles

 The electronic state is 2-A.
 Alpha  occ. eigenvalues --  -19.02467 -19.00960 -18.93511 -14.25917 -14.18049
 Alpha  occ. eigenvalues --  -14.17940 -14.13883 -10.12413 -10.12134 -10.09168
 Alpha  occ. eigenvalues --  -10.09144 -10.07684 -10.07227 -10.07186 -10.06944
 Alpha  occ. eigenvalues --   -0.98605  -0.94736  -0.90851  -0.85536  -0.77275
 Alpha  occ. eigenvalues --   -0.75589  -0.70335  -0.67905  -0.63638  -0.57166
 Alpha  occ. eigenvalues --   -0.52996  -0.51989  -0.49019  -0.44940  -0.41466
 Alpha  occ. eigenvalues --   -0.40631  -0.36186  -0.36134  -0.33331  -0.33155
 Alpha  occ. eigenvalues --   -0.32556  -0.32433  -0.32063  -0.29875  -0.29480
 Alpha  occ. eigenvalues --   -0.28815  -0.28487  -0.28148  -0.25091  -0.23857
 Alpha  occ. eigenvalues --   -0.19729  -0.17196  -0.16978  -0.16154  -0.15898
 Alpha  occ. eigenvalues --   -0.13882  -0.12847  -0.11608  -0.09413   0.04711
 Alpha virt. eigenvalues --    0.05599   0.07589   0.08792   0.09626   0.10456
 Alpha virt. eigenvalues --    0.10992   0.12079   0.12202   0.12948   0.13912
 Alpha virt. eigenvalues --    0.14170   0.15445   0.17079   0.17184   0.17459

  Beta  occ. eigenvalues --  -19.01975 -19.00852 -18.93117 -14.25894 -14.17949
  Beta  occ. eigenvalues --  -14.17538 -14.13766 -10.12416 -10.11833 -10.09167
  Beta  occ. eigenvalues --  -10.09100 -10.07390 -10.07249 -10.07201 -10.06951
  Beta  occ. eigenvalues --   -0.97837  -0.94338  -0.90826  -0.84938  -0.77111
  Beta  occ. eigenvalues --   -0.75301  -0.69903  -0.67549  -0.63598  -0.57078
  Beta  occ. eigenvalues --   -0.52163  -0.51759  -0.48961  -0.44691  -0.41209
  Beta  occ. eigenvalues --   -0.40549  -0.36082  -0.35835  -0.33296  -0.32852
  Beta  occ. eigenvalues --   -0.32114  -0.31806  -0.30948  -0.29794  -0.29376
  Beta  occ. eigenvalues --   -0.28605  -0.28445  -0.26703  -0.24758  -0.23398
  Beta  occ. eigenvalues --   -0.19033  -0.16518  -0.15993  -0.15664  -0.14950
  Beta  occ. eigenvalues --   -0.12498  -0.12220  -0.11226  -0.08025
  Beta virt. eigenvalues --    0.05538   0.07536   0.08765   0.09561   0.10464
  Beta virt. eigenvalues --    0.11049   0.11754   0.12051   0.12880   0.13295
  Beta virt. eigenvalues --    0.14118   0.14557   0.15407   0.17046   0.17197

 Mulliken charges and spin densities:
               1          2
     1  C   -0.634386   0.000502
     2  C   -0.091658   0.025528
     3  C   -0.270679   0.011626
     4  N   -0.082760  -0.004325
     5  C    0.141026  -0.002336
     6  N   -0.182152   0.014236
     7  C   -0.453820  -0.005524
     8  C    0.120184  -0.049279
     9  N   -0.643243   0.256483
    10  O    0.255818   0.105152
    11  C   -0.166914   0.201970
    12  N   -0.127859   0.052390
    13  C    0.344932   0.219743
    14  O   -0.413083   0.134370
    15  O   -0.198310   0.019544
    16  H    0.110818   0.007253
    17  H    0.110245   0.007348
    18  H    0.199160  -0.001186
    19  H    0.283179  -0.000772
    20  H    0.177516  -0.000066
    21  H    0.128251   0.004285
    22  H    0.127977   0.004560
    23  H    0.265757  -0.001503
 Sum of Mulliken charges =  -1.00000   1.00000

 Dipole moment (field-independent basis, Debye):
    X=            -11.6569    Y=             -0.7064    Z=             -0.0048  Tot=             11.6783
 Quadrupole moment (field-independent basis, Debye-Ang):
   XX=           -116.0372   YY=           -101.8929   ZZ=            -90.9848
   XY=            -10.7181   XZ=             -0.0080   YZ=             -0.0157

 Summary of Natural Population Analysis:

                                       Natural Population
                Natural  -----------------------------------------------
    Atom  No    Charge         Core      Valence    Rydberg      Total
 -----------------------------------------------------------------------
      C    1   -0.30876      0.99964     2.30407    0.00505     3.30876
      C    2    0.07079      0.99954     1.91858    0.01109     2.92921
      C    3    0.04320      0.99933     1.94365    0.01382     2.95680
      N    4   -0.23682      0.99968     2.72737    0.00976     3.73682
      C    5    0.17426      0.99966     1.81031    0.01578     2.82574
      N    6   -0.27916      0.99963     2.77105    0.00847     3.77916
      C    7   -0.30546      0.99964     2.30183    0.00399     3.30546
      C    8    0.12291      0.99962     1.85952    0.01795     2.87709
      N    9   -0.03583      0.99967     2.52382    0.01234     3.53583
      O   10   -0.11663      0.99986     3.10556    0.01121     4.11663
      C   11    0.26517      0.99958     1.71606    0.01918     2.73483
      N   12   -0.23484      0.99968     2.72637    0.00879     3.73484
      C   13    0.40838      0.99970     1.56834    0.02359     2.59162
      O   14   -0.28267      0.99987     3.27568    0.00712     4.28267
      O   15   -0.33698      0.99988     3.32909    0.00801     4.33698
      H   16    0.09564      0.00000     0.40320    0.00116     0.40436
      H   17    0.09557      0.00000     0.40327    0.00116     0.40443
      H   18    0.13263      0.00000     0.36604    0.00133     0.36737
      H   19    0.19340      0.00000     0.30517    0.00144     0.30660
      H   20    0.11606      0.00000     0.38291    0.00103     0.38394
      H   21    0.09783      0.00000     0.40106    0.00111     0.40217
      H   22    0.09784      0.00000     0.40105    0.00111     0.40216
      H   23    0.22348      0.00000     0.27086    0.00566     0.27652
 =======================================================================
   * Total *    0.00000     14.99497    38.81487    0.19017    54.00000

 Normal termination of Gaussian 16 at Thu Dec 10 16:10:42 2020.
