 Gaussian 16, Revision A.03,

 -----------------------------------------------------------
 # opt freq B3LYP/6-31G(d) empiricaldispersion=gd3bj scf=xqc
 -----------------------------------------------------------

 ------------------------------
 CID_68047016_JID_3795_neutraal
 ------------------------------
 Symbolic Z-matrix:
 Charge =  0 Multiplicity = 1

 SCF Done:  E(RB3LYP) =  -537.166515659     A.U. after   14 cycles
 SCF Done:  E(RB3LYP) =  -537.169685285     A.U. after   12 cycles
 SCF Done:  E(RB3LYP) =  -537.169886992     A.U. after   11 cycles
 SCF Done:  E(RB3LYP) =  -537.169896624     A.U. after    9 cycles
 SCF Done:  E(RB3LYP) =  -537.169897922     A.U. after    8 cycles
 SCF Done:  E(RB3LYP) =  -537.169898461     A.U. after    7 cycles
 SCF Done:  E(RB3LYP) =  -537.169898996     A.U. after    8 cycles
 SCF Done:  E(RB3LYP) =  -537.169899799     A.U. after    8 cycles
 SCF Done:  E(RB3LYP) =  -537.169900818     A.U. after    9 cycles
 SCF Done:  E(RB3LYP) =  -537.169902016     A.U. after    9 cycles
 SCF Done:  E(RB3LYP) =  -537.169912229     A.U. after    8 cycles
 SCF Done:  E(RB3LYP) =  -537.169912372     A.U. after    8 cycles
 SCF Done:  E(RB3LYP) =  -537.169912460     A.U. after    8 cycles
 SCF Done:  E(RB3LYP) =  -537.169912489     A.U. after    7 cycles
 SCF Done:  E(RB3LYP) =  -537.169912496     A.U. after    6 cycles
 Optimization completed.
    -- Stationary point found.
 Normal termination of Gaussian 16 at Mon Dec 14 18:47:16 2020.

 --------------------------------------------------------------------
 #N Geom=AllCheck Guess=TCheck SCRF=Check GenChk RB3LYP/6-31G(d) Freq
 --------------------------------------------------------------------

 Structure from the checkpoint file:  "JID_3795.chk"
 ------------------------------
 CID_68047016_JID_3795_neutraal
 ------------------------------
 Charge =  0 Multiplicity = 1

 SCF Done:  E(RB3LYP) =  -537.169912496     A.U. after    1 cycles

  Exact polarizability: 199.931  -2.052 119.064   0.292   0.026  71.244
 Approx polarizability: 280.319   3.104 212.885   0.311   0.258 101.713

                      1                      2                      3
                      A                      A                      A
 Frequencies --     18.7229                36.6092                70.0810
 Red. masses --      1.0307                 3.0394                 3.4263
 Frc consts  --      0.0002                 0.0024                 0.0099
 IR Inten    --      0.2402                 1.6991                 0.8929

                      4                      5                      6
                      A                      A                      A
 Frequencies --    142.9754               156.4810               230.2877
 Red. masses --      3.1035                 3.3266                 1.0582
 Frc consts  --      0.0374                 0.0480                 0.0331
 IR Inten    --      0.6586                 0.4124                 0.2361

                      7                      8                      9
                      A                      A                      A
 Frequencies --    245.9923               253.0062               279.9639
 Red. masses --      3.7380                 1.1688                 2.3970
 Frc consts  --      0.1333                 0.0441                 0.1107
 IR Inten    --      0.5957                 0.5920                 0.7857

                     10                     11                     12
                      A                      A                      A
 Frequencies --    281.8404               313.8991               359.1138
 Red. masses --      3.7426                 2.7864                 1.3545
 Frc consts  --      0.1752                 0.1618                 0.1029
 IR Inten    --     16.5009                 0.8791                56.9371

                     13                     14                     15
                      A                      A                      A
 Frequencies --    422.6889               423.4334               465.9752
 Red. masses --      2.9177                 3.9116                 3.4690
 Frc consts  --      0.3071                 0.4132                 0.4438
 IR Inten    --      0.7701                 1.6288                 1.3079

                     16                     17                     18
                      A                      A                      A
 Frequencies --    470.0612               528.6121               614.2385
 Red. masses --      3.8943                 3.5428                 3.6386
 Frc consts  --      0.5070                 0.5833                 0.8088
 IR Inten    --      2.6817                 0.8822                 1.0273

                     19                     20                     21
                      A                      A                      A
 Frequencies --    617.8369               669.9940               704.5998
 Red. masses --      3.4070                 4.6227                 3.5018
 Frc consts  --      0.7663                 1.2226                 1.0243
 IR Inten    --      3.8627                 3.2744                 8.6113

                     22                     23                     24
                      A                      A                      A
 Frequencies --    760.7709               776.0785               825.5072
 Red. masses --      6.3073                 2.2764                 2.2719
 Frc consts  --      2.1508                 0.8078                 0.9122
 IR Inten    --      4.5288                 3.7508                21.2229

                     25                     26                     27
                      A                      A                      A
 Frequencies --    840.1143               882.7454               892.7916
 Red. masses --      3.3932                 1.3434                 2.6082
 Frc consts  --      1.4110                 0.6168                 1.2249
 IR Inten    --      0.2529                16.5372                 3.5141

                     28                     29                     30
                      A                      A                      A
 Frequencies --    929.1964               942.1361               972.5955
 Red. masses --      1.3546                 1.1871                 1.5014
 Frc consts  --      0.6891                 0.6208                 0.8368
 IR Inten    --      0.4623                 0.7648                 0.0526

                     31                     32                     33
                      A                      A                      A
 Frequencies --    990.6576              1005.6025              1032.4789
 Red. masses --      4.0133                 3.4621                 1.5405
 Frc consts  --      2.3206                 2.0627                 0.9675
 IR Inten    --      0.0809                11.8717                 0.2132

                     34                     35                     36
                      A                      A                      A
 Frequencies --   1075.0418              1082.1463              1130.2516
 Red. masses --      1.4843                 1.5270                 2.2766
 Frc consts  --      1.0107                 1.0535                 1.7135
 IR Inten    --      6.8654                 8.1108                 2.0262

                     37                     38                     39
                      A                      A                      A
 Frequencies --   1152.1657              1183.0606              1210.0735
 Red. masses --      1.4393                 1.9194                 1.6731
 Frc consts  --      1.1257                 1.5828                 1.4434
 IR Inten    --      4.1008                 2.7960                 4.8580

                     40                     41                     42
                      A                      A                      A
 Frequencies --   1232.7566              1277.0056              1331.9509
 Red. masses --      3.1813                 1.8037                 6.0977
 Frc consts  --      2.8484                 1.7330                 6.3737
 IR Inten    --      3.4419                61.8473                52.1476

                     43                     44                     45
                      A                      A                      A
 Frequencies --   1353.1694              1354.4074              1364.4798
 Red. masses --      1.7478                 1.3266                 3.6988
 Frc consts  --      1.8856                 1.4338                 4.0573
 IR Inten    --     19.5976                 2.0755                 5.9919

                     46                     47                     48
                      A                      A                      A
 Frequencies --   1390.3346              1426.4914              1434.0845
 Red. masses --      1.7114                 1.2218                 2.9220
 Frc consts  --      1.9491                 1.4649                 3.5406
 IR Inten    --     13.2119                 2.7620                25.6425

                     49                     50                     51
                      A                      A                      A
 Frequencies --   1444.5699              1447.4822              1457.3907
 Red. masses --      1.2581                 1.3027                 3.6406
 Frc consts  --      1.5468                 1.6081                 4.5559
 IR Inten    --      7.3689                10.3220                61.2699

                     52                     53                     54
                      A                      A                      A
 Frequencies --   1516.2177              1516.8888              1521.4310
 Red. masses --      1.0467                 1.0512                 1.0467
 Frc consts  --      1.4178                 1.4251                 1.4274
 IR Inten    --      0.1916                 5.6459                 2.9958

                     55                     56                     57
                      A                      A                      A
 Frequencies --   1521.7376              1531.5333              1536.7912
 Red. masses --      1.1389                 1.0585                 1.0659
 Frc consts  --      1.5538                 1.4628                 1.4832
 IR Inten    --      6.5952                 4.8837                12.4447

                     58                     59                     60
                      A                      A                      A
 Frequencies --   1556.7885              1596.1797              1627.3339
 Red. masses --      3.0798                 5.8146                 5.0566
 Frc consts  --      4.3978                 8.7283                 7.8898
 IR Inten    --      1.8482                 3.4458                30.9618

                     61                     62                     63
                      A                      A                      A
 Frequencies --   1680.6216              3039.2287              3043.3733
 Red. masses --      6.6481                 1.0394                 1.0368
 Frc consts  --     11.0634                 5.6564                 5.6582
 IR Inten    --      1.8266                49.6935                18.7833

                     64                     65                     66
                      A                      A                      A
 Frequencies --   3046.7768              3060.5477              3092.0473
 Red. masses --      1.0417                 1.0799                 1.0985
 Frc consts  --      5.6971                 5.9599                 6.1880
 IR Inten    --     28.2395                13.1111                24.1883

                     67                     68                     69
                      A                      A                      A
 Frequencies --   3105.2932              3113.3072              3123.1321
 Red. masses --      1.1005                 1.0996                 1.1008
 Frc consts  --      6.2524                 6.2793                 6.3264
 IR Inten    --      2.7136                89.1258                13.6538

                     70                     71                     72
                      A                      A                      A
 Frequencies --   3130.6291              3132.0159              3154.1426
 Red. masses --      1.1028                 1.1027                 1.0895
 Frc consts  --      6.3681                 6.3734                 6.3864
 IR Inten    --     18.6858                36.8452                47.9268

                     73                     74                     75
                      A                      A                      A
 Frequencies --   3175.5769              3270.3259              3664.4224
 Red. masses --      1.0911                 1.0964                 1.0792
 Frc consts  --      6.4830                 6.9089                 8.5385
 IR Inten    --     16.1537                 3.8464                35.6849

 - Thermochemistry -
 -------------------
 Temperature   298.150 Kelvin.  Pressure   1.00000 Atm.
 Atom     1 has atomic number  6 and mass  12.00000

 Molecular mass:   174.11570 amu.
 Principal axes and moments of inertia in atomic units:
                           1         2         3
     Eigenvalues --   813.448524335.305574744.42962
           X            0.99999  -0.00504   0.00011
           Y            0.00504   0.99999  -0.00036
           Z           -0.00011   0.00036   1.00000
 This molecule is an asymmetric top.
 Rotational symmetry number  1.
 Warning -- assumption of classical behavior for rotation
           may cause significant error
 Rotational temperatures (Kelvin)      0.10648     0.01998     0.01826
 Rotational constants (GHZ):           2.21863     0.41629     0.38039
 Zero-point vibrational energy     605671.1 (Joules/Mol)
                                  144.75886 (Kcal/Mol)
 Warning -- explicit consideration of  19 degrees of freedom as
           vibrations may cause significant error
 Vibrational temperatures:     26.94    52.67   100.83   205.71   225.14
          (Kelvin)            331.33   353.93   364.02   402.81   405.51
                              451.63   516.68   608.16   609.23   670.43
                              676.31   760.55   883.75   888.93   963.97
                             1013.76  1094.58  1116.60  1187.72  1208.74
                             1270.07  1284.53  1336.91  1355.52  1399.35
                             1425.34  1446.84  1485.51  1546.75  1556.97
                             1626.18  1657.71  1702.16  1741.03  1773.66
                             1837.33  1916.38  1946.91  1948.69  1963.18
                             2000.38  2052.40  2063.33  2078.41  2082.60
                             2096.86  2181.50  2182.46  2189.00  2189.44
                             2203.53  2211.10  2239.87  2296.55  2341.37
                             2418.04  4372.77  4378.74  4383.63  4403.45
                             4448.77  4467.82  4479.35  4493.49  4504.28
                             4506.27  4538.11  4568.95  4705.27  5272.29

 Zero-point correction=                           0.230688 (Hartree/Particle)
 Thermal correction to Energy=                    0.243258
 Thermal correction to Enthalpy=                  0.244202
 Thermal correction to Gibbs Free Energy=         0.190568
 Sum of electronic and zero-point Energies=           -536.939225
 Sum of electronic and thermal Energies=              -536.926655
 Sum of electronic and thermal Enthalpies=            -536.925711
 Sum of electronic and thermal Free Energies=         -536.979344

                     E (Thermal)             CV                S
                      KCal/Mol        Cal/Mol-Kelvin    Cal/Mol-Kelvin
 Total                  152.647             47.609            112.882
 Electronic               0.000              0.000              0.000
 Translational            0.889              2.981             41.371
 Rotational               0.889              2.981             31.193
 Vibrational            150.869             41.647             40.318
 Vibration     1          0.593              1.986              6.765
 Vibration     2          0.594              1.982              5.435
 Vibration     3          0.598              1.968              4.151
 Vibration     4          0.616              1.910              2.764
 Vibration     5          0.620              1.895              2.592
 Vibration     6          0.652              1.795              1.877
 Vibration     7          0.660              1.769              1.759
 Vibration     8          0.664              1.758              1.710
 Vibration     9          0.680              1.711              1.534
 Vibration    10          0.681              1.707              1.522
 Vibration    11          0.702              1.647              1.342
 Vibration    12          0.734              1.557              1.126
 Vibration    13          0.785              1.421              0.883
 Vibration    14          0.786              1.419              0.880
 Vibration    15          0.823              1.326              0.749
 Vibration    16          0.827              1.316              0.737
 Vibration    17          0.884              1.187              0.590
 Vibration    18          0.974              1.002              0.426
 Vibration    19          0.978              0.994              0.420

                           ! Non-Optimized Parameters !
 Normal termination of Gaussian 16 at Mon Dec 14 18:53:30 2020.

 ----------------------------------------------------------------------
 # B3LYP/6-311++G(d,p) empiricaldispersion=gd3bj scf=xqc pop=npa geom=c
 heck
 ----------------------------------------------------------------------

 --------------------------------------
 CID_68047016_JID_3795_Energie_neutraal
 --------------------------------------
 Structure from the checkpoint file:  "JID_3795.chk"
 Charge =  0 Multiplicity = 1

 SCF Done:  E(RB3LYP) =  -537.310731307     A.U. after   14 cycles
 Normal termination of Gaussian 16 at Mon Dec 14 18:56:16 2020.

 ----------------------------------------------------------------------
 # B3LYP/6-311++G(d,p) empiricaldispersion=gd3bj scf=xqc pop=npa geom=c
 heck
 ----------------------------------------------------------------------

 ------------------------------------
 CID_68047016_JID_3795_Energie_kation
 ------------------------------------
 Structure from the checkpoint file:  "JID_3795.chk"
 Charge =  1 Multiplicity = 2

 SCF Done:  E(UB3LYP) =  -537.031806461     A.U. after   22 cycles
 Normal termination of Gaussian 16 at Mon Dec 14 19:02:10 2020.
 Gaussian 16:  ES64L-G16RevA.03 25-Dec-2016

 ----------------------------------------------------------------------
 # B3LYP/6-311++G(d,p) empiricaldispersion=gd3bj scf=xqc pop=npa geom=c
 heck
 ----------------------------------------------------------------------

 -----------------------------------
 CID_68047016_JID_3795_Energie_anion
 -----------------------------------
 Structure from the checkpoint file:  "JID_3795.chk"
 Charge = -1 Multiplicity = 2

                         Standard orientation:
 ---------------------------------------------------------------------
 Center     Atomic      Atomic             Coordinates (Angstroms)
 Number     Number       Type             X           Y           Z
 ---------------------------------------------------------------------
      1          6           0        4.276267   -1.083096    0.008781
      2          6           0        2.932396   -0.398147   -0.007355
      3          6           0        1.744866   -1.133462   -0.009714
      4          6           0        0.557472   -0.411120   -0.003167
      5          6           0        0.579629    1.015680    0.003272
      6          6           0       -0.787200    1.455327    0.006291
      7          6           0       -1.581770    0.335503    0.001695
      8          7           0       -0.766133   -0.794073   -0.005164
      9          6           0       -3.077313    0.208463    0.003104
     10          6           0       -3.589469   -0.491277   -1.269607
     11          6           0       -3.586005   -0.503621    1.270355
     12          7           0        1.721070    1.723408    0.001397
     13          6           0        2.848349    1.011901   -0.004234
     14          1           0        4.501102   -1.507648    0.996062
     15          1           0        5.079745   -0.381129   -0.235802
     16          1           0        4.318329   -1.905793   -0.714517
     17          1           0        1.758877   -2.221385   -0.017053
     18          1           0       -1.132925    2.479185    0.010969
     19          1           0       -1.100263   -1.744887   -0.007541
     20          1           0       -3.470723    1.231960    0.008645
     21          1           0       -3.233742   -1.527750   -1.324709
     22          1           0       -4.684724   -0.518132   -1.280323
     23          1           0       -3.245664    0.028671   -2.169087
     24          1           0       -3.239687    0.007511    2.173917
     25          1           0       -4.681226   -0.530526    1.283833
     26          1           0       -3.230267   -1.540629    1.314363
     27          1           0        3.773273    1.588303   -0.008915
 ---------------------------------------------------------------------

 SCF Done:  E(UB3LYP) =  -537.301145635     A.U. after   33 cycles
 SCF Done:  E(UB3LYP) =  -537.301145635     a.u. after    1 cycles

 The electronic state is 2-A.
 Alpha  occ. eigenvalues --  -14.25010 -14.20004 -10.10903 -10.10633 -10.09385
 Alpha  occ. eigenvalues --  -10.09322 -10.08819 -10.08299 -10.08073 -10.07939
 Alpha  occ. eigenvalues --  -10.06132 -10.05903 -10.05496  -0.88266  -0.82594
 Alpha  occ. eigenvalues --   -0.71849  -0.70481  -0.66854  -0.64640  -0.58824
 Alpha  occ. eigenvalues --   -0.58673  -0.54483  -0.50801  -0.48852  -0.47421
 Alpha  occ. eigenvalues --   -0.42503  -0.39444  -0.38115  -0.35354  -0.34817
 Alpha  occ. eigenvalues --   -0.34137  -0.32745  -0.32421  -0.30833  -0.30424
 Alpha  occ. eigenvalues --   -0.29939  -0.29305  -0.28619  -0.27459  -0.25636
 Alpha  occ. eigenvalues --   -0.24742  -0.24208  -0.23882  -0.19113  -0.15335
 Alpha  occ. eigenvalues --   -0.13115  -0.11366   0.04273
 Alpha virt. eigenvalues --    0.06246   0.06425   0.07404   0.08729   0.08898
 Alpha virt. eigenvalues --    0.08921   0.09688   0.10406   0.10791   0.11158
 Alpha virt. eigenvalues --    0.11789   0.12132   0.12506   0.13148   0.13560

  Beta  occ. eigenvalues --  -14.24956 -14.19969 -10.10885 -10.10634 -10.09383
  Beta  occ. eigenvalues --  -10.09315 -10.08814 -10.08293 -10.08028 -10.07926
  Beta  occ. eigenvalues --  -10.06092 -10.05850 -10.05497  -0.88212  -0.82540
  Beta  occ. eigenvalues --   -0.71804  -0.70442  -0.66787  -0.64603  -0.58782
  Beta  occ. eigenvalues --   -0.58585  -0.54412  -0.50732  -0.48814  -0.47340
  Beta  occ. eigenvalues --   -0.42455  -0.39397  -0.38064  -0.35313  -0.34775
  Beta  occ. eigenvalues --   -0.34073  -0.32699  -0.32386  -0.30801  -0.30353
  Beta  occ. eigenvalues --   -0.29915  -0.29263  -0.28566  -0.27433  -0.25560
  Beta  occ. eigenvalues --   -0.24700  -0.24147  -0.23818  -0.19009  -0.15287
  Beta  occ. eigenvalues --   -0.13034  -0.11288
  Beta virt. eigenvalues --    0.06497   0.06575   0.07106   0.08506   0.09123
  Beta virt. eigenvalues --    0.09253   0.09320   0.09719   0.10842   0.11273
  Beta virt. eigenvalues --    0.11369   0.12005   0.12332   0.13279   0.13502

 Mulliken charges and spin densities:
               1          2
     1  C    0.894446  -1.355257
     2  C    0.513796  -0.062652
     3  C   -0.085600  -0.133593
     4  C    0.709625  -0.729375
     5  C    0.514753  -0.611748
     6  C    0.576991  -0.584845
     7  C    2.645502  -2.681352
     8  N   -0.198402   0.177822
     9  C   -5.604135   5.542605
    10  C    1.080981  -1.703088
    11  C    1.374147  -1.994053
    12  N   -0.047965   0.036322
    13  C   -0.717829   0.140417
    14  H    0.026453   0.131982
    15  H    0.031753   0.095580
    16  H    0.091232   0.049443
    17  H   -1.104355   1.279658
    18  H    0.108307   0.050448
    19  H   -0.010549   0.316417
    20  H   -0.132964   0.312241
    21  H   -0.306878   0.461638
    22  H   -0.508213   0.669487
    23  H    0.041205   0.090737
    24  H    0.009539   0.124779
    25  H   -0.641765   0.804949
    26  H   -0.390256   0.547008
    27  H    0.130179   0.024429
 Sum of Mulliken charges =  -1.00000   1.00000

 Dipole moment (field-independent basis, Debye):
    X=              5.7074    Y=              4.4117    Z=             -0.8920  Tot=              7.2686
 Quadrupole moment (field-independent basis, Debye-Ang):
   XX=           -153.9142   YY=           -125.1867   ZZ=           -106.1980
   XY=            -11.0460   XZ=              1.2692   YZ=              2.0564

 Summary of Natural Population Analysis:

                                       Natural Population
                Natural  -----------------------------------------------
    Atom  No    Charge         Core      Valence    Rydberg      Total
 -----------------------------------------------------------------------
      C    1   -0.28988      0.99964     2.28547    0.00477     3.28988
      C    2   -0.04640      0.99953     2.03764    0.00923     3.04640
      C    3   -0.09332      0.99947     2.08415    0.00970     3.09332
      C    4    0.06632      0.99947     1.92227    0.01194     2.93368
      C    5    0.07197      0.99948     1.91282    0.01573     2.92803
      C    6   -0.15227      0.99945     2.14479    0.00803     3.15227
      C    7    0.11031      0.99952     1.87507    0.01511     2.88969
      N    8   -0.27695      0.99962     2.76706    0.01026     3.77695
      C    9   -0.12894      0.99957     2.11935    0.01002     3.12894
      C   10   -0.27908      0.99965     2.27379    0.00564     3.27908
      C   11   -0.27965      0.99965     2.27424    0.00576     3.27965
      N   12   -0.22702      0.99968     2.71657    0.01077     3.72702
      C   13    0.01402      0.99955     1.97280    0.01364     2.98598
      H   14    0.10255      0.00000     0.39608    0.00137     0.39745
      H   15    0.09907      0.00000     0.39999    0.00094     0.40093
      H   16    0.10166      0.00000     0.39723    0.00111     0.39834
      H   17    0.10539      0.00000     0.39274    0.00187     0.39461
      H   18    0.10637      0.00000     0.39252    0.00111     0.39363
      H   19    0.20881      0.00000     0.28264    0.00855     0.29119
      H   20    0.10067      0.00000     0.39760    0.00173     0.39933
      H   21    0.10015      0.00000     0.39810    0.00175     0.39985
      H   22    0.10073      0.00000     0.39808    0.00119     0.39927
      H   23    0.09966      0.00000     0.39934    0.00100     0.40034
      H   24    0.10045      0.00000     0.39849    0.00106     0.39955
      H   25    0.10159      0.00000     0.39667    0.00174     0.39841
      H   26    0.10068      0.00000     0.39717    0.00214     0.39932
      H   27    0.08308      0.00000     0.41565    0.00127     0.41692
 =======================================================================
   * Total *    0.00000     12.99428    33.84832    0.15739    47.00000

 Normal termination of Gaussian 16 at Mon Dec 14 19:10:43 2020.
