 Gaussian 16, Revision A.03,

 -----------------------------------------------------------
 # opt freq B3LYP/6-31G(d) empiricaldispersion=gd3bj scf=xqc
 -----------------------------------------------------------

 -------------------------------
 CID_141126898_JID_9629_neutraal
 -------------------------------
 Symbolic Z-matrix:
 Charge =  0 Multiplicity = 1

 SCF Done:  E(RB3LYP) =  -771.819400101     A.U. after   14 cycles
 SCF Done:  E(RB3LYP) =  -771.825884034     A.U. after   12 cycles
 SCF Done:  E(RB3LYP) =  -771.829903834     A.U. after   12 cycles
 SCF Done:  E(RB3LYP) =  -771.830861588     A.U. after   12 cycles
 SCF Done:  E(RB3LYP) =  -771.831059441     A.U. after   11 cycles
 SCF Done:  E(RB3LYP) =  -771.831193478     A.U. after   10 cycles
 SCF Done:  E(RB3LYP) =  -771.831214947     A.U. after    9 cycles
 SCF Done:  E(RB3LYP) =  -771.831217572     A.U. after    8 cycles
 SCF Done:  E(RB3LYP) =  -771.831218413     A.U. after    8 cycles
 SCF Done:  E(RB3LYP) =  -771.831218647     A.U. after    8 cycles
 SCF Done:  E(RB3LYP) =  -771.831218699     A.U. after    7 cycles
 Optimization completed.
    -- Stationary point found.
 Normal termination of Gaussian 16 at Mon Dec 14 16:48:10 2020.

 --------------------------------------------------------------------
 #N Geom=AllCheck Guess=TCheck SCRF=Check GenChk RB3LYP/6-31G(d) Freq
 --------------------------------------------------------------------

 Structure from the checkpoint file:  "JID_9629.chk"
 -------------------------------
 CID_141126898_JID_9629_neutraal
 -------------------------------
 Charge =  0 Multiplicity = 1

 SCF Done:  E(RB3LYP) =  -771.831218699     A.U. after    1 cycles

  Exact polarizability: 236.792   8.314 163.220   4.530  -6.283 162.363
 Approx polarizability: 307.527  14.506 240.606   9.963 -14.810 271.682

                      1                      2                      3
                      A                      A                      A
 Frequencies --     33.7091                37.4663                48.5030
 Red. masses --      3.8698                 3.8562                 2.9209
 Frc consts  --      0.0026                 0.0032                 0.0040
 IR Inten    --      0.1396                 0.0170                 0.1505

                      4                      5                      6
                      A                      A                      A
 Frequencies --     82.7386               100.4525               140.5906
 Red. masses --      3.6075                 3.5534                 3.0738
 Frc consts  --      0.0146                 0.0211                 0.0358
 IR Inten    --      0.3663                 0.5685                 0.9347

                      7                      8                      9
                      A                      A                      A
 Frequencies --    161.2816               203.6511               219.1525
 Red. masses --      2.8429                 2.6363                 1.1896
 Frc consts  --      0.0436                 0.0644                 0.0337
 IR Inten    --      0.4291                 1.9346                 0.3638

                     10                     11                     12
                      A                      A                      A
 Frequencies --    251.9538               255.5432               260.4338
 Red. masses --      2.9256                 3.0591                 1.0985
 Frc consts  --      0.1094                 0.1177                 0.0439
 IR Inten    --      0.2552                 1.9579                 0.2751

                     13                     14                     15
                      A                      A                      A
 Frequencies --    280.2092               308.0382               309.7036
 Red. masses --      1.4302                 2.7283                 2.5268
 Frc consts  --      0.0662                 0.1525                 0.1428
 IR Inten    --      0.9694                 9.3231                 0.4065

                     16                     17                     18
                      A                      A                      A
 Frequencies --    319.6945               326.8272               373.4757
 Red. masses --      1.7754                 2.6010                 2.1399
 Frc consts  --      0.1069                 0.1637                 0.1759
 IR Inten    --      0.6027                 1.9924                 1.2400

                     19                     20                     21
                      A                      A                      A
 Frequencies --    387.0776               396.6468               416.6763
 Red. masses --      2.5997                 2.8381                 3.0411
 Frc consts  --      0.2295                 0.2631                 0.3111
 IR Inten    --      0.2083                 0.0371                 0.0651

                     22                     23                     24
                      A                      A                      A
 Frequencies --    468.6465               476.8402               491.8437
 Red. masses --      3.2849                 2.6609                 3.7405
 Frc consts  --      0.4251                 0.3565                 0.5331
 IR Inten    --      0.8006                 1.1376                 3.5905

                     25                     26                     27
                      A                      A                      A
 Frequencies --    516.8575               548.3945               588.2393
 Red. masses --      3.0709                 3.4574                 3.2843
 Frc consts  --      0.4833                 0.6126                 0.6696
 IR Inten    --     16.2392                 2.1026                 6.2552

                     28                     29                     30
                      A                      A                      A
 Frequencies --    622.7358               635.2952               656.2693
 Red. masses --      4.2006                 5.4456                 3.2913
 Frc consts  --      0.9598                 1.2949                 0.8352
 IR Inten    --     10.2717                 5.2589                18.4727

                     31                     32                     33
                      A                      A                      A
 Frequencies --    717.8604               721.0404               743.0992
 Red. masses --      1.8953                 3.6121                 1.6834
 Frc consts  --      0.5755                 1.1064                 0.5477
 IR Inten    --     23.8378                13.7041                45.3605

                     34                     35                     36
                      A                      A                      A
 Frequencies --    767.0860               786.0937               807.7897
 Red. masses --      1.8553                 2.7188                 2.7869
 Frc consts  --      0.6432                 0.9898                 1.0714
 IR Inten    --     13.0129                 9.4926                 7.6784

                     37                     38                     39
                      A                      A                      A
 Frequencies --    818.1376               865.3316               877.7778
 Red. masses --      2.6891                 1.2523                 2.5671
 Frc consts  --      1.0605                 0.5525                 1.1654
 IR Inten    --      1.4316                 0.0303                 2.8927

                     40                     41                     42
                      A                      A                      A
 Frequencies --    916.3525               923.5215               926.5199
 Red. masses --      2.2250                 1.5625                 1.8570
 Frc consts  --      1.1008                 0.7852                 0.9392
 IR Inten    --      5.8627                 0.5662                 4.4917

                     43                     44                     45
                      A                      A                      A
 Frequencies --    934.3182               943.3539               956.2507
 Red. masses --      1.8453                 1.6730                 2.3530
 Frc consts  --      0.9491                 0.8772                 1.2677
 IR Inten    --      6.8438                 0.3524                 1.1251

                     46                     47                     48
                      A                      A                      A
 Frequencies --    971.7844               972.7251               976.5154
 Red. masses --      1.5928                 1.2094                 1.7113
 Frc consts  --      0.8862                 0.6742                 0.9615
 IR Inten    --      1.3094                 0.0966                 2.5831

                     49                     50                     51
                      A                      A                      A
 Frequencies --    999.4123              1022.5769              1051.6419
 Red. masses --      1.2758                 6.2177                 1.5353
 Frc consts  --      0.7508                 3.8307                 1.0004
 IR Inten    --      1.5123                 0.1769                 1.4892

                     52                     53                     54
                      A                      A                      A
 Frequencies --   1057.0829              1061.8579              1072.2822
 Red. masses --      1.4236                 2.3344                 2.0890
 Frc consts  --      0.9372                 1.5508                 1.4151
 IR Inten    --      0.4746                 8.9032                25.1977

                     55                     56                     57
                      A                      A                      A
 Frequencies --   1076.6656              1100.6957              1116.4954
 Red. masses --      1.8250                 2.5070                 1.6738
 Frc consts  --      1.2465                 1.7896                 1.2293
 IR Inten    --     37.9106                12.2273                 2.5992

                     58                     59                     60
                      A                      A                      A
 Frequencies --   1124.4951              1136.8836              1185.0874
 Red. masses --      1.6796                 1.9920                 2.6547
 Frc consts  --      1.2513                 1.5170                 2.1966
 IR Inten    --     14.1674                12.5621                99.1375

                     61                     62                     63
                      A                      A                      A
 Frequencies --   1192.8514              1202.4463              1207.2325
 Red. masses --      1.0978                 1.8540                 1.6342
 Frc consts  --      0.9203                 1.5794                 1.4032
 IR Inten    --      0.2362                 5.1915                10.3385

                     64                     65                     66
                      A                      A                      A
 Frequencies --   1211.0209              1220.1274              1237.7497
 Red. masses --      2.6333                 1.1487                 1.3450
 Frc consts  --      2.2754                 1.0075                 1.2141
 IR Inten    --      4.8236                 2.9638                 6.6991

                     67                     68                     69
                      A                      A                      A
 Frequencies --   1246.3203              1247.0162              1266.1922
 Red. masses --      1.9310                 1.7157                 2.3803
 Frc consts  --      1.7672                 1.5719                 2.2485
 IR Inten    --     14.5843                16.2372                25.0434

                     70                     71                     72
                      A                      A                      A
 Frequencies --   1284.0649              1300.5312              1303.3414
 Red. masses --      1.8835                 2.1739                 1.9314
 Frc consts  --      1.8297                 2.1663                 1.9330
 IR Inten    --    115.0681                 2.9312                 9.5174

                     73                     74                     75
                      A                      A                      A
 Frequencies --   1316.8536              1336.3798              1356.3295
 Red. masses --      1.3744                 1.9199                 2.2352
 Frc consts  --      1.4042                 2.0202                 2.4227
 IR Inten    --      6.4184                27.9483                31.7303

                     76                     77                     78
                      A                      A                      A
 Frequencies --   1370.9835              1380.4290              1392.4162
 Red. masses --      2.3160                 1.3601                 1.7034
 Frc consts  --      2.5648                 1.5270                 1.9458
 IR Inten    --      5.2808                 6.2762                 6.0901

                     79                     80                     81
                      A                      A                      A
 Frequencies --   1406.1994              1415.5625              1422.0192
 Red. masses --      1.4502                 1.5167                 1.2551
 Frc consts  --      1.6896                 1.7907                 1.4953
 IR Inten    --      7.3556                41.3643                11.9786

                     82                     83                     84
                      A                      A                      A
 Frequencies --   1426.4248              1452.7975              1469.0811
 Red. masses --      1.2787                 1.2379                 1.5424
 Frc consts  --      1.5329                 1.5394                 1.9613
 IR Inten    --     15.0790                 8.7337                21.8836

                     85                     86                     87
                      A                      A                      A
 Frequencies --   1501.9544              1508.3559              1511.8639
 Red. masses --      2.2241                 1.0540                 1.0884
 Frc consts  --      2.9562                 1.4129                 1.4658
 IR Inten    --      5.0295                 0.8208                 6.1165

                     88                     89                     90
                      A                      A                      A
 Frequencies --   1514.1429              1518.9617              1521.7350
 Red. masses --      1.0483                 1.1050                 1.0464
 Frc consts  --      1.4160                 1.5021                 1.4277
 IR Inten    --      1.0476                 4.0046                 0.0650

                     91                     92                     93
                      A                      A                      A
 Frequencies --   1531.7058              1536.5128              1542.9870
 Red. masses --      1.0557                 1.0613                 1.1459
 Frc consts  --      1.4593                 1.4763                 1.6074
 IR Inten    --      5.5877                 2.8268                 0.6739

                     94                     95                     96
                      A                      A                      A
 Frequencies --   1547.5200              1551.0504              1567.6602
 Red. masses --      1.9804                 1.0593                 1.0998
 Frc consts  --      2.7943                 1.5015                 1.5924
 IR Inten    --     19.8856                 3.8937                 3.4397

                     97                     98                     99
                      A                      A                      A
 Frequencies --   1644.5134              1665.7867              1736.2535
 Red. masses --      5.5258                 5.4593                 8.0233
 Frc consts  --      8.8048                 8.9254                14.2504
 IR Inten    --      1.7005                 9.8926                14.3058

                    100                    101                    102
                      A                      A                      A
 Frequencies --   2820.8094              2915.2959              3036.8440
 Red. masses --      1.0743                 1.0737                 1.0671
 Frc consts  --      5.0363                 5.3767                 5.7983
 IR Inten    --    123.6594                95.5324                23.2205

                    103                    104                    105
                      A                      A                      A
 Frequencies --   3050.7133              3053.6978              3054.9213
 Red. masses --      1.0348                 1.0353                 1.0823
 Frc consts  --      5.6741                 5.6883                 5.9508
 IR Inten    --     17.1341                18.5687                31.8891

                    106                    107                    108
                      A                      A                      A
 Frequencies --   3057.6328              3060.5458              3068.9088
 Red. masses --      1.0682                 1.0374                 1.0810
 Frc consts  --      5.8840                 5.7253                 5.9985
 IR Inten    --      7.9863                15.2191                27.0862

                    109                    110                    111
                      A                      A                      A
 Frequencies --   3071.1809              3095.2757              3103.6635
 Red. masses --      1.0828                 1.0978                 1.1052
 Frc consts  --      6.0176                 6.1971                 6.2723
 IR Inten    --     92.0797                41.0312                43.5357

                    112                    113                    114
                      A                      A                      A
 Frequencies --   3117.6591              3120.6203              3125.0164
 Red. masses --      1.1021                 1.1025                 1.1018
 Frc consts  --      6.3113                 6.3257                 6.3394
 IR Inten    --      6.4051                 2.0045                37.1193

                    115                    116                    117
                      A                      A                      A
 Frequencies --   3126.4288              3130.0452              3136.2310
 Red. masses --      1.1024                 1.1025                 1.1030
 Frc consts  --      6.3485                 6.3640                 6.3921
 IR Inten    --     45.2129                45.3962                40.9951

                    118                    119                    120
                      A                      A                      A
 Frequencies --   3165.9311              3180.5645              3190.8593
 Red. masses --      1.0868                 1.0864                 1.0917
 Frc consts  --      6.4181                 6.4754                 6.5489
 IR Inten    --     10.9160                 0.5486                34.8948

                    121                    122                    123
                      A                      A                      A
 Frequencies --   3204.8398              3217.4238              3276.1714
 Red. masses --      1.0961                 1.0936                 1.0956
 Frc consts  --      6.6332                 6.6698                 6.9287
 IR Inten    --     33.9400                 7.8078                 4.6162

 - Thermochemistry -
 -------------------
 Temperature   298.150 Kelvin.  Pressure   1.00000 Atm.
 Atom     1 has atomic number  6 and mass  12.00000

 Molecular mass:   256.19395 amu.
 Principal axes and moments of inertia in atomic units:
                           1         2         3
     Eigenvalues --  2563.881198196.808589173.38395
           X            0.99995  -0.01003   0.00046
           Y            0.01002   0.99994   0.00325
           Z           -0.00049  -0.00325   0.99999
 This molecule is an asymmetric top.
 Rotational symmetry number  1.
 Warning -- assumption of classical behavior for rotation
           may cause significant error
 Rotational temperatures (Kelvin)      0.03378     0.01057     0.00944
 Rotational constants (GHZ):           0.70391     0.22018     0.19674
 Zero-point vibrational energy    1004841.2 (Joules/Mol)
                                  240.16282 (Kcal/Mol)
 Warning -- explicit consideration of  27 degrees of freedom as
           vibrations may cause significant error
 Vibrational temperatures:     48.50    53.91    69.78   119.04   144.53
          (Kelvin)            202.28   232.05   293.01   315.31   362.51
                              367.67   374.71   403.16   443.20   445.59
                              459.97   470.23   537.35   556.92   570.69
                              599.50   674.28   686.07   707.65   743.64
                              789.02   846.35   895.98   914.05   944.23
                             1032.84  1037.42  1069.15  1103.67  1131.01
                             1162.23  1177.12  1245.02  1262.93  1318.43
                             1328.74  1333.06  1344.28  1357.28  1375.83
                             1398.18  1399.53  1404.99  1437.93  1471.26
                             1513.08  1520.91  1527.78  1542.77  1549.08
                             1583.66  1606.39  1617.90  1635.72  1705.08
                             1716.25  1730.05  1736.94  1742.39  1755.49
                             1780.85  1793.18  1794.18  1821.77  1847.48
                             1871.17  1875.22  1894.66  1922.75  1951.46
                             1972.54  1986.13  2003.38  2023.21  2036.68
                             2045.97  2052.31  2090.25  2113.68  2160.98
                             2170.19  2175.23  2178.51  2185.45  2189.44
                             2203.78  2210.70  2220.01  2226.54  2231.62
                             2255.51  2366.09  2396.70  2498.08  4058.52
                             4194.46  4369.34  4389.30  4393.59  4395.35
                             4399.25  4403.44  4415.48  4418.74  4453.41
                             4465.48  4485.62  4489.88  4496.20  4498.23
                             4503.44  4512.34  4555.07  4576.12  4590.93
                             4611.05  4629.16  4713.68

 Zero-point correction=                           0.382724 (Hartree/Particle)
 Thermal correction to Energy=                    0.400257
 Thermal correction to Enthalpy=                  0.401201
 Thermal correction to Gibbs Free Energy=         0.337472
 Sum of electronic and zero-point Energies=           -771.448495
 Sum of electronic and thermal Energies=              -771.430962
 Sum of electronic and thermal Enthalpies=            -771.430018
 Sum of electronic and thermal Free Energies=         -771.493747

                     E (Thermal)             CV                S
                      KCal/Mol        Cal/Mol-Kelvin    Cal/Mol-Kelvin
 Total                  251.165             70.862            134.130
 Electronic               0.000              0.000              0.000
 Translational            0.889              2.981             42.522
 Rotational               0.889              2.981             33.621
 Vibrational            249.387             64.901             57.986
 Vibration     1          0.594              1.983              5.598
 Vibration     2          0.594              1.982              5.389
 Vibration     3          0.595              1.978              4.878
 Vibration     4          0.600              1.961              3.825
 Vibration     5          0.604              1.949              3.446
 Vibration     6          0.615              1.913              2.796
 Vibration     7          0.622              1.890              2.535
 Vibration     8          0.639              1.835              2.100
 Vibration     9          0.647              1.812              1.966
 Vibration    10          0.664              1.759              1.717
 Vibration    11          0.666              1.753              1.692
 Vibration    12          0.668              1.745              1.659
 Vibration    13          0.680              1.710              1.532
 Vibration    14          0.698              1.658              1.373
 Vibration    15          0.699              1.655              1.364
 Vibration    16          0.706              1.636              1.312
 Vibration    17          0.710              1.622              1.276
 Vibration    18          0.745              1.527              1.065
 Vibration    19          0.756              1.498              1.011
 Vibration    20          0.763              1.477              0.975
 Vibration    21          0.780              1.434              0.903
 Vibration    22          0.826              1.320              0.741
 Vibration    23          0.833              1.301              0.719
 Vibration    24          0.848              1.268              0.679
 Vibration    25          0.872              1.213              0.617
 Vibration    26          0.904              1.143              0.548
 Vibration    27          0.945              1.057              0.470

 Optimization completed.
    -- Stationary point found.
 Normal termination of Gaussian 16 at Mon Dec 14 17:12:22 2020.

 ----------------------------------------------------------------------
 # B3LYP/6-311++G(d,p) empiricaldispersion=gd3bj scf=xqc pop=npa geom=c
 heck
 ----------------------------------------------------------------------

 ---------------------------------------
 CID_141126898_JID_9629_Energie_neutraal
 ---------------------------------------
 Structure from the checkpoint file:  "JID_9629.chk"
 Charge =  0 Multiplicity = 1

 SCF Done:  E(RB3LYP) =  -772.032645775     A.U. after   15 cycles
 Normal termination of Gaussian 16 at Mon Dec 14 17:24:02 2020.

 ----------------------------------------------------------------------
 # B3LYP/6-311++G(d,p) empiricaldispersion=gd3bj scf=xqc pop=npa geom=c
 heck
 ----------------------------------------------------------------------

 -------------------------------------
 CID_141126898_JID_9629_Energie_kation
 -------------------------------------
 Structure from the checkpoint file:  "JID_9629.chk"
 Charge =  1 Multiplicity = 2

 SCF Done:  E(UB3LYP) =  -771.804785475     A.U. after   23 cycles
 Normal termination of Gaussian 16 at Mon Dec 14 17:49:47 2020.
 Gaussian 16:  ES64L-G16RevA.03 25-Dec-2016

 ----------------------------------------------------------------------
 # B3LYP/6-311++G(d,p) empiricaldispersion=gd3bj scf=xqc pop=npa geom=c
 heck
 ----------------------------------------------------------------------

 ------------------------------------
 CID_141126898_JID_9629_Energie_anion
 ------------------------------------
 Structure from the checkpoint file:  "JID_9629.chk"
 Charge = -1 Multiplicity = 2

                         Standard orientation:
 ---------------------------------------------------------------------
 Center     Atomic      Atomic             Coordinates (Angstroms)
 Number     Number       Type             X           Y           Z
 ---------------------------------------------------------------------
      1          6           0        3.577876   -2.225928   -0.600897
      2          6           0        3.516510   -0.770495   -0.111541
      3          6           0        4.395744   -0.637774    1.141154
      4          6           0        4.026185    0.172494   -1.219989
      5          7           0        2.117279   -0.476189    0.274558
      6          6           0        1.868582    0.783010    0.994309
      7          7           0        0.449891    1.055490    0.750654
      8          6           0        0.069110    2.460741    0.820904
      9          6           0       -1.375049    2.645559    0.352998
     10          6           0       -1.566548    2.063606   -1.051254
     11          6           0       -1.218605    0.551365   -1.076238
     12          6           0        0.129739    0.355122   -0.451100
     13          6           0        1.103428   -0.525210   -0.719064
     14          6           0       -2.326013   -0.271804   -0.420681
     15          6           0       -2.229770   -0.749615    0.891264
     16          6           0       -3.277564   -1.476226    1.459108
     17          6           0       -4.434083   -1.740637    0.725161
     18          6           0       -4.537033   -1.272626   -0.585928
     19          6           0       -3.490269   -0.544965   -1.149991
     20          1           0        4.616486   -2.514254   -0.794963
     21          1           0        3.020008   -2.367272   -1.532097
     22          1           0        3.160851   -2.897950    0.155572
     23          1           0        5.419818   -0.952561    0.915946
     24          1           0        4.440384    0.396122    1.499518
     25          1           0        4.007779   -1.268111    1.948242
     26          1           0        3.401017    0.085955   -2.114909
     27          1           0        4.007105    1.219201   -0.898144
     28          1           0        5.058015   -0.073993   -1.493443
     29          1           0        2.081953    0.689392    2.064247
     30          1           0        2.488845    1.618540    0.591331
     31          1           0        0.744132    3.076424    0.192327
     32          1           0        0.187868    2.804988    1.855337
     33          1           0       -1.621935    3.713251    0.361744
     34          1           0       -2.053016    2.146691    1.055201
     35          1           0       -2.596126    2.211451   -1.394212
     36          1           0       -0.904536    2.587930   -1.753714
     37          1           0       -1.152317    0.234396   -2.123954
     38          1           0        1.096648   -1.306131   -1.464836
     39          1           0       -1.330682   -0.544107    1.462702
     40          1           0       -3.186391   -1.839604    2.479384
     41          1           0       -5.246842   -2.309487    1.168312
     42          1           0       -5.429251   -1.479255   -1.171162
     43          1           0       -3.573443   -0.186428   -2.174203
 ---------------------------------------------------------------------

 SCF Done:  E(UB3LYP) =  -772.018676146     A.U. after   33 cycles
 SCF Done:  E(UB3LYP) =  -772.018676145     a.u. after    1 cycles

 The electronic state is 2-A.
 Alpha  occ. eigenvalues --  -14.22562 -14.22257 -10.13134 -10.12356 -10.10633
 Alpha  occ. eigenvalues --  -10.09641 -10.09350 -10.09202 -10.08687 -10.08670
 Alpha  occ. eigenvalues --  -10.08622 -10.08561 -10.08325 -10.08037 -10.07913
 Alpha  occ. eigenvalues --  -10.07867 -10.06910 -10.06871 -10.06374  -0.89087
 Alpha  occ. eigenvalues --   -0.81085  -0.77113  -0.72288  -0.71016  -0.67186
 Alpha  occ. eigenvalues --   -0.65783  -0.65098  -0.61935  -0.59800  -0.59542
 Alpha  occ. eigenvalues --   -0.56478  -0.53294  -0.52250  -0.50518  -0.49817
 Alpha  occ. eigenvalues --   -0.45545  -0.44844  -0.42382  -0.41191  -0.38918
 Alpha  occ. eigenvalues --   -0.37989  -0.37392  -0.36939  -0.36130  -0.35150
 Alpha  occ. eigenvalues --   -0.34913  -0.33966  -0.33254  -0.32718  -0.32053
 Alpha  occ. eigenvalues --   -0.31398  -0.31174  -0.30505  -0.29455  -0.29142
 Alpha  occ. eigenvalues --   -0.28020  -0.27687  -0.27092  -0.26465  -0.25550
 Alpha  occ. eigenvalues --   -0.25443  -0.25080  -0.24119  -0.23659  -0.23194
 Alpha  occ. eigenvalues --   -0.20970  -0.16932  -0.16569  -0.15799  -0.07452
 Alpha  occ. eigenvalues --    0.04022
 Alpha virt. eigenvalues --    0.05480   0.06194   0.06449   0.07225   0.07493
 Alpha virt. eigenvalues --    0.07586   0.07763   0.08020   0.08469   0.09029
 Alpha virt. eigenvalues --    0.09534   0.09937   0.10085   0.10332   0.11014

  Beta  occ. eigenvalues --  -14.22555 -14.22252 -10.13119 -10.12351 -10.10617
  Beta  occ. eigenvalues --  -10.09635 -10.09351 -10.09200 -10.08677 -10.08660
  Beta  occ. eigenvalues --  -10.08617 -10.08553 -10.08313 -10.08023 -10.07904
  Beta  occ. eigenvalues --  -10.07864 -10.06885 -10.06851 -10.06348  -0.89074
  Beta  occ. eigenvalues --   -0.81072  -0.77098  -0.72269  -0.70998  -0.67163
  Beta  occ. eigenvalues --   -0.65763  -0.65079  -0.61906  -0.59755  -0.59503
  Beta  occ. eigenvalues --   -0.56452  -0.53260  -0.52225  -0.50491  -0.49790
  Beta  occ. eigenvalues --   -0.45506  -0.44816  -0.42344  -0.41159  -0.38897
  Beta  occ. eigenvalues --   -0.37961  -0.37375  -0.36913  -0.36106  -0.35123
  Beta  occ. eigenvalues --   -0.34885  -0.33944  -0.33232  -0.32698  -0.32024
  Beta  occ. eigenvalues --   -0.31371  -0.31148  -0.30478  -0.29426  -0.29116
  Beta  occ. eigenvalues --   -0.28000  -0.27663  -0.27067  -0.26443  -0.25530
  Beta  occ. eigenvalues --   -0.25420  -0.25056  -0.24097  -0.23634  -0.23171
  Beta  occ. eigenvalues --   -0.20947  -0.16906  -0.16554  -0.15782  -0.07421
  Beta virt. eigenvalues --    0.05810   0.06256   0.06772   0.06846   0.07340
  Beta virt. eigenvalues --    0.07589   0.07984   0.08164   0.08426   0.08829
  Beta virt. eigenvalues --    0.09300   0.09778   0.10202   0.10391   0.10658

 Mulliken charges and spin densities:
               1          2
     1  C    0.066358  -0.484801
     2  C   -1.708987   1.549800
     3  C    0.172376  -0.604652
     4  C    1.103082  -1.614895
     5  N    0.378035  -0.026406
     6  C    0.149004  -0.473664
     7  N    0.260579   0.024208
     8  C    0.756806  -0.855823
     9  C   -1.019088   0.482669
    10  C    1.051688  -1.584673
    11  C   -0.147044   0.086404
    12  C    0.059286  -0.139055
    13  C   -0.214339  -0.191929
    14  C    0.466007   0.546306
    15  C   -1.084852   0.171664
    16  C   -0.469882   0.236849
    17  C    0.418054  -0.788644
    18  C    0.343843  -0.751439
    19  C   -0.055188   0.139496
    20  H   -0.149719   0.310470
    21  H   -0.155419   0.289383
    22  H    0.100644   0.048251
    23  H   -0.239577   0.391558
    24  H   -0.217254   0.364609
    25  H    0.010199   0.148443
    26  H   -0.016379   0.194576
    27  H   -0.147247   0.273038
    28  H   -0.132151   0.294237
    29  H    0.031851   0.156155
    30  H    0.066451   0.035140
    31  H    0.004300   0.094665
    32  H   -0.199963   0.362770
    33  H   -0.212334   0.409400
    34  H    0.244898  -0.118065
    35  H   -0.039889   0.205302
    36  H   -0.002728   0.130510
    37  H   -0.114630   0.348935
    38  H    0.133037   0.020687
    39  H    0.214878  -0.028610
    40  H   -0.033566   0.210764
    41  H   -0.041755   0.179240
    42  H   -0.346825   0.517767
    43  H   -0.282560   0.439360
 Sum of Mulliken charges =  -1.00000   1.00000

 Dipole moment (field-independent basis, Debye):
    X=             -2.1558    Y=             -0.3666    Z=              1.7568  Tot=              2.8050
 Quadrupole moment (field-independent basis, Debye-Ang):
   XX=           -222.5112   YY=           -165.1147   ZZ=           -157.1906
   XY=             -1.0152   XZ=             -5.2778   YZ=             -0.8550

 Summary of Natural Population Analysis:

                                       Natural Population
                Natural  -----------------------------------------------
    Atom  No    Charge         Core      Valence    Rydberg      Total
 -----------------------------------------------------------------------
      C    1   -0.28679      0.99961     2.28008    0.00709     3.28679
      C    2    0.06509      0.99958     1.92109    0.01423     2.93491
      C    3   -0.28946      0.99962     2.28274    0.00710     3.28946
      C    4   -0.29693      0.99961     2.29044    0.00688     3.29693
      N    5   -0.27301      0.99968     2.76032    0.01302     3.77301
      C    6    0.02685      0.99962     1.96132    0.01220     2.97315
      N    7   -0.27373      0.99967     2.76259    0.01148     3.77373
      C    8   -0.07840      0.99961     2.06773    0.01107     3.07840
      C    9   -0.19791      0.99962     2.19013    0.00816     3.19791
      C   10   -0.17971      0.99961     2.17151    0.00859     3.17971
      C   11   -0.13296      0.99952     2.12007    0.01337     3.13296
      C   12    0.06686      0.99948     1.91943    0.01423     2.93314
      C   13   -0.01974      0.99941     2.00948    0.01084     3.01974
      C   14   -0.00478      0.99949     1.99357    0.01172     3.00478
      C   15   -0.10475      0.99950     2.09592    0.00933     3.10475
      C   16   -0.09991      0.99956     2.09111    0.00924     3.09991
      C   17   -0.10863      0.99956     2.09959    0.00948     3.10863
      C   18   -0.10097      0.99956     2.09114    0.01027     3.10097
      C   19   -0.10148      0.99951     2.09236    0.00961     3.10148
      H   20    0.10110      0.00000     0.39806    0.00085     0.39890
      H   21    0.09937      0.00000     0.39964    0.00099     0.40063
      H   22    0.10381      0.00000     0.39502    0.00117     0.39619
      H   23    0.10275      0.00000     0.39633    0.00093     0.39725
      H   24    0.10179      0.00000     0.39718    0.00103     0.39821
      H   25    0.10315      0.00000     0.39580    0.00106     0.39685
      H   26    0.10355      0.00000     0.39534    0.00110     0.39645
      H   27    0.10160      0.00000     0.39711    0.00129     0.39840
      H   28    0.10173      0.00000     0.39723    0.00104     0.39827
      H   29    0.09174      0.00000     0.40628    0.00199     0.40826
      H   30    0.07021      0.00000     0.42761    0.00218     0.42979
      H   31    0.08144      0.00000     0.41653    0.00203     0.41856
      H   32    0.09575      0.00000     0.40309    0.00116     0.40425
      H   33    0.10194      0.00000     0.39718    0.00087     0.39806
      H   34    0.10097      0.00000     0.39750    0.00153     0.39903
      H   35    0.10198      0.00000     0.39694    0.00109     0.39802
      H   36    0.09878      0.00000     0.39972    0.00150     0.40122
      H   37    0.11242      0.00000     0.38586    0.00173     0.38758
      H   38    0.10467      0.00000     0.39410    0.00123     0.39533
      H   39    0.11244      0.00000     0.38506    0.00250     0.38756
      H   40    0.09889      0.00000     0.40024    0.00087     0.40111
      H   41    0.09908      0.00000     0.40011    0.00081     0.40092
      H   42    0.10069      0.00000     0.39825    0.00106     0.39931
      H   43    0.10052      0.00000     0.39772    0.00175     0.39948
 =======================================================================
   * Total *   -0.00000     18.99183    50.77852    0.22964    70.00000

 Normal termination of Gaussian 16 at Mon Dec 14 18:26:41 2020.
