 Gaussian 16, Revision A.03,

 -----------------------------------------------------------
 # opt freq B3LYP/6-31G(d) empiricaldispersion=gd3bj scf=xqc
 -----------------------------------------------------------

 ------------------------------
 CID_10798939_JID_6666_neutraal
 ------------------------------
 Symbolic Z-matrix:
 Charge =  0 Multiplicity = 1

 SCF Done:  E(RB3LYP) =  -757.720307688     A.U. after   15 cycles
 SCF Done:  E(RB3LYP) =  -757.725369645     A.U. after   13 cycles
 SCF Done:  E(RB3LYP) =  -757.725738215     A.U. after   12 cycles
 SCF Done:  E(RB3LYP) =  -757.725057197     A.U. after   13 cycles
 SCF Done:  E(RB3LYP) =  -757.725856110     A.U. after   12 cycles
 SCF Done:  E(RB3LYP) =  -757.725929465     A.U. after   10 cycles
 SCF Done:  E(RB3LYP) =  -757.726003436     A.U. after   12 cycles
 SCF Done:  E(RB3LYP) =  -757.726058781     A.U. after   12 cycles
 SCF Done:  E(RB3LYP) =  -757.726070152     A.U. after   12 cycles
 SCF Done:  E(RB3LYP) =  -757.726064872     A.U. after    9 cycles
 SCF Done:  E(RB3LYP) =  -757.728028341     A.U. after   12 cycles
 SCF Done:  E(RB3LYP) =  -757.728064386     A.U. after   12 cycles
 SCF Done:  E(RB3LYP) =  -757.728032330     A.U. after   12 cycles
 SCF Done:  E(RB3LYP) =  -757.728069886     A.U. after   12 cycles
 SCF Done:  E(RB3LYP) =  -757.728070223     A.U. after    8 cycles
 SCF Done:  E(RB3LYP) =  -757.728070310     A.U. after    8 cycles
 Optimization completed.
    -- Stationary point found.
 Normal termination of Gaussian 16 at Fri Dec 11 00:24:07 2020.

 --------------------------------------------------------------------
 #N Geom=AllCheck Guess=TCheck SCRF=Check GenChk RB3LYP/6-31G(d) Freq
 --------------------------------------------------------------------

 Structure from the checkpoint file:  "JID_6666.chk"
 ------------------------------
 CID_10798939_JID_6666_neutraal
 ------------------------------
 Charge =  0 Multiplicity = 1

 SCF Done:  E(RB3LYP) =  -757.728070310     A.U. after    1 cycles

  Exact polarizability: 248.144  -2.515 135.500  -6.180  -7.797  69.571
 Approx polarizability: 362.780  -9.676 257.884 -15.508 -21.853 104.900

                      1                      2                      3
                      A                      A                      A
 Frequencies --     39.3973                46.3706                68.5638
 Red. masses --      4.4453                 3.1733                 8.2721
 Frc consts  --      0.0041                 0.0040                 0.0229
 IR Inten    --      1.8340                 0.1130                 0.8922

                      4                      5                      6
                      A                      A                      A
 Frequencies --     86.6012               104.9139               185.4586
 Red. masses --      3.9992                 5.8818                 6.0163
 Frc consts  --      0.0177                 0.0381                 0.1219
 IR Inten    --      0.1662                 1.4715                16.3223

                      7                      8                      9
                      A                      A                      A
 Frequencies --    205.0910               235.3625               264.1405
 Red. masses --      5.1082                 1.0259                 1.3895
 Frc consts  --      0.1266                 0.0335                 0.0571
 IR Inten    --      0.8597                 0.1162                 0.9901

                     10                     11                     12
                      A                      A                      A
 Frequencies --    269.9351               280.3897               330.1278
 Red. masses --      5.4695                 2.6678                 2.6893
 Frc consts  --      0.2348                 0.1236                 0.1727
 IR Inten    --      2.2563                 0.2905                16.4900

                     13                     14                     15
                      A                      A                      A
 Frequencies --    354.1361               365.6695               373.1860
 Red. masses --      2.1275                 2.7405                 3.1661
 Frc consts  --      0.1572                 0.2159                 0.2598
 IR Inten    --     52.7416                14.9618                14.6895

                     16                     17                     18
                      A                      A                      A
 Frequencies --    428.4939               442.6126               464.5198
 Red. masses --      3.4139                 2.9812                 2.2974
 Frc consts  --      0.3693                 0.3441                 0.2921
 IR Inten    --      1.1758                 6.8336                 2.3979

                     19                     20                     21
                      A                      A                      A
 Frequencies --    502.9207               559.6374               568.1958
 Red. masses --      4.2964                 5.7583                 1.8474
 Frc consts  --      0.6403                 1.0626                 0.3514
 IR Inten    --     23.9838                 1.4633               147.3893

                     22                     23                     24
                      A                      A                      A
 Frequencies --    583.7567               632.2107               705.3742
 Red. masses --      4.1595                 3.9189                 7.7334
 Frc consts  --      0.8351                 0.9229                 2.2670
 IR Inten    --      7.7304                15.0297                18.9095

                     25                     26                     27
                      A                      A                      A
 Frequencies --    730.9983               741.8007               756.7683
 Red. masses --      6.5384                 4.7332                 4.0667
 Frc consts  --      2.0585                 1.5346                 1.3722
 IR Inten    --     15.8988                17.1216                30.6901

                     28                     29                     30
                      A                      A                      A
 Frequencies --    764.0431               843.2909               846.9200
 Red. masses --      5.6945                 8.5087                 1.5712
 Frc consts  --      1.9586                 3.5651                 0.6640
 IR Inten    --      9.4736                 8.5552                12.4456

                     31                     32                     33
                      A                      A                      A
 Frequencies --    850.0077               882.5282               896.1141
 Red. masses --      2.6074                 3.6082                 1.4779
 Frc consts  --      1.1100                 1.6558                 0.6992
 IR Inten    --      8.9381                 1.1428                20.2862

                     34                     35                     36
                      A                      A                      A
 Frequencies --    946.2097               964.4688               966.5221
 Red. masses --      1.2313                 2.2131                 2.0064
 Frc consts  --      0.6495                 1.2129                 1.1043
 IR Inten    --      3.3309                14.5647                 1.4494

                     37                     38                     39
                      A                      A                      A
 Frequencies --    971.3426               982.1481              1043.9596
 Red. masses --      1.2843                 2.6817                 2.6781
 Frc consts  --      0.7140                 1.5241                 1.7197
 IR Inten    --      0.5841                 3.0621                 5.7607

                     40                     41                     42
                      A                      A                      A
 Frequencies --   1100.2025              1149.7846              1158.2920
 Red. masses --      2.1005                 1.3616                 2.0486
 Frc consts  --      1.4980                 1.0606                 1.6194
 IR Inten    --    113.1581                22.1711                29.6907

                     43                     44                     45
                      A                      A                      A
 Frequencies --   1195.0467              1208.9336              1249.9208
 Red. masses --      2.1376                 2.1559                 3.1139
 Frc consts  --      1.7987                 1.8564                 2.8663
 IR Inten    --     11.5626               101.3548                29.8599

                     46                     47                     48
                      A                      A                      A
 Frequencies --   1259.2062              1323.4759              1327.5962
 Red. masses --      1.5303                 4.1627                 1.6948
 Frc consts  --      1.4296                 4.2959                 1.7600
 IR Inten    --      8.6939               102.7698               129.3344

                     49                     50                     51
                      A                      A                      A
 Frequencies --   1351.3469              1375.2990              1385.5682
 Red. masses --      1.9003                 1.3804                 6.2853
 Frc consts  --      2.0446                 1.5384                 7.1094
 IR Inten    --    198.0014                21.1307               544.7049

                     52                     53                     54
                      A                      A                      A
 Frequencies --   1418.9880              1430.3326              1433.5437
 Red. masses --      4.8179                 1.3028                 2.1160
 Frc consts  --      5.7157                 1.5704                 2.5620
 IR Inten    --     44.9303                 7.6289                24.2799

                     55                     56                     57
                      A                      A                      A
 Frequencies --   1450.6563              1505.3959              1506.2762
 Red. masses --      1.2618                 2.9361                 2.3943
 Frc consts  --      1.5645                 3.9203                 3.2006
 IR Inten    --     13.4754                65.2538                61.2111

                     58                     59                     60
                      A                      A                      A
 Frequencies --   1516.2951              1518.5900              1527.5939
 Red. masses --      1.0441                 1.1353                 1.5409
 Frc consts  --      1.4143                 1.5425                 2.1186
 IR Inten    --      1.4628                 1.5975                 4.4799

                     61                     62                     63
                      A                      A                      A
 Frequencies --   1537.0486              1541.0077              1603.9266
 Red. masses --      1.2666                 1.2319                 9.5384
 Frc consts  --      1.7631                 1.7236                14.4575
 IR Inten    --     33.6704                 3.6373               115.7982

                     64                     65                     66
                      A                      A                      A
 Frequencies --   1634.0235              1658.8209              1701.8314
 Red. masses --      7.4770                 9.0887                 6.2481
 Frc consts  --     11.7624                14.7350                10.6618
 IR Inten    --    842.2842                39.6893               189.1672

                     67                     68                     69
                      A                      A                      A
 Frequencies --   3027.4289              3051.1256              3055.4616
 Red. masses --      1.0838                 1.0376                 1.0376
 Frc consts  --      5.8525                 5.6909                 5.7072
 IR Inten    --     21.3136                14.2567                23.4587

                     70                     71                     72
                      A                      A                      A
 Frequencies --   3119.8423              3126.5522              3131.2988
 Red. masses --      1.0998                 1.1005                 1.1028
 Frc consts  --      6.3070                 6.3382                 6.3711
 IR Inten    --      3.4320                44.3861                28.6097

                     73                     74                     75
                      A                      A                      A
 Frequencies --   3145.8705              3224.2235              3252.6898
 Red. masses --      1.1039                 1.0907                 1.0919
 Frc consts  --      6.4368                 6.6806                 6.8066
 IR Inten    --     21.6960                 5.0571                 1.4984

                     76                     77                     78
                      A                      A                      A
 Frequencies --   3256.4894              3582.1899              3668.3266
 Red. masses --      1.0923                 1.0753                 1.0799
 Frc consts  --      6.8248                 8.1298                 8.5618
 IR Inten    --      0.9790                45.7500                39.7933

 - Thermochemistry -
 -------------------
 Temperature   298.150 Kelvin.  Pressure   1.00000 Atm.
 Atom     1 has atomic number  6 and mass  12.00000

 Molecular mass:   220.09603 amu.
 Principal axes and moments of inertia in atomic units:
                           1         2         3
     Eigenvalues --  1122.632298038.279828818.98245
           X            0.99989   0.01479   0.00205
           Y           -0.01480   0.99988   0.00384
           Z           -0.00199  -0.00387   0.99999
 This molecule is an asymmetric top.
 Rotational symmetry number  1.
 Warning -- assumption of classical behavior for rotation
           may cause significant error
 Rotational temperatures (Kelvin)      0.07715     0.01078     0.00982
 Rotational constants (GHZ):           1.60760     0.22452     0.20464
 Zero-point vibrational energy     586138.4 (Joules/Mol)
                                  140.09044 (Kcal/Mol)
 Warning -- explicit consideration of  22 degrees of freedom as
           vibrations may cause significant error
 Vibrational temperatures:     56.68    66.72    98.65   124.60   150.95
          (Kelvin)            266.83   295.08   338.63   380.04   388.38
                              403.42   474.98   509.52   526.12   536.93
                              616.51   636.82   668.34   723.59   805.19
                              817.51   839.90   909.61  1014.88  1051.74
                             1067.29  1088.82  1099.29  1213.31  1218.53
                             1222.97  1269.76  1289.31  1361.38  1387.66
                             1390.61  1397.55  1413.09  1502.03  1582.95
                             1654.28  1666.52  1719.41  1739.39  1798.36
                             1811.72  1904.19  1910.11  1944.29  1978.75
                             1993.52  2041.61  2057.93  2062.55  2087.17
                             2165.93  2167.20  2181.61  2184.91  2197.87
                             2211.47  2217.17  2307.69  2351.00  2386.67
                             2448.56  4355.79  4389.89  4396.13  4488.76
                             4498.41  4505.24  4526.21  4638.94  4679.90
                             4685.36  5153.97  5277.90

 Zero-point correction=                           0.223248 (Hartree/Particle)
 Thermal correction to Energy=                    0.237480
 Thermal correction to Enthalpy=                  0.238424
 Thermal correction to Gibbs Free Energy=         0.181310
 Sum of electronic and zero-point Energies=           -757.504822
 Sum of electronic and thermal Energies=              -757.490590
 Sum of electronic and thermal Enthalpies=            -757.489646
 Sum of electronic and thermal Free Energies=         -757.546760

                     E (Thermal)             CV                S
                      KCal/Mol        Cal/Mol-Kelvin    Cal/Mol-Kelvin
 Total                  149.021             54.430            120.206
 Electronic               0.000              0.000              0.000
 Translational            0.889              2.981             42.070
 Rotational               0.889              2.981             32.742
 Vibrational            147.243             48.468             45.394
 Vibration     1          0.594              1.981              5.289
 Vibration     2          0.595              1.979              4.966
 Vibration     3          0.598              1.969              4.194
 Vibration     4          0.601              1.959              3.735
 Vibration     5          0.605              1.945              3.361
 Vibration     6          0.632              1.860              2.273
 Vibration     7          0.640              1.833              2.087
 Vibration     8          0.655              1.787              1.838
 Vibration     9          0.671              1.739              1.634
 Vibration    10          0.674              1.729              1.597
 Vibration    11          0.680              1.710              1.531
 Vibration    12          0.713              1.615              1.259
 Vibration    13          0.730              1.567              1.148
 Vibration    14          0.739              1.543              1.098
 Vibration    15          0.745              1.527              1.067
 Vibration    16          0.790              1.408              0.864
 Vibration    17          0.802              1.377              0.818
 Vibration    18          0.822              1.329              0.753
 Vibration    19          0.858              1.244              0.651
 Vibration    20          0.915              1.119              0.525
 Vibration    21          0.924              1.100              0.508
 Vibration    22          0.941              1.066              0.478

 Optimization completed.
    -- Stationary point found.
 Normal termination of Gaussian 16 at Fri Dec 11 00:31:44 2020.

 ----------------------------------------------------------------------
 # B3LYP/6-311++G(d,p) empiricaldispersion=gd3bj scf=xqc pop=npa geom=c
 heck
 ----------------------------------------------------------------------

 --------------------------------------
 CID_10798939_JID_6666_Energie_neutraal
 --------------------------------------
 Structure from the checkpoint file:  "JID_6666.chk"
 Charge =  0 Multiplicity = 1

 SCF Done:  E(RB3LYP) =  -757.941468070     A.U. after   16 cycles
 Normal termination of Gaussian 16 at Fri Dec 11 00:34:49 2020.

 ----------------------------------------------------------------------
 # B3LYP/6-311++G(d,p) empiricaldispersion=gd3bj scf=xqc pop=npa geom=c
 heck
 ----------------------------------------------------------------------

 ------------------------------------
 CID_10798939_JID_6666_Energie_kation
 ------------------------------------
 Structure from the checkpoint file:  "JID_6666.chk"
 Charge =  1 Multiplicity = 2

 SCF Done:  E(UB3LYP) =  -757.650124859     A.U. after   29 cycles
 Normal termination of Gaussian 16 at Fri Dec 11 00:42:38 2020.
 Gaussian 16:  ES64L-G16RevA.03 25-Dec-2016

 ----------------------------------------------------------------------
 # B3LYP/6-311++G(d,p) empiricaldispersion=gd3bj scf=xqc pop=npa geom=c
 heck
 ----------------------------------------------------------------------

 -----------------------------------
 CID_10798939_JID_6666_Energie_anion
 -----------------------------------
 Structure from the checkpoint file:  "JID_6666.chk"
 Charge = -1 Multiplicity = 2

                         Standard orientation:
 ---------------------------------------------------------------------
 Center     Atomic      Atomic             Coordinates (Angstroms)
 Number     Number       Type             X           Y           Z
 ---------------------------------------------------------------------
      1          6           0       -5.326272   -0.378037    0.585831
      2          6           0       -3.902639   -0.641299    0.097336
      3          6           0       -3.863959   -1.038585   -1.384468
      4          7           0       -3.089150    0.546326    0.383433
      5          6           0       -1.735691    0.573831    0.221211
      6          7           0       -1.034346    1.672893   -0.000046
      7          6           0        0.282123    1.258352   -0.022787
      8          6           0        0.370076   -0.148117    0.180408
      9          7           0       -0.953039   -0.560093    0.323048
     10          6           0        1.566627   -0.837023    0.197707
     11          6           0        2.713790   -0.059274    0.003683
     12          6           0        2.672507    1.328647   -0.201132
     13          6           0        1.455310    1.998361   -0.216754
     14          7           0        4.007459   -0.731104    0.015245
     15          8           0        4.021771   -1.952850    0.198515
     16          8           0        5.019416   -0.047649   -0.158541
     17          1           0       -5.779743    0.447473    0.022723
     18          1           0       -5.332728   -0.116233    1.647881
     19          1           0       -5.951167   -1.263563    0.437093
     20          1           0       -3.490189   -1.462657    0.699636
     21          1           0       -4.301950   -0.246373   -2.002325
     22          1           0       -2.836404   -1.203249   -1.723877
     23          1           0       -4.433903   -1.958695   -1.554018
     24          1           0       -3.508850    1.436113    0.138555
     25          1           0       -1.266165   -1.487305    0.564251
     26          1           0        1.652080   -1.905203    0.349805
     27          1           0        3.606517    1.856091   -0.344387
     28          1           0        1.405306    3.070289   -0.373112
 ---------------------------------------------------------------------

 SCF Done:  E(UB3LYP) =  -757.966710065     A.U. after   31 cycles

 The electronic state is 2-A.
 Alpha  occ. eigenvalues --  -18.94914 -18.94866 -14.32669 -14.25693 -14.24352
 Alpha  occ. eigenvalues --  -14.17985 -10.16327 -10.14664 -10.10087 -10.09165
 Alpha  occ. eigenvalues --  -10.08992 -10.07043 -10.06684 -10.04746 -10.04377
 Alpha  occ. eigenvalues --  -10.04133  -1.02747  -0.92149  -0.85521  -0.84402
 Alpha  occ. eigenvalues --   -0.77274  -0.72979  -0.70527  -0.63296  -0.62803
 Alpha  occ. eigenvalues --   -0.62184  -0.55310  -0.52665  -0.51441  -0.51017
 Alpha  occ. eigenvalues --   -0.45244  -0.44308  -0.40786  -0.39491  -0.38335
 Alpha  occ. eigenvalues --   -0.36783  -0.35947  -0.35109  -0.34460  -0.33828
 Alpha  occ. eigenvalues --   -0.33036  -0.32347  -0.31742  -0.31300  -0.30313
 Alpha  occ. eigenvalues --   -0.29082  -0.27987  -0.27072  -0.23844  -0.23674
 Alpha  occ. eigenvalues --   -0.20639  -0.17676  -0.17045  -0.13940  -0.12769
 Alpha  occ. eigenvalues --   -0.11569  -0.10506  -0.09408   0.02938
 Alpha virt. eigenvalues --    0.04306   0.06310   0.07075   0.07681   0.09736
 Alpha virt. eigenvalues --    0.10041   0.10303   0.10765   0.11086   0.11793
 Alpha virt. eigenvalues --    0.12107   0.13163   0.13721   0.14341   0.14525

  Beta  occ. eigenvalues --  -18.94522 -18.94407 -14.32067 -14.25672 -14.24330
  Beta  occ. eigenvalues --  -14.18034 -10.16217 -10.14654 -10.10074 -10.09149
  Beta  occ. eigenvalues --  -10.09065 -10.06869 -10.06651 -10.04794 -10.04172
  Beta  occ. eigenvalues --  -10.04061  -1.01776  -0.92061  -0.84711  -0.84350
  Beta  occ. eigenvalues --   -0.77229  -0.72796  -0.70441  -0.62917  -0.62733
  Beta  occ. eigenvalues --   -0.62016  -0.54945  -0.52400  -0.51378  -0.50752
  Beta  occ. eigenvalues --   -0.44991  -0.44205  -0.40736  -0.39186  -0.38200
  Beta  occ. eigenvalues --   -0.36516  -0.35734  -0.34299  -0.33621  -0.32956
  Beta  occ. eigenvalues --   -0.32481  -0.31995  -0.31625  -0.31157  -0.29994
  Beta  occ. eigenvalues --   -0.29033  -0.27953  -0.26949  -0.23718  -0.23241
  Beta  occ. eigenvalues --   -0.20467  -0.17225  -0.17011  -0.12364  -0.11552
  Beta  occ. eigenvalues --   -0.10421  -0.10081  -0.08770
  Beta virt. eigenvalues --    0.04596   0.06382   0.07068   0.07811   0.09033
  Beta virt. eigenvalues --    0.09708   0.10000   0.10243   0.10702   0.11672
  Beta virt. eigenvalues --    0.11918   0.12093   0.13140   0.13652   0.14339

 Mulliken charges and spin densities:
               1          2
     1  C   -0.204757  -0.330819
     2  C   -0.367366   0.255838
     3  C   -0.073328  -0.317756
     4  N   -0.035431   0.008713
     5  C    0.511969   0.009619
     6  N   -0.148195  -0.032367
     7  C    0.181696   0.025017
     8  C    1.437779  -0.026863
     9  N   -0.222005  -0.003713
    10  C   -1.194361   0.216130
    11  C   -0.779467  -0.074529
    12  C    0.237528   0.074586
    13  C   -1.158959  -0.017145
    14  N   -0.251282   0.196004
    15  O   -0.177822   0.155278
    16  O   -0.180978   0.176458
    17  H    0.071027   0.059828
    18  H    0.102930   0.055655
    19  H   -0.038860   0.188364
    20  H   -0.019525   0.135255
    21  H    0.111422   0.029101
    22  H    0.150757   0.013815
    23  H   -0.038173   0.170891
    24  H    0.269159  -0.001419
    25  H    0.252954   0.039502
    26  H    0.198453  -0.003404
    27  H    0.226480  -0.005372
    28  H    0.138353   0.003336
 Sum of Mulliken charges =  -1.00000   1.00000

 Dipole moment (field-independent basis, Debye):
    X=            -13.2658    Y=              1.1296    Z=             -0.0455  Tot=             13.3139
 Quadrupole moment (field-independent basis, Debye-Ang):
   XX=           -188.1112   YY=           -114.8951   ZZ=           -104.6398
   XY=             11.5823   XZ=              0.0410   YZ=             -1.0300

 Summary of Natural Population Analysis:

                                       Natural Population
                Natural  -----------------------------------------------
    Atom  No    Charge         Core      Valence    Rydberg      Total
 -----------------------------------------------------------------------
      C    1   -0.28505      0.99965     2.28036    0.00504     3.28505
      C    2   -0.01213      0.99963     2.00089    0.01162     3.01213
      C    3   -0.29520      0.99965     2.28945    0.00610     3.29520
      N    4   -0.31979      0.99965     2.81044    0.00970     3.81979
      C    5    0.31027      0.99963     1.67287    0.01723     2.68973
      N    6   -0.29601      0.99968     2.78547    0.01086     3.79601
      C    7    0.09064      0.99947     1.89725    0.01264     2.90936
      C    8    0.04368      0.99948     1.94622    0.01062     2.95632
      N    9   -0.29433      0.99963     2.78826    0.00643     3.79433
      C   10   -0.07652      0.99949     2.06801    0.00902     3.07652
      C   11    0.04237      0.99943     1.94691    0.01129     2.95763
      C   12   -0.09012      0.99955     2.08106    0.00952     3.09012
      C   13   -0.12730      0.99954     2.11903    0.00873     3.12730
      N   14    0.30135      0.99971     2.17192    0.02701     3.19865
      O   15   -0.20770      0.99990     3.19996    0.00784     4.20770
      O   16   -0.19432      0.99990     3.18667    0.00774     4.19432
      H   17    0.09559      0.00000     0.40343    0.00098     0.40441
      H   18    0.10424      0.00000     0.39474    0.00101     0.39576
      H   19    0.10228      0.00000     0.39682    0.00089     0.39772
      H   20    0.08790      0.00000     0.40976    0.00234     0.41210
      H   21    0.09760      0.00000     0.40146    0.00094     0.40240
      H   22    0.10684      0.00000     0.39213    0.00103     0.39316
      H   23    0.09949      0.00000     0.39945    0.00106     0.40051
      H   24    0.19050      0.00000     0.30623    0.00327     0.30950
      H   25    0.19925      0.00000     0.29883    0.00192     0.30075
      H   26    0.11501      0.00000     0.38376    0.00123     0.38499
      H   27    0.11349      0.00000     0.38523    0.00127     0.38651
      H   28    0.09797      0.00000     0.40057    0.00146     0.40203
 =======================================================================
   * Total *    0.00000     15.99398    41.81721    0.18881    58.00000

 Normal termination of Gaussian 16 at Fri Dec 11 00:51:18 2020.
