 Gaussian 16, Revision A.03,

 -----------------------------------------------------------
 # opt freq B3LYP/6-31G(d) empiricaldispersion=gd3bj scf=xqc
 -----------------------------------------------------------

 -------------------------------
 CID_107000596_JID_4909_neutraal
 -------------------------------
 Symbolic Z-matrix:
 Charge =  0 Multiplicity = 1

 SCF Done:  E(RB3LYP) =  -615.973254320     A.U. after   14 cycles
 SCF Done:  E(RB3LYP) =  -615.977283656     A.U. after   12 cycles
 SCF Done:  E(RB3LYP) =  -615.978080916     A.U. after   12 cycles
 SCF Done:  E(RB3LYP) =  -615.979048238     A.U. after   12 cycles
 SCF Done:  E(RB3LYP) =  -615.979733426     A.U. after   12 cycles
 SCF Done:  E(RB3LYP) =  -615.980314122     A.U. after   11 cycles
 SCF Done:  E(RB3LYP) =  -615.981022831     A.U. after   12 cycles
 SCF Done:  E(RB3LYP) =  -615.981201716     A.U. after   12 cycles
 SCF Done:  E(RB3LYP) =  -615.981027476     A.U. after   12 cycles
 SCF Done:  E(RB3LYP) =  -615.982451377     A.U. after   13 cycles
 SCF Done:  E(RB3LYP) =  -615.985249546     A.U. after    7 cycles
 SCF Done:  E(RB3LYP) =  -615.985249717     A.U. after    7 cycles
 SCF Done:  E(RB3LYP) =  -615.985249782     A.U. after    7 cycles
 SCF Done:  E(RB3LYP) =  -615.985249811     A.U. after    6 cycles
 SCF Done:  E(RB3LYP) =  -615.985249825     A.U. after    6 cycles
 Optimization completed.
    -- Stationary point found.
 Normal termination of Gaussian 16 at Thu Dec 10 11:05:45 2020.

 --------------------------------------------------------------------
 #N Geom=AllCheck Guess=TCheck SCRF=Check GenChk RB3LYP/6-31G(d) Freq
 --------------------------------------------------------------------

 Structure from the checkpoint file:  "JID_4909.chk"
 -------------------------------
 CID_107000596_JID_4909_neutraal
 -------------------------------
 Charge =  0 Multiplicity = 1

 SCF Done:  E(RB3LYP) =  -615.985249825     A.U. after    1 cycles

  Exact polarizability: 153.878  -0.389 116.977  -2.201  -0.267 111.605
 Approx polarizability: 191.789  -3.257 170.592  -6.865   8.729 173.081

                      1                      2                      3
                      A                      A                      A
 Frequencies --     41.7238                57.9788                67.6559
 Red. masses --      3.2396                 2.6033                 3.4511
 Frc consts  --      0.0033                 0.0052                 0.0093
 IR Inten    --      0.2023                 0.9391                 0.1161

                      4                      5                      6
                      A                      A                      A
 Frequencies --     83.0685               113.0384               161.7090
 Red. masses --      4.7048                 3.0206                 3.5261
 Frc consts  --      0.0191                 0.0227                 0.0543
 IR Inten    --      0.7982                 1.5067                 1.6613

                      7                      8                      9
                      A                      A                      A
 Frequencies --    196.6941               215.4198               230.7479
 Red. masses --      3.1760                 1.5871                 1.5404
 Frc consts  --      0.0724                 0.0434                 0.0483
 IR Inten    --      1.1240                 1.9231                 3.1328

                     10                     11                     12
                      A                      A                      A
 Frequencies --    248.6783               257.4855               277.4997
 Red. masses --      1.2714                 1.2584                 2.0889
 Frc consts  --      0.0463                 0.0492                 0.0948
 IR Inten    --      0.1520                 0.6584                 0.6657

                     13                     14                     15
                      A                      A                      A
 Frequencies --    324.1399               333.5416               365.1518
 Red. masses --      3.6386                 2.1089                 2.3303
 Frc consts  --      0.2252                 0.1382                 0.1831
 IR Inten    --      4.6424                 0.8128                 1.0706

                     16                     17                     18
                      A                      A                      A
 Frequencies --    382.4993               391.3797               430.2353
 Red. masses --      2.3527                 2.3288                 2.4468
 Frc consts  --      0.2028                 0.2102                 0.2668
 IR Inten    --      2.1021                 0.5406                 2.8619

                     19                     20                     21
                      A                      A                      A
 Frequencies --    476.5676               544.8212               578.2035
 Red. masses --      3.5100                 3.8342                 2.9329
 Frc consts  --      0.4697                 0.6705                 0.5777
 IR Inten    --      6.3516                17.5563                33.9947

                     22                     23                     24
                      A                      A                      A
 Frequencies --    608.3703               654.1589               709.6716
 Red. masses --      2.7665                 2.9178                 2.5388
 Frc consts  --      0.6033                 0.7357                 0.7534
 IR Inten    --     19.7069                 7.3344                 9.9905

                     25                     26                     27
                      A                      A                      A
 Frequencies --    717.4104               762.8707               815.3116
 Red. masses --      1.3838                 2.7931                 2.8184
 Frc consts  --      0.4196                 0.9577                 1.1038
 IR Inten    --     73.7412                18.1177                26.2919

                     28                     29                     30
                      A                      A                      A
 Frequencies --    827.7842               842.1187               864.9206
 Red. masses --      3.2200                 2.5339                 2.7772
 Frc consts  --      1.3000                 1.0587                 1.2241
 IR Inten    --      7.6510                27.6168                24.2063

                     31                     32                     33
                      A                      A                      A
 Frequencies --    925.6080               937.8617               947.6162
 Red. masses --      2.3080                 1.3954                 1.4014
 Frc consts  --      1.1650                 0.7231                 0.7414
 IR Inten    --      4.2491                 1.6980                 4.6453

                     34                     35                     36
                      A                      A                      A
 Frequencies --    958.3560               975.0015               983.2097
 Red. masses --      1.8261                 1.8395                 1.7547
 Frc consts  --      0.9882                 1.0303                 0.9994
 IR Inten    --      4.1228                 4.6395                 1.2719

                     37                     38                     39
                      A                      A                      A
 Frequencies --    992.6692              1016.2273              1035.7584
 Red. masses --      1.5290                 1.7470                 1.6582
 Frc consts  --      0.8877                 1.0630                 1.0481
 IR Inten    --      8.3591                20.7397                10.8487

                     40                     41                     42
                      A                      A                      A
 Frequencies --   1057.0491              1074.9783              1083.1922
 Red. masses --      1.6970                 1.3379                 1.3274
 Frc consts  --      1.1172                 0.9109                 0.9176
 IR Inten    --      6.2360                 1.9975                 2.8892

                     43                     44                     45
                      A                      A                      A
 Frequencies --   1092.1615              1118.2175              1130.1078
 Red. masses --      2.5689                 1.6048                 1.6249
 Frc consts  --      1.8054                 1.1823                 1.2227
 IR Inten    --      7.3718                 2.0103                 2.8229

                     46                     47                     48
                      A                      A                      A
 Frequencies --   1141.9253              1165.7915              1177.1915
 Red. masses --      1.9672                 1.7993                 1.9821
 Frc consts  --      1.5114                 1.4408                 1.6184
 IR Inten    --      0.7991                38.8575                10.9514

                     49                     50                     51
                      A                      A                      A
 Frequencies --   1191.3887              1238.2616              1246.2406
 Red. masses --      2.1007                 1.4187                 1.2698
 Frc consts  --      1.7568                 1.2816                 1.1620
 IR Inten    --      1.9983                 2.9675                 2.0381

                     52                     53                     54
                      A                      A                      A
 Frequencies --   1267.5872              1281.9509              1304.0296
 Red. masses --      1.5776                 1.8035                 1.2294
 Frc consts  --      1.4935                 1.7463                 1.2318
 IR Inten    --     11.6040                80.2680                19.5555

                     55                     56                     57
                      A                      A                      A
 Frequencies --   1327.9918              1334.0427              1366.5397
 Red. masses --      1.9457                 1.5310                 2.4050
 Frc consts  --      2.0217                 1.6054                 2.6461
 IR Inten    --     33.6820                58.7728                20.5713

                     58                     59                     60
                      A                      A                      A
 Frequencies --   1374.6361              1376.9454              1416.4077
 Red. masses --      1.4149                 1.4405                 1.5338
 Frc consts  --      1.5753                 1.6091                 1.8130
 IR Inten    --      3.6345                17.9244                 0.9383

                     61                     62                     63
                      A                      A                      A
 Frequencies --   1436.7364              1441.8365              1449.7571
 Red. masses --      1.3128                 1.2598                 1.2704
 Frc consts  --      1.5966                 1.5431                 1.5732
 IR Inten    --     20.5093                 1.6605                 1.9463

                     64                     65                     66
                      A                      A                      A
 Frequencies --   1453.2419              1464.5636              1499.2851
 Red. masses --      1.3692                 1.7406                 1.6689
 Frc consts  --      1.7037                 2.1997                 2.2103
 IR Inten    --      6.6659                90.5300               137.2488

                     67                     68                     69
                      A                      A                      A
 Frequencies --   1506.1515              1515.8565              1519.7053
 Red. masses --      1.4205                 1.0481                 1.0673
 Frc consts  --      1.8986                 1.4190                 1.4523
 IR Inten    --     35.9351                 0.7332                 6.3400

                     70                     71                     72
                      A                      A                      A
 Frequencies --   1527.4057              1532.9464              1540.7962
 Red. masses --      1.0505                 1.0545                 1.1238
 Frc consts  --      1.4440                 1.4599                 1.5719
 IR Inten    --     12.7729                 9.6310                 0.9929

                     73                     74                     75
                      A                      A                      A
 Frequencies --   1541.4007              1542.6480              1559.7543
 Red. masses --      1.1089                 1.0496                 1.0912
 Frc consts  --      1.5523                 1.4716                 1.5641
 IR Inten    --     12.6222                 5.6146                 3.8381

                     76                     77                     78
                      A                      A                      A
 Frequencies --   1753.3135              2955.5716              2998.7155
 Red. masses --      7.6883                 1.0734                 1.0719
 Frc consts  --     13.9251                 5.5243                 5.6793
 IR Inten    --    319.6230                86.8074                69.2284

                     79                     80                     81
                      A                      A                      A
 Frequencies --   3034.0292              3039.8163              3044.3366
 Red. masses --      1.0356                 1.0816                 1.0395
 Frc consts  --      5.6169                 5.8884                 5.6762
 IR Inten    --     24.3503                28.6843                42.9944

                     82                     83                     84
                      A                      A                      A
 Frequencies --   3056.8580              3063.6390              3092.5171
 Red. masses --      1.0387                 1.0937                 1.1018
 Frc consts  --      5.7184                 6.0480                 6.2084
 IR Inten    --     21.1397                53.1266                 3.6062

                     85                     86                     87
                      A                      A                      A
 Frequencies --   3096.7530              3104.8046              3108.8183
 Red. masses --      1.1012                 1.0904                 1.1020
 Frc consts  --      6.2218                 6.1929                 6.2749
 IR Inten    --     77.3914                27.7239                29.7980

                     88                     89                     90
                      A                      A                      A
 Frequencies --   3120.8867              3132.3534              3136.4689
 Red. masses --      1.1009                 1.0883                 1.1007
 Frc consts  --      6.3178                 6.2910                 6.3794
 IR Inten    --     30.4385                11.4516                30.1140

                     91                     92                     93
                      A                      A                      A
 Frequencies --   3147.9734              3163.6972              3187.5451
 Red. masses --      1.0552                 1.0976                 1.0874
 Frc consts  --      6.1612                 6.4727                 6.5096
 IR Inten    --     16.5926                 1.9487                18.0904

                     94                     95                     96
                      A                      A                      A
 Frequencies --   3239.9059              3540.9944              3564.7645
 Red. masses --      1.1165                 1.0756                 1.0750
 Frc consts  --      6.9055                 7.9462                 8.0488
 IR Inten    --      4.4313                 0.5036                44.3109

 - Thermochemistry -
 -------------------
 Temperature   298.150 Kelvin.  Pressure   1.00000 Atm.
 Atom     1 has atomic number  6 and mass  12.00000

 Molecular mass:   196.15756 amu.
 Principal axes and moments of inertia in atomic units:
                           1         2         3
     Eigenvalues --  1439.854484323.102954746.95477
           X            0.99997   0.00828   0.00091
           Y           -0.00823   0.99872  -0.04994
           Z           -0.00133   0.04993   0.99875
 This molecule is an asymmetric top.
 Rotational symmetry number  1.
 Warning -- assumption of classical behavior for rotation
           may cause significant error
 Rotational temperatures (Kelvin)      0.06015     0.02004     0.01825
 Rotational constants (GHZ):           1.25342     0.41746     0.38019
 Zero-point vibrational energy     802907.5 (Joules/Mol)
                                  191.89949 (Kcal/Mol)
 Warning -- explicit consideration of  22 degrees of freedom as
           vibrations may cause significant error
 Vibrational temperatures:     60.03    83.42    97.34   119.52   162.64
          (Kelvin)            232.66   283.00   309.94   331.99   357.79
                              370.46   399.26   466.36   479.89   525.37
                              550.33   563.11   619.01   685.67   783.88
                              831.91   875.31   941.19  1021.06  1032.19
                             1097.60  1173.05  1191.00  1211.62  1244.43
                             1331.74  1349.37  1363.41  1378.86  1402.81
                             1414.62  1428.23  1462.12  1490.23  1520.86
                             1546.65  1558.47  1571.38  1608.87  1625.97
                             1642.98  1677.31  1693.72  1714.14  1781.58
                             1793.06  1823.78  1844.44  1876.21  1910.68
                             1919.39  1966.15  1977.79  1981.12  2037.89
                             2067.14  2074.48  2085.88  2090.89  2107.18
                             2157.14  2167.02  2180.98  2186.52  2197.60
                             2205.57  2216.86  2217.73  2219.53  2244.14
                             2522.63  4252.41  4314.48  4365.29  4373.62
                             4380.12  4398.14  4407.89  4449.44  4455.54
                             4467.12  4472.90  4490.26  4506.76  4512.68
                             4529.23  4551.85  4586.17  4661.50  5094.70
                             5128.90

 Zero-point correction=                           0.305811 (Hartree/Particle)
 Thermal correction to Energy=                    0.320549
 Thermal correction to Enthalpy=                  0.321494
 Thermal correction to Gibbs Free Energy=         0.264209
 Sum of electronic and zero-point Energies=           -615.679439
 Sum of electronic and thermal Energies=              -615.664700
 Sum of electronic and thermal Enthalpies=            -615.663756
 Sum of electronic and thermal Free Energies=         -615.721041

                     E (Thermal)             CV                S
                      KCal/Mol        Cal/Mol-Kelvin    Cal/Mol-Kelvin
 Total                  201.148             56.685            120.566
 Electronic               0.000              0.000              0.000
 Translational            0.889              2.981             41.726
 Rotational               0.889              2.981             31.758
 Vibrational            199.370             50.724             47.082
 Vibration     1          0.594              1.981              5.176
 Vibration     2          0.596              1.974              4.525
 Vibration     3          0.598              1.970              4.220
 Vibration     4          0.600              1.961              3.817
 Vibration     5          0.607              1.939              3.216
 Vibration     6          0.622              1.889              2.530
 Vibration     7          0.636              1.844              2.164
 Vibration     8          0.645              1.818              1.997
 Vibration     9          0.652              1.794              1.873
 Vibration    10          0.662              1.765              1.740
 Vibration    11          0.667              1.750              1.679
 Vibration    12          0.678              1.715              1.549
 Vibration    13          0.709              1.627              1.289
 Vibration    14          0.715              1.609              1.243
 Vibration    15          0.738              1.544              1.100
 Vibration    16          0.752              1.508              1.029
 Vibration    17          0.759              1.489              0.995
 Vibration    18          0.791              1.404              0.858
 Vibration    19          0.833              1.302              0.719
 Vibration    20          0.900              1.151              0.555
 Vibration    21          0.935              1.078              0.489
 Vibration    22          0.967              1.014              0.435

 Optimization completed.
    -- Stationary point found.
 Normal termination of Gaussian 16 at Thu Dec 10 11:17:17 2020.

 ----------------------------------------------------------------------
 # B3LYP/6-311++G(d,p) empiricaldispersion=gd3bj scf=xqc pop=npa geom=c
 heck
 ----------------------------------------------------------------------

 ---------------------------------------
 CID_107000596_JID_4909_Energie_neutraal
 ---------------------------------------
 Structure from the checkpoint file:  "JID_4909.chk"
 Charge =  0 Multiplicity = 1

 SCF Done:  E(RB3LYP) =  -616.162835632     A.U. after   15 cycles
 Normal termination of Gaussian 16 at Thu Dec 10 11:23:02 2020.

 ----------------------------------------------------------------------
 # B3LYP/6-311++G(d,p) empiricaldispersion=gd3bj scf=xqc pop=npa geom=c
 heck
 ----------------------------------------------------------------------

 -------------------------------------
 CID_107000596_JID_4909_Energie_kation
 -------------------------------------
 Structure from the checkpoint file:  "JID_4909.chk"
 Charge =  1 Multiplicity = 2

 SCF Done:  E(UB3LYP) =  -615.861566682     A.U. after   33 cycles
 SCF Done:  E(UB3LYP) =  -615.861566682     a.u. after    1 cycles
 Normal termination of Gaussian 16 at Thu Dec 10 11:41:01 2020.
 Gaussian 16:  ES64L-G16RevA.03 25-Dec-2016

 ----------------------------------------------------------------------
 # B3LYP/6-311++G(d,p) empiricaldispersion=gd3bj scf=xqc pop=npa geom=c
 heck
 ----------------------------------------------------------------------

 ------------------------------------
 CID_107000596_JID_4909_Energie_anion
 ------------------------------------
 Structure from the checkpoint file:  "JID_4909.chk"
 Charge = -1 Multiplicity = 2

                         Standard orientation:
 ---------------------------------------------------------------------
 Center     Atomic      Atomic             Coordinates (Angstroms)
 Number     Number       Type             X           Y           Z
 ---------------------------------------------------------------------
      1          6           0       -0.754006    1.827010   -0.689097
      2          6           0       -1.844484    1.194852    0.168143
      3          6           0       -3.166135    0.898861   -0.596041
      4          7           0       -3.530784   -0.477357   -0.206592
      5          6           0       -2.876359   -0.751495    1.074427
      6          6           0       -1.481126   -0.176688    0.808977
      7          7           0       -0.774710   -1.076498   -0.089002
      8          6           0        0.569541   -1.214173   -0.318723
      9          8           0        0.967074   -1.863957   -1.286389
     10          6           0        1.508413   -0.576459    0.654999
     11          6           0        2.944323   -1.060827    0.667602
     12          6           0        2.657022    0.320549    0.164636
     13          6           0        2.814196    0.614393   -1.314637
     14          6           0        3.005736    1.488257    1.069232
     15          1           0       -1.092350    2.783242   -1.103904
     16          1           0       -0.482455    1.173279   -1.523751
     17          1           0        0.151179    2.015951   -0.103157
     18          1           0       -2.072511    1.871443    1.001966
     19          1           0       -3.934232    1.641337   -0.329803
     20          1           0       -3.023802    0.951251   -1.682405
     21          1           0       -4.534512   -0.627506   -0.180974
     22          1           0       -2.855148   -1.825249    1.284357
     23          1           0       -3.330845   -0.233279    1.938677
     24          1           0       -0.906903   -0.050785    1.727633
     25          1           0       -1.352161   -1.482700   -0.818552
     26          1           0        1.088673   -0.286595    1.612488
     27          1           0        3.173507   -1.826083   -0.067346
     28          1           0        3.425462   -1.179346    1.634948
     29          1           0        2.501871   -0.235711   -1.923143
     30          1           0        2.216125    1.487005   -1.605072
     31          1           0        3.863950    0.841744   -1.538364
     32          1           0        2.368735    2.356716    0.858090
     33          1           0        2.887429    1.231430    2.127912
     34          1           0        4.047125    1.796819    0.913562
 ---------------------------------------------------------------------

 SCF Done:  E(UB3LYP) =  -616.153448576     A.U. after   30 cycles

 The electronic state is 2-A.
 Alpha  occ. eigenvalues --  -18.98282 -14.22936 -14.19936 -10.17230 -10.11174
 Alpha  occ. eigenvalues --  -10.10258 -10.09404 -10.08954 -10.08741 -10.07828
 Alpha  occ. eigenvalues --  -10.07603 -10.07124 -10.06503 -10.06170  -0.93503
 Alpha  occ. eigenvalues --   -0.84108  -0.79758  -0.78093  -0.68208  -0.64250
 Alpha  occ. eigenvalues --   -0.63507  -0.59984  -0.57683  -0.55966  -0.50659
 Alpha  occ. eigenvalues --   -0.48112  -0.46981  -0.44198  -0.42226  -0.40865
 Alpha  occ. eigenvalues --   -0.38326  -0.36685  -0.35514  -0.35045  -0.33722
 Alpha  occ. eigenvalues --   -0.33642  -0.31943  -0.31525  -0.30633  -0.30093
 Alpha  occ. eigenvalues --   -0.29485  -0.28431  -0.28144  -0.27575  -0.26794
 Alpha  occ. eigenvalues --   -0.25409  -0.24578  -0.23995  -0.23422  -0.19974
 Alpha  occ. eigenvalues --   -0.18588  -0.15883  -0.15360  -0.12677   0.04129
 Alpha virt. eigenvalues --    0.06166   0.07411   0.07770   0.08669   0.08869
 Alpha virt. eigenvalues --    0.09157   0.10184   0.10590   0.10733   0.10897
 Alpha virt. eigenvalues --    0.11458   0.12042   0.12057   0.12485   0.13491

  Beta  occ. eigenvalues --  -18.98279 -14.22933 -14.19914 -10.17227 -10.11162
  Beta  occ. eigenvalues --  -10.10256 -10.09376 -10.08928 -10.08727 -10.07820
  Beta  occ. eigenvalues --  -10.07586 -10.07094 -10.06495 -10.06156  -0.93496
  Beta  occ. eigenvalues --   -0.84080  -0.79734  -0.78081  -0.68165  -0.64221
  Beta  occ. eigenvalues --   -0.63466  -0.59949  -0.57633  -0.55938  -0.50599
  Beta  occ. eigenvalues --   -0.48068  -0.46942  -0.44146  -0.42182  -0.40812
  Beta  occ. eigenvalues --   -0.38289  -0.36653  -0.35476  -0.35021  -0.33698
  Beta  occ. eigenvalues --   -0.33611  -0.31921  -0.31502  -0.30581  -0.30071
  Beta  occ. eigenvalues --   -0.29461  -0.28409  -0.28112  -0.27549  -0.26753
  Beta  occ. eigenvalues --   -0.25383  -0.24540  -0.23955  -0.23379  -0.19957
  Beta  occ. eigenvalues --   -0.18574  -0.15876  -0.15341  -0.12629
  Beta virt. eigenvalues --    0.06407   0.07206   0.07988   0.08449   0.08985
  Beta virt. eigenvalues --    0.09250   0.09564   0.10509   0.10746   0.11028
  Beta virt. eigenvalues --    0.11097   0.11911   0.12349   0.12467   0.12756

 Mulliken charges and spin densities:
               1          2
     1  C   -0.511555  -0.342584
     2  C    0.514584  -0.156245
     3  C    0.691901  -1.263674
     4  N   -0.372416   0.197213
     5  C    0.754760  -1.357476
     6  C   -0.552943   0.472084
     7  N    0.018683  -0.036730
     8  C    0.366141  -0.879060
     9  O   -0.343598   0.007145
    10  C    0.409429   0.254197
    11  C   -0.249020  -0.450633
    12  C   -0.668931   1.079980
    13  C   -0.710410   0.135873
    14  C    0.921694  -1.562125
    15  H   -0.244494   0.404561
    16  H    0.238972  -0.043356
    17  H    0.116345   0.015618
    18  H   -0.350808   0.574620
    19  H   -0.387213   0.540234
    20  H    0.014021   0.143945
    21  H   -0.096123   0.360266
    22  H    0.011177   0.172464
    23  H   -0.582418   0.749755
    24  H   -0.263630   0.466441
    25  H    0.356629  -0.051340
    26  H   -0.014936   0.302612
    27  H    0.215945  -0.042515
    28  H   -0.157047   0.312692
    29  H    0.166289   0.010343
    30  H    0.074987   0.048462
    31  H    0.041547   0.097031
    32  H   -0.022060   0.176605
    33  H   -0.311755   0.451701
    34  H   -0.073750   0.211894
 Sum of Mulliken charges =  -1.00000   1.00000

 Dipole moment (field-independent basis, Debye):
    X=              4.6173    Y=             -2.0877    Z=             -3.6031  Tot=              6.2177
 Quadrupole moment (field-independent basis, Debye-Ang):
   XX=           -161.4700   YY=           -129.1651   ZZ=           -130.1151
   XY=              7.1022   XZ=              4.7583   YZ=             -9.2282

 Summary of Natural Population Analysis:

                                       Natural Population
                Natural  -----------------------------------------------
    Atom  No    Charge         Core      Valence    Rydberg      Total
 -----------------------------------------------------------------------
      C    1   -0.28611      0.99964     2.28013    0.00634     3.28611
      C    2   -0.11977      0.99958     2.10820    0.01198     3.11977
      C    3   -0.08437      0.99961     2.07341    0.01135     3.08437
      N    4   -0.35282      0.99975     2.84091    0.01215     3.85282
      C    5   -0.08671      0.99961     2.07550    0.01160     3.08671
      C    6   -0.01297      0.99956     1.99849    0.01492     3.01297
      N    7   -0.31803      0.99966     2.80842    0.00995     3.81803
      C    8    0.34317      0.99963     1.63393    0.02327     2.65683
      O    9   -0.33916      0.99988     3.33440    0.00488     4.33916
      C   10   -0.15802      0.99950     2.14851    0.01002     3.15802
      C   11   -0.18535      0.99957     2.17636    0.00942     3.18535
      C   12   -0.03150      0.99957     2.02135    0.01059     3.03150
      C   13   -0.28820      0.99961     2.28381    0.00478     3.28820
      C   14   -0.28004      0.99962     2.27427    0.00615     3.28004
      H   15    0.10069      0.00000     0.39850    0.00081     0.39931
      H   16    0.09973      0.00000     0.39917    0.00110     0.40027
      H   17    0.10117      0.00000     0.39744    0.00140     0.39883
      H   18    0.10512      0.00000     0.39134    0.00354     0.39488
      H   19    0.09116      0.00000     0.40622    0.00261     0.40884
      H   20    0.08722      0.00000     0.41132    0.00146     0.41278
      H   21    0.18193      0.00000     0.31556    0.00251     0.31807
      H   22    0.09616      0.00000     0.40258    0.00126     0.40384
      H   23    0.08944      0.00000     0.40735    0.00321     0.41056
      H   24    0.10711      0.00000     0.39076    0.00213     0.39289
      H   25    0.19963      0.00000     0.29782    0.00254     0.30037
      H   26    0.11160      0.00000     0.38647    0.00192     0.38840
      H   27    0.11252      0.00000     0.38648    0.00101     0.38748
      H   28    0.10249      0.00000     0.39668    0.00083     0.39751
      H   29    0.11696      0.00000     0.38213    0.00091     0.38304
      H   30    0.09885      0.00000     0.40036    0.00079     0.40115
      H   31    0.09630      0.00000     0.40292    0.00079     0.40370
      H   32    0.10091      0.00000     0.39788    0.00122     0.39909
      H   33    0.10241      0.00000     0.39624    0.00136     0.39759
      H   34    0.09849      0.00000     0.40060    0.00091     0.40151
 =======================================================================
   * Total *   -0.00000     13.99479    39.82549    0.17972    54.00000

 Normal termination of Gaussian 16 at Thu Dec 10 11:57:08 2020.
