 Gaussian 16, Revision A.03,

 -----------------------------------------------------------
 # opt freq B3LYP/6-31G(d) empiricaldispersion=gd3bj scf=xqc
 -----------------------------------------------------------

 -------------------------------
 CID_129798593_JID_4496_neutraal
 -------------------------------
 Symbolic Z-matrix:
 Charge =  0 Multiplicity = 1

 SCF Done:  E(RB3LYP) =  -612.260409037     A.U. after   15 cycles
 SCF Done:  E(RB3LYP) =  -612.264009800     A.U. after   12 cycles
 SCF Done:  E(RB3LYP) =  -612.263547338     A.U. after   13 cycles
 SCF Done:  E(RB3LYP) =  -612.265365616     A.U. after   12 cycles
 SCF Done:  E(RB3LYP) =  -612.265857778     A.U. after   11 cycles
 SCF Done:  E(RB3LYP) =  -612.266036703     A.U. after   11 cycles
 SCF Done:  E(RB3LYP) =  -612.266078250     A.U. after   10 cycles
 SCF Done:  E(RB3LYP) =  -612.266102630     A.U. after   10 cycles
 SCF Done:  E(RB3LYP) =  -612.266114659     A.U. after   10 cycles
 SCF Done:  E(RB3LYP) =  -612.266128885     A.U. after   10 cycles
 SCF Done:  E(RB3LYP) =  -612.266205453     A.U. after   10 cycles
 SCF Done:  E(RB3LYP) =  -612.266205496     A.U. after    7 cycles
 SCF Done:  E(RB3LYP) =  -612.266205522     A.U. after    7 cycles
 SCF Done:  E(RB3LYP) =  -612.266205539     A.U. after    7 cycles
 SCF Done:  E(RB3LYP) =  -612.266205545     A.U. after    7 cycles
 Optimization completed.
    -- Stationary point found.
 Normal termination of Gaussian 16 at Thu Dec 10 09:59:13 2020.

 --------------------------------------------------------------------
 #N Geom=AllCheck Guess=TCheck SCRF=Check GenChk RB3LYP/6-31G(d) Freq
 --------------------------------------------------------------------

 Structure from the checkpoint file:  "JID_4496.chk"
 -------------------------------
 CID_129798593_JID_4496_neutraal
 -------------------------------
 Charge =  0 Multiplicity = 1

 SCF Done:  E(RB3LYP) =  -612.266205545     A.U. after    1 cycles

  Exact polarizability: 207.997   0.633 137.853  -8.949  -3.876  72.951
 Approx polarizability: 292.217  -3.126 205.385 -18.036  -7.999 112.775

                      1                      2                      3
                      A                      A                      A
 Frequencies --     18.1936                46.4477                64.0200
 Red. masses --      3.9873                 3.2179                 3.6674
 Frc consts  --      0.0008                 0.0041                 0.0089
 IR Inten    --      0.1890                 0.9991                 0.1146

                      4                      5                      6
                      A                      A                      A
 Frequencies --     87.1177               150.3830               159.1451
 Red. masses --      2.9019                 2.2547                 2.6753
 Frc consts  --      0.0130                 0.0300                 0.0399
 IR Inten    --      1.1391                 0.7441                 0.9631

                      7                      8                      9
                      A                      A                      A
 Frequencies --    163.3225               184.6727               200.2037
 Red. masses --      1.9975                 1.2895                 1.5311
 Frc consts  --      0.0314                 0.0259                 0.0362
 IR Inten    --      1.8351                 0.7304                 0.9182

                     10                     11                     12
                      A                      A                      A
 Frequencies --    209.3988               247.2249               271.3756
 Red. masses --      2.5406                 3.0735                 3.1577
 Frc consts  --      0.0656                 0.1107                 0.1370
 IR Inten    --      2.1992                 1.9621                 1.4498

                     13                     14                     15
                      A                      A                      A
 Frequencies --    292.1561               334.4935               343.0487
 Red. masses --      2.4778                 3.4279                 3.7140
 Frc consts  --      0.1246                 0.2260                 0.2575
 IR Inten    --      2.9806                 0.4468                 3.5860

                     16                     17                     18
                      A                      A                      A
 Frequencies --    382.8281               506.6921               542.0252
 Red. masses --      3.3560                 3.3761                 3.9845
 Frc consts  --      0.2898                 0.5107                 0.6897
 IR Inten    --      3.2929                 0.9591                 3.5304

                     19                     20                     21
                      A                      A                      A
 Frequencies --    563.0686               597.7345               622.8428
 Red. masses --      4.6288                 2.8014                 2.9110
 Frc consts  --      0.8647                 0.5897                 0.6653
 IR Inten    --     10.3231                 5.8963                 1.7004

                     22                     23                     24
                      A                      A                      A
 Frequencies --    630.1408               685.2223               702.5559
 Red. masses --      3.1932                 1.7241                 2.5225
 Frc consts  --      0.7471                 0.4769                 0.7336
 IR Inten    --      2.7247                25.8153                 8.3175

                     25                     26                     27
                      A                      A                      A
 Frequencies --    711.7876               716.1313               729.9822
 Red. masses --      1.7920                 1.9081                 2.8591
 Frc consts  --      0.5349                 0.5766                 0.8976
 IR Inten    --      5.0824                 4.4726                 8.1458

                     28                     29                     30
                      A                      A                      A
 Frequencies --    748.6773               832.6435               845.8109
 Red. masses --      3.4107                 1.2897                 1.3909
 Frc consts  --      1.1264                 0.5268                 0.5863
 IR Inten    --      7.5952                 4.4334                48.5311

                     31                     32                     33
                      A                      A                      A
 Frequencies --    874.2408               915.8870               946.0944
 Red. masses --      1.3742                 5.6080                 2.6948
 Frc consts  --      0.6188                 2.7717                 1.4212
 IR Inten    --     47.7851               136.4243                31.6340

                     34                     35                     36
                      A                      A                      A
 Frequencies --    983.8178               988.5347              1002.1998
 Red. masses --      2.2654                 1.1013                 1.1026
 Frc consts  --      1.2919                 0.6341                 0.6525
 IR Inten    --     20.7973                18.1063                19.4260

                     37                     38                     39
                      A                      A                      A
 Frequencies --   1053.2974              1060.7892              1071.6895
 Red. masses --      1.8532                 1.5381                 1.5020
 Frc consts  --      1.2113                 1.0198                 1.0164
 IR Inten    --      9.6864                18.5023                 7.2616

                     40                     41                     42
                      A                      A                      A
 Frequencies --   1076.4855              1085.8907              1098.9480
 Red. masses --      1.5209                 1.5293                 1.7993
 Frc consts  --      1.0384                 1.0625                 1.2803
 IR Inten    --      9.2197                 1.5791                 3.5599

                     43                     44                     45
                      A                      A                      A
 Frequencies --   1178.9939              1200.1629              1221.6321
 Red. masses --      2.4042                 3.2228                 2.3754
 Frc consts  --      1.9690                 2.7350                 2.0887
 IR Inten    --     41.6454               238.1857                22.3183

                     46                     47                     48
                      A                      A                      A
 Frequencies --   1291.0443              1345.8920              1355.6999
 Red. masses --      2.9719                 2.2144                 1.1822
 Frc consts  --      2.9185                 2.3634                 1.2802
 IR Inten    --    107.4506                54.9233                14.6710

                     49                     50                     51
                      A                      A                      A
 Frequencies --   1369.6845              1419.7405              1431.6825
 Red. masses --      2.3050                 3.2051                 1.2823
 Frc consts  --      2.5478                 3.8064                 1.5486
 IR Inten    --     20.7334                13.1398                 4.4856

                     52                     53                     54
                      A                      A                      A
 Frequencies --   1444.6375              1447.2786              1463.0609
 Red. masses --      1.2298                 1.3405                 2.1706
 Frc consts  --      1.5121                 1.6544                 2.7374
 IR Inten    --     11.7330                 2.3587                20.6080

                     55                     56                     57
                      A                      A                      A
 Frequencies --   1483.3003              1504.2267              1508.4225
 Red. masses --      1.5503                 1.0766                 1.0515
 Frc consts  --      2.0097                 1.4352                 1.4096
 IR Inten    --     55.5490                 7.7774                14.6836

                     58                     59                     60
                      A                      A                      A
 Frequencies --   1513.1347              1518.0371              1550.4979
 Red. masses --      1.2198                 1.0814                 3.5285
 Frc consts  --      1.6455                 1.4683                 4.9978
 IR Inten    --     13.0400                14.0695                75.3943

                     61                     62                     63
                      A                      A                      A
 Frequencies --   1619.0058              1692.2084              1728.6914
 Red. masses --      6.3750                 7.4313                 4.9619
 Frc consts  --      9.8452                12.5379                 8.7365
 IR Inten    --     82.4601               160.0901               154.0023

                     64                     65                     66
                      A                      A                      A
 Frequencies --   1731.5695              3044.0314              3052.9720
 Red. masses --      4.5012                 1.0428                 1.0376
 Frc consts  --      7.9517                 5.6932                 5.6980
 IR Inten    --     96.1211                24.5310                17.2618

                     67                     68                     69
                      A                      A                      A
 Frequencies --   3095.5272              3107.5806              3158.7361
 Red. masses --      1.1000                 1.0999                 1.1015
 Frc consts  --      6.2101                 6.2583                 6.4750
 IR Inten    --     18.8309                14.6048                13.9585

                     70                     71                     72
                      A                      A                      A
 Frequencies --   3167.2641              3193.7023              3196.6698
 Red. masses --      1.0957                 1.0590                 1.0624
 Frc consts  --      6.4762                 6.3638                 6.3962
 IR Inten    --      5.2601                 1.7040                 2.2602

                     73                     74                     75
                      A                      A                      A
 Frequencies --   3214.5518              3229.2636              3263.4012
 Red. masses --      1.0910                 1.0931                 1.0924
 Frc consts  --      6.6423                 6.7163                 6.8544
 IR Inten    --     13.9650                 5.9064                 4.2268

                     76                     77                     78
                      A                      A                      A
 Frequencies --   3277.5727              3297.1508              3301.5930
 Red. masses --      1.1162                 1.1155                 1.1007
 Frc consts  --      7.0648                 7.1452                 7.0694
 IR Inten    --      7.4479                10.1429                 1.4113

 - Thermochemistry -
 -------------------
 Temperature   298.150 Kelvin.  Pressure   1.00000 Atm.
 Atom     1 has atomic number  6 and mass  12.00000

 Molecular mass:   190.11061 amu.
 Principal axes and moments of inertia in atomic units:
                           1         2         3
     Eigenvalues --  1449.678734274.608315327.36840
           X            0.99998  -0.00478  -0.00442
           Y            0.00477   0.99998  -0.00341
           Z            0.00444   0.00339   0.99998
 This molecule is an asymmetric top.
 Rotational symmetry number  1.
 Warning -- assumption of classical behavior for rotation
           may cause significant error
 Rotational temperatures (Kelvin)      0.05975     0.02026     0.01626
 Rotational constants (GHZ):           1.24492     0.42220     0.33877
 Zero-point vibrational energy     606302.4 (Joules/Mol)
                                  144.90975 (Kcal/Mol)
 Warning -- explicit consideration of  20 degrees of freedom as
           vibrations may cause significant error
 Vibrational temperatures:     26.18    66.83    92.11   125.34   216.37
          (Kelvin)            228.97   234.98   265.70   288.05   301.28
                              355.70   390.45   420.35   481.26   493.57
                              550.80   729.02   779.85   810.13   860.01
                              896.13   906.63   985.88  1010.82  1024.10
                             1030.35  1050.28  1077.18  1197.99  1216.93
                             1257.84  1317.76  1361.22  1415.49  1422.28
                             1441.94  1515.46  1526.24  1541.92  1548.82
                             1562.35  1581.14  1696.31  1726.77  1757.66
                             1857.52  1936.44  1950.55  1970.67  2042.69
                             2059.87  2078.51  2082.31  2105.02  2134.14
                             2164.25  2170.28  2177.06  2184.12  2230.82
                             2329.39  2434.71  2487.20  2491.34  4379.68
                             4392.55  4453.77  4471.12  4544.72  4556.99
                             4595.03  4599.29  4625.02  4646.19  4695.31
                             4715.70  4743.86  4750.26

 Zero-point correction=                           0.230928 (Hartree/Particle)
 Thermal correction to Energy=                    0.245524
 Thermal correction to Enthalpy=                  0.246468
 Thermal correction to Gibbs Free Energy=         0.188328
 Sum of electronic and zero-point Energies=           -612.035277
 Sum of electronic and thermal Energies=              -612.020682
 Sum of electronic and thermal Enthalpies=            -612.019738
 Sum of electronic and thermal Free Energies=         -612.077878

                     E (Thermal)             CV                S
                      KCal/Mol        Cal/Mol-Kelvin    Cal/Mol-Kelvin
 Total                  154.068             54.028            122.366
 Electronic               0.000              0.000              0.000
 Translational            0.889              2.981             41.633
 Rotational               0.889              2.981             31.868
 Vibrational            152.291             48.067             48.865
 Vibration     1          0.593              1.986              6.822
 Vibration     2          0.595              1.979              4.963
 Vibration     3          0.597              1.971              4.329
 Vibration     4          0.601              1.958              3.724
 Vibration     5          0.618              1.902              2.667
 Vibration     6          0.621              1.892              2.560
 Vibration     7          0.623              1.887              2.511
 Vibration     8          0.631              1.861              2.281
 Vibration     9          0.638              1.840              2.131
 Vibration    10          0.642              1.826              2.049
 Vibration    11          0.661              1.767              1.750
 Vibration    12          0.675              1.726              1.587
 Vibration    13          0.688              1.688              1.461
 Vibration    14          0.716              1.607              1.238
 Vibration    15          0.722              1.589              1.198
 Vibration    16          0.752              1.507              1.028
 Vibration    17          0.862              1.235              0.642
 Vibration    18          0.897              1.157              0.561
 Vibration    19          0.919              1.111              0.518
 Vibration    20          0.956              1.037              0.454

                           ! Non-Optimized Parameters !
 Normal termination of Gaussian 16 at Thu Dec 10 10:06:43 2020.

 ----------------------------------------------------------------------
 # B3LYP/6-311++G(d,p) empiricaldispersion=gd3bj scf=xqc pop=npa geom=c
 heck
 ----------------------------------------------------------------------

 ---------------------------------------
 CID_129798593_JID_4496_Energie_neutraal
 ---------------------------------------
 Structure from the checkpoint file:  "JID_4496.chk"
 Charge =  0 Multiplicity = 1

 SCF Done:  E(RB3LYP) =  -612.435168500     A.U. after   15 cycles
 Normal termination of Gaussian 16 at Thu Dec 10 10:09:41 2020.

 ----------------------------------------------------------------------
 # B3LYP/6-311++G(d,p) empiricaldispersion=gd3bj scf=xqc pop=npa geom=c
 heck
 ----------------------------------------------------------------------

 -------------------------------------
 CID_129798593_JID_4496_Energie_kation
 -------------------------------------
 Structure from the checkpoint file:  "JID_4496.chk"
 Charge =  1 Multiplicity = 2

 SCF Done:  E(UB3LYP) =  -612.160652395     A.U. after   24 cycles
 Normal termination of Gaussian 16 at Thu Dec 10 10:16:30 2020.
 Gaussian 16:  ES64L-G16RevA.03 25-Dec-2016

 ----------------------------------------------------------------------
 # B3LYP/6-311++G(d,p) empiricaldispersion=gd3bj scf=xqc pop=npa geom=c
 heck
 ----------------------------------------------------------------------

 ------------------------------------
 CID_129798593_JID_4496_Energie_anion
 ------------------------------------
 Structure from the checkpoint file:  "JID_4496.chk"
 Charge = -1 Multiplicity = 2

                         Standard orientation:
 ---------------------------------------------------------------------
 Center     Atomic      Atomic             Coordinates (Angstroms)
 Number     Number       Type             X           Y           Z
 ---------------------------------------------------------------------
      1          6           0        0.302404   -1.477372    1.043134
      2          6           0        0.823847   -0.295496    0.294240
      3          6           0        0.198362    0.893128   -0.050677
      4          6           0        1.193217    1.745285   -0.642593
      5          6           0        2.371365    1.054260   -0.667243
      6          7           0        2.155026   -0.190994   -0.089564
      7          6           0        3.121374   -1.189896    0.101437
      8          6           0        4.443155   -1.024888    0.016625
      9          6           0       -1.196097    1.272294    0.196255
     10          7           0       -2.252755    0.559543    0.001957
     11          8           0       -1.942355   -0.680113   -0.605969
     12          6           0       -3.011839   -1.534740   -0.630075
     13          6           0       -4.209022   -1.382788   -0.066938
     14          6           0       -1.466664    2.658720    0.723432
     15          1           0        0.983216   -1.777898    1.847858
     16          1           0        0.141364   -2.344326    0.389671
     17          1           0       -0.661428   -1.231700    1.489879
     18          1           0        1.031326    2.735694   -1.044216
     19          1           0        3.333894    1.310621   -1.080068
     20          1           0        2.694103   -2.161402    0.321516
     21          1           0        5.098455   -1.877637    0.147851
     22          1           0        4.908573   -0.065553   -0.181385
     23          1           0       -2.726388   -2.414935   -1.199032
     24          1           0       -4.947147   -2.167561   -0.185749
     25          1           0       -4.473521   -0.495639    0.492407
     26          1           0       -0.935323    2.822343    1.667733
     27          1           0       -1.106300    3.414422    0.014864
     28          1           0       -2.538505    2.803582    0.874083
 ---------------------------------------------------------------------

 SCF Done:  E(UB3LYP) =  -612.424824196     A.U. after   33 cycles
 SCF Done:  E(UB3LYP) =  -612.424824196     a.u. after    1 cycles

 The electronic state is 2-A.
 Alpha  occ. eigenvalues --  -19.05261 -14.23537 -14.21399 -10.10838 -10.08221
 Alpha  occ. eigenvalues --  -10.07072 -10.06169 -10.06028 -10.05807 -10.04509
 Alpha  occ. eigenvalues --  -10.03800 -10.03704 -10.03350 -10.02396  -0.97252
 Alpha  occ. eigenvalues --   -0.85964  -0.76319  -0.68770  -0.63955  -0.63907
 Alpha  occ. eigenvalues --   -0.61047  -0.59678  -0.55330  -0.49977  -0.49124
 Alpha  occ. eigenvalues --   -0.46877  -0.40449  -0.39277  -0.38771  -0.37997
 Alpha  occ. eigenvalues --   -0.36467  -0.32877  -0.32384  -0.31490  -0.30145
 Alpha  occ. eigenvalues --   -0.29932  -0.29171  -0.28743  -0.28566  -0.26930
 Alpha  occ. eigenvalues --   -0.26649  -0.26316  -0.25769  -0.24722  -0.23804
 Alpha  occ. eigenvalues --   -0.18610  -0.16812  -0.15267  -0.11552  -0.09887
 Alpha  occ. eigenvalues --   -0.08384   0.05634
 Alpha virt. eigenvalues --    0.07826   0.08375   0.08709   0.09606   0.09862
 Alpha virt. eigenvalues --    0.10102   0.11076   0.11394   0.11771   0.12594
 Alpha virt. eigenvalues --    0.13064   0.13531   0.13802   0.14400   0.14922

  Beta  occ. eigenvalues --  -19.05270 -14.23565 -14.21179 -10.10804 -10.08071
  Beta  occ. eigenvalues --  -10.06894 -10.06121 -10.05820 -10.05679 -10.04531
  Beta  occ. eigenvalues --  -10.03804 -10.03697 -10.03386 -10.02177  -0.97158
  Beta  occ. eigenvalues --   -0.85800  -0.76039  -0.68488  -0.63816  -0.63646
  Beta  occ. eigenvalues --   -0.60841  -0.59530  -0.55235  -0.49607  -0.48929
  Beta  occ. eigenvalues --   -0.46749  -0.40171  -0.39114  -0.38647  -0.37899
  Beta  occ. eigenvalues --   -0.36299  -0.32580  -0.31973  -0.31347  -0.30002
  Beta  occ. eigenvalues --   -0.29736  -0.29060  -0.28649  -0.28461  -0.26804
  Beta  occ. eigenvalues --   -0.26515  -0.26211  -0.25674  -0.24587  -0.23666
  Beta  occ. eigenvalues --   -0.17905  -0.16008  -0.15036  -0.11227  -0.09042
  Beta  occ. eigenvalues --   -0.07540
  Beta virt. eigenvalues --    0.07946   0.08430   0.08713   0.09597   0.10056
  Beta virt. eigenvalues --    0.10209   0.10789   0.11217   0.11538   0.11799
  Beta virt. eigenvalues --    0.12692   0.13083   0.13708   0.14024   0.14447

 Mulliken charges and spin densities:
               1          2
     1  C   -0.326472  -0.537241
     2  C   -0.448205   0.512999
     3  C    1.344311  -0.225016
     4  C   -0.053524  -0.089396
     5  C   -0.243573   0.103497
     6  N    0.300766   0.021998
     7  C    0.035082   0.026440
     8  C   -0.468337   0.213665
     9  C   -0.934387   0.111470
    10  N   -0.264259   0.107885
    11  O    0.134757   0.010014
    12  C    0.093518  -0.048802
    13  C   -0.030481  -0.380619
    14  C   -0.741779  -0.018817
    15  H    0.126538   0.011919
    16  H   -0.077131   0.271934
    17  H    0.122350   0.030045
    18  H    0.072536   0.041303
    19  H    0.137738  -0.028554
    20  H   -0.034930   0.160327
    21  H    0.065395   0.032548
    22  H    0.023122   0.054290
    23  H   -0.297756   0.448928
    24  H   -0.011870   0.113366
    25  H    0.099491   0.025892
    26  H    0.102844   0.040804
    27  H    0.137297  -0.005046
    28  H    0.136961  -0.005838
 Sum of Mulliken charges =  -1.00000   1.00000

 Dipole moment (field-independent basis, Debye):
    X=             -0.8855    Y=              3.2717    Z=              0.6395  Tot=              3.4492
 Quadrupole moment (field-independent basis, Debye-Ang):
   XX=           -143.9496   YY=           -106.7783   ZZ=           -100.4045
   XY=             -1.0330   XZ=             -5.1038   YZ=             -2.8623

 Summary of Natural Population Analysis:

                                       Natural Population
                Natural  -----------------------------------------------
    Atom  No    Charge         Core      Valence    Rydberg      Total
 -----------------------------------------------------------------------
      C    1   -0.30824      0.99963     2.30273    0.00588     3.30824
      C    2    0.16874      0.99949     1.81953    0.01223     2.83126
      C    3   -0.10699      0.99943     2.09613    0.01143     3.10699
      C    4   -0.13224      0.99954     2.12397    0.00873     3.13224
      C    5   -0.01806      0.99957     2.00670    0.01179     3.01806
      N    6   -0.20586      0.99961     2.69766    0.00859     3.70586
      C    7    0.03206      0.99955     1.95736    0.01104     2.96794
      C    8   -0.18964      0.99961     2.18117    0.00887     3.18964
      C    9    0.14543      0.99958     1.83964    0.01534     2.85457
      N   10   -0.07966      0.99960     2.56670    0.01335     3.57966
      O   11   -0.21027      0.99987     3.19799    0.01240     4.21027
      C   12    0.09294      0.99948     1.89128    0.01630     2.90706
      C   13   -0.27176      0.99959     2.26368    0.00850     3.27176
      C   14   -0.29408      0.99963     2.29002    0.00444     3.29408
      H   15    0.10038      0.00000     0.39866    0.00096     0.39962
      H   16    0.10939      0.00000     0.38848    0.00213     0.39061
      H   17    0.11211      0.00000     0.38693    0.00096     0.38789
      H   18    0.09817      0.00000     0.40093    0.00090     0.40183
      H   19    0.09729      0.00000     0.40157    0.00115     0.40271
      H   20    0.09166      0.00000     0.40707    0.00127     0.40834
      H   21    0.09086      0.00000     0.40828    0.00086     0.40914
      H   22    0.08761      0.00000     0.41131    0.00108     0.41239
      H   23    0.08595      0.00000     0.41269    0.00136     0.41405
      H   24    0.09358      0.00000     0.40569    0.00074     0.40642
      H   25    0.10545      0.00000     0.39345    0.00110     0.39455
      H   26    0.10154      0.00000     0.39712    0.00133     0.39846
      H   27    0.09981      0.00000     0.39922    0.00097     0.40019
      H   28    0.10383      0.00000     0.39523    0.00093     0.39617
 =======================================================================
   * Total *    0.00000     13.99418    36.84120    0.16461    51.00000

 Normal termination of Gaussian 16 at Thu Dec 10 10:25:29 2020.
