 Gaussian 16, Revision A.03,

 -----------------------------------------------------------
 # opt freq B3LYP/6-31G(d) empiricaldispersion=gd3bj scf=xqc
 -----------------------------------------------------------

 -------------------------------
 CID_115856620_JID_2350_neutraal
 -------------------------------
 Symbolic Z-matrix:
 Charge =  0 Multiplicity = 1

 SCF Done:  E(RB3LYP) =  -523.709835562     A.U. after   13 cycles
 SCF Done:  E(RB3LYP) =  -523.711526633     A.U. after   11 cycles
 SCF Done:  E(RB3LYP) =  -523.711848439     A.U. after   11 cycles
 SCF Done:  E(RB3LYP) =  -523.714152645     A.U. after   11 cycles
 SCF Done:  E(RB3LYP) =  -523.715195132     A.U. after   10 cycles
 SCF Done:  E(RB3LYP) =  -523.715512929     A.U. after   10 cycles
 SCF Done:  E(RB3LYP) =  -523.715380801     A.U. after   10 cycles
 SCF Done:  E(RB3LYP) =  -523.715558014     A.U. after   10 cycles
 SCF Done:  E(RB3LYP) =  -523.715647081     A.U. after    9 cycles
 SCF Done:  E(RB3LYP) =  -523.715665260     A.U. after    9 cycles
 SCF Done:  E(RB3LYP) =  -523.715670320     A.U. after    7 cycles
 SCF Done:  E(RB3LYP) =  -523.715676809     A.U. after    8 cycles
 SCF Done:  E(RB3LYP) =  -523.715679296     A.U. after    8 cycles
 SCF Done:  E(RB3LYP) =  -523.715680857     A.U. after    7 cycles
 SCF Done:  E(RB3LYP) =  -523.715681091     A.U. after    7 cycles
 SCF Done:  E(RB3LYP) =  -523.715681294     A.U. after    6 cycles
 Optimization completed.
    -- Stationary point found.
 Normal termination of Gaussian 16 at Wed Dec  9 17:14:07 2020.

 --------------------------------------------------------------------
 #N Geom=AllCheck Guess=TCheck SCRF=Check GenChk RB3LYP/6-31G(d) Freq
 --------------------------------------------------------------------

 Structure from the checkpoint file:  "JID_2350.chk"
 -------------------------------
 CID_115856620_JID_2350_neutraal
 -------------------------------
 Charge =  0 Multiplicity = 1

 SCF Done:  E(RB3LYP) =  -523.715681294     A.U. after    1 cycles

  Exact polarizability: 118.206   2.448 109.385  -3.231   2.339 106.606
 Approx polarizability: 153.181   1.887 156.501  -2.788   2.291 157.246

                      1                      2                      3
                      A                      A                      A
 Frequencies --     57.7297                93.2295               129.8685
 Red. masses --      3.3628                 2.5014                 2.3522
 Frc consts  --      0.0066                 0.0128                 0.0234
 IR Inten    --      0.3975                 0.7145                 2.2629

                      4                      5                      6
                      A                      A                      A
 Frequencies --    144.1752               189.8241               206.1297
 Red. masses --      2.0682                 2.4488                 1.7277
 Frc consts  --      0.0253                 0.0520                 0.0433
 IR Inten    --      0.2352                 8.3705                23.6898

                      7                      8                      9
                      A                      A                      A
 Frequencies --    228.0754               239.7162               260.5741
 Red. masses --      1.3275                 2.7151                 1.8850
 Frc consts  --      0.0407                 0.0919                 0.0754
 IR Inten    --      1.9893                 0.5472                11.1520

                     10                     11                     12
                      A                      A                      A
 Frequencies --    276.0624               281.9290               312.5927
 Red. masses --      1.4725                 2.0733                 1.9204
 Frc consts  --      0.0661                 0.0971                 0.1106
 IR Inten    --      1.1845                 3.6455                 7.2203

                     13                     14                     15
                      A                      A                      A
 Frequencies --    338.6022               357.4343               383.6470
 Red. masses --      1.4605                 1.8637                 1.7661
 Frc consts  --      0.0987                 0.1403                 0.1532
 IR Inten    --      7.4762                 6.8312                 3.8666

                     16                     17                     18
                      A                      A                      A
 Frequencies --    394.3836               427.9121               458.0801
 Red. masses --      2.3954                 2.1828                 2.7083
 Frc consts  --      0.2195                 0.2355                 0.3348
 IR Inten    --      1.8386                 3.2310                 0.3959

                     19                     20                     21
                      A                      A                      A
 Frequencies --    528.1673               590.2791               662.8389
 Red. masses --      3.0241                 2.5461                 3.5581
 Frc consts  --      0.4970                 0.5227                 0.9211
 IR Inten    --      1.5373                 0.0921                 5.3898

                     22                     23                     24
                      A                      A                      A
 Frequencies --    704.6346               765.9464               787.0229
 Red. masses --      3.2565                 3.0166                 1.3544
 Frc consts  --      0.9526                 1.0427                 0.4943
 IR Inten    --      4.6071                 5.5831                 5.5323

                     25                     26                     27
                      A                      A                      A
 Frequencies --    806.6664               846.6299               893.9895
 Red. masses --      2.1439                 1.4988                 1.6136
 Frc consts  --      0.8220                 0.6330                 0.7598
 IR Inten    --     17.2963                 2.9284                67.0925

                     28                     29                     30
                      A                      A                      A
 Frequencies --    921.1858               924.8801               953.3488
 Red. masses --      2.4470                 1.9993                 2.7058
 Frc consts  --      1.2234                 1.0076                 1.4489
 IR Inten    --     21.7026                29.3062                27.1048

                     31                     32                     33
                      A                      A                      A
 Frequencies --    962.5573               965.1790               991.1854
 Red. masses --      1.5315                 2.6740                 2.2202
 Frc consts  --      0.8360                 1.4676                 1.2851
 IR Inten    --      4.4215                43.1608                 3.1597

                     34                     35                     36
                      A                      A                      A
 Frequencies --   1014.1834              1030.4750              1041.1219
 Red. masses --      2.0483                 1.3693                 1.8918
 Frc consts  --      1.2413                 0.8567                 1.2082
 IR Inten    --     17.4967                 8.0851                 7.7568

                     37                     38                     39
                      A                      A                      A
 Frequencies --   1072.8428              1080.0718              1089.7479
 Red. masses --      2.2007                 1.5317                 1.8014
 Frc consts  --      1.4924                 1.0528                 1.2604
 IR Inten    --      1.7617                 8.7198                22.5656

                     40                     41                     42
                      A                      A                      A
 Frequencies --   1100.5056              1135.4068              1166.8551
 Red. masses --      2.1722                 3.8014                 1.9805
 Frc consts  --      1.5500                 2.8874                 1.5887
 IR Inten    --      0.6247                51.1398                12.6741

                     43                     44                     45
                      A                      A                      A
 Frequencies --   1175.7418              1223.5890              1237.2975
 Red. masses --      1.5752                 1.3646                 1.9633
 Frc consts  --      1.2829                 1.2038                 1.7709
 IR Inten    --      1.6179                 1.4208                 2.5767

                     46                     47                     48
                      A                      A                      A
 Frequencies --   1241.5422              1255.2578              1274.8966
 Red. masses --      1.8415                 1.2101                 1.4246
 Frc consts  --      1.6724                 1.1234                 1.3642
 IR Inten    --      2.7912                 2.1756                 1.1934

                     49                     50                     51
                      A                      A                      A
 Frequencies --   1286.0296              1310.5355              1327.8151
 Red. masses --      1.8319                 1.2155                 1.3851
 Frc consts  --      1.7850                 1.2300                 1.4388
 IR Inten    --      5.2441                 0.7292                 2.0659

                     52                     53                     54
                      A                      A                      A
 Frequencies --   1350.5195              1364.5633              1371.1004
 Red. masses --      1.3067                 1.4312                 1.2486
 Frc consts  --      1.4042                 1.5702                 1.3830
 IR Inten    --      3.6087                 3.1179                 1.3616

                     55                     56                     57
                      A                      A                      A
 Frequencies --   1392.7447              1400.1219              1421.5651
 Red. masses --      1.2726                 1.3122                 1.2798
 Frc consts  --      1.4544                 1.5156                 1.5238
 IR Inten    --      8.3929                 5.6852                 4.2554

                     58                     59                     60
                      A                      A                      A
 Frequencies --   1427.5034              1439.1145              1445.6334
 Red. masses --      1.2695                 1.2975                 1.2342
 Frc consts  --      1.5242                 1.5832                 1.5197
 IR Inten    --      3.5009                 1.0260                 5.6042

                     61                     62                     63
                      A                      A                      A
 Frequencies --   1461.4774              1509.2709              1518.9356
 Red. masses --      1.2696                 1.0598                 1.0665
 Frc consts  --      1.5977                 1.4223                 1.4498
 IR Inten    --     14.2946                 2.1850                 2.0309

                     64                     65                     66
                      A                      A                      A
 Frequencies --   1522.8034              1532.5811              1533.7105
 Red. masses --      1.0560                 1.0699                 1.0477
 Frc consts  --      1.4428                 1.4806                 1.4521
 IR Inten    --      3.0903                 6.8377                 3.9853

                     67                     68                     69
                      A                      A                      A
 Frequencies --   1536.5713              1541.9410              1546.9901
 Red. masses --      1.0726                 1.0660                 1.0606
 Frc consts  --      1.4921                 1.4932                 1.4955
 IR Inten    --      0.4292                 3.0382                 4.0350

                     70                     71                     72
                      A                      A                      A
 Frequencies --   1555.1305              1571.3491              1696.3368
 Red. masses --      1.0956                 1.0580                 1.0874
 Frc consts  --      1.5611                 1.5392                 1.8436
 IR Inten    --      5.7985                 6.5410                23.4529

                     73                     74                     75
                      A                      A                      A
 Frequencies --   2980.1458              3001.8624              3013.4433
 Red. masses --      1.0748                 1.0729                 1.0837
 Frc consts  --      5.6240                 5.6965                 5.7983
 IR Inten    --     67.6299               102.4365                16.6513

                     76                     77                     78
                      A                      A                      A
 Frequencies --   3033.7978              3036.8086              3041.2561
 Red. masses --      1.0705                 1.0835                 1.0405
 Frc consts  --      5.8050                 5.8875                 5.6703
 IR Inten    --     22.2697                51.2143                11.8553

                     79                     80                     81
                      A                      A                      A
 Frequencies --   3049.0288              3054.5520              3089.4672
 Red. masses --      1.0442                 1.0381                 1.0700
 Frc consts  --      5.7197                 5.7066                 6.0174
 IR Inten    --     77.1863                16.7348                40.1610

                     82                     83                     84
                      A                      A                      A
 Frequencies --   3095.9402              3098.1685              3102.8084
 Red. masses --      1.1016                 1.0896                 1.1001
 Frc consts  --      6.2210                 6.1622                 6.2404
 IR Inten    --      1.8069                20.9821                30.3195

                     85                     86                     87
                      A                      A                      A
 Frequencies --   3107.6263              3111.0692              3134.2064
 Red. masses --      1.1001                 1.0934                 1.1001
 Frc consts  --      6.2596                 6.2353                 6.3672
 IR Inten    --     71.7469                57.5156                43.9757

                     88                     89                     90
                      A                      A                      A
 Frequencies --   3152.0173              3152.9938              3157.5658
 Red. masses --      1.0918                 1.0951                 1.0962
 Frc consts  --      6.3911                 6.4142                 6.4395
 IR Inten    --     26.8846                15.2701                 1.9709

                     91                     92                     93
                      A                      A                      A
 Frequencies --   3169.4615              3468.9204              3558.8012
 Red. masses --      1.0955                 1.0506                 1.0900
 Frc consts  --      6.4837                 7.4490                 8.1337
 IR Inten    --     15.0666                 4.4814                 0.2772

 - Thermochemistry -
 -------------------
 Temperature   298.150 Kelvin.  Pressure   1.00000 Atm.
 Atom     1 has atomic number  6 and mass  12.00000

 Molecular mass:   171.16231 amu.
 Principal axes and moments of inertia in atomic units:
                           1         2         3
     Eigenvalues --  1431.749422527.339662609.33190
           X            0.99967   0.01419  -0.02153
           Y           -0.01176   0.99399   0.10881
           Z            0.02294  -0.10852   0.99383
 This molecule is an asymmetric top.
 Rotational symmetry number  1.
 Warning -- assumption of classical behavior for rotation
           may cause significant error
 Rotational temperatures (Kelvin)      0.06050     0.03427     0.03319
 Rotational constants (GHZ):           1.26051     0.71409     0.69165
 Zero-point vibrational energy     806871.0 (Joules/Mol)
                                  192.84680 (Kcal/Mol)
 Warning -- explicit consideration of  20 degrees of freedom as
           vibrations may cause significant error
 Vibrational temperatures:     83.06   134.14   186.85   207.44   273.11
          (Kelvin)            296.57   328.15   344.90   374.91   397.19
                              405.63   449.75   487.17   514.27   551.98
                              567.43   615.67   659.08   759.91   849.28
                              953.68  1013.81  1102.03  1132.35  1160.61
                             1218.11  1286.25  1325.38  1330.70  1371.66
                             1384.91  1388.68  1426.09  1459.18  1482.62
                             1497.94  1543.58  1553.98  1567.90  1583.38
                             1633.60  1678.84  1691.63  1760.47  1780.20
                             1786.30  1806.04  1834.29  1850.31  1885.57
                             1910.43  1943.10  1963.30  1972.71  2003.85
                             2014.46  2045.32  2053.86  2070.56  2079.94
                             2102.74  2171.50  2185.41  2190.97  2205.04
                             2206.67  2210.78  2218.51  2225.77  2237.49
                             2260.82  2440.65  4287.77  4319.01  4335.67
                             4364.96  4369.29  4375.69  4386.87  4394.82
                             4445.05  4454.37  4457.57  4464.25  4471.18
                             4476.13  4509.42  4535.05  4536.45  4543.03
                             4560.15  4991.00  5120.32

 Zero-point correction=                           0.307321 (Hartree/Particle)
 Thermal correction to Energy=                    0.320605
 Thermal correction to Enthalpy=                  0.321549
 Thermal correction to Gibbs Free Energy=         0.269088
 Sum of electronic and zero-point Energies=           -523.408360
 Sum of electronic and thermal Energies=              -523.395076
 Sum of electronic and thermal Enthalpies=            -523.394132
 Sum of electronic and thermal Free Energies=         -523.446594

                     E (Thermal)             CV                S
                      KCal/Mol        Cal/Mol-Kelvin    Cal/Mol-Kelvin
 Total                  201.183             52.330            110.414
 Electronic               0.000              0.000              0.000
 Translational            0.889              2.981             41.320
 Rotational               0.889              2.981             30.624
 Vibrational            199.405             46.368             38.470
 Vibration     1          0.596              1.974              4.533
 Vibration     2          0.602              1.954              3.591
 Vibration     3          0.612              1.923              2.948
 Vibration     4          0.616              1.909              2.748
 Vibration     5          0.633              1.854              2.230
 Vibration     6          0.641              1.831              2.078
 Vibration     7          0.651              1.798              1.894
 Vibration     8          0.657              1.780              1.805
 Vibration     9          0.669              1.745              1.658
 Vibration    10          0.678              1.718              1.558
 Vibration    11          0.681              1.707              1.522
 Vibration    12          0.701              1.650              1.349
 Vibration    13          0.719              1.598              1.219
 Vibration    14          0.733              1.560              1.133
 Vibration    15          0.753              1.505              1.025
 Vibration    16          0.761              1.482              0.984
 Vibration    17          0.789              1.409              0.866
 Vibration    18          0.816              1.343              0.772
 Vibration    19          0.883              1.188              0.591
 Vibration    20          0.948              1.052              0.467

 Optimization completed.
    -- Stationary point found.
 Normal termination of Gaussian 16 at Wed Dec  9 17:23:45 2020.

 ----------------------------------------------------------------------
 # B3LYP/6-311++G(d,p) empiricaldispersion=gd3bj scf=xqc pop=npa geom=c
 heck
 ----------------------------------------------------------------------

 ---------------------------------------
 CID_115856620_JID_2350_Energie_neutraal
 ---------------------------------------
 Structure from the checkpoint file:  "JID_2350.chk"
 Charge =  0 Multiplicity = 1

 SCF Done:  E(RB3LYP) =  -523.870704641     A.U. after   14 cycles
 Normal termination of Gaussian 16 at Wed Dec  9 17:27:39 2020.

 ----------------------------------------------------------------------
 # B3LYP/6-311++G(d,p) empiricaldispersion=gd3bj scf=xqc pop=npa geom=c
 heck
 ----------------------------------------------------------------------

 -------------------------------------
 CID_115856620_JID_2350_Energie_kation
 -------------------------------------
 Structure from the checkpoint file:  "JID_2350.chk"
 Charge =  1 Multiplicity = 2

 SCF Done:  E(UB3LYP) =  -523.556183981     A.U. after   20 cycles
 Normal termination of Gaussian 16 at Wed Dec  9 17:37:13 2020.
 Gaussian 16:  ES64L-G16RevA.03 25-Dec-2016

 ----------------------------------------------------------------------
 # B3LYP/6-311++G(d,p) empiricaldispersion=gd3bj scf=xqc pop=npa geom=c
 heck
 ----------------------------------------------------------------------

 ------------------------------------
 CID_115856620_JID_2350_Energie_anion
 ------------------------------------
 Structure from the checkpoint file:  "JID_2350.chk"
 Charge = -1 Multiplicity = 2

                         Standard orientation:
 ---------------------------------------------------------------------
 Center     Atomic      Atomic             Coordinates (Angstroms)
 Number     Number       Type             X           Y           Z
 ---------------------------------------------------------------------
      1          6           0        1.820693   -1.824902   -1.066213
      2          6           0        1.167727   -0.458660   -1.309622
      3          6           0        1.208400    0.604378   -0.178783
      4          6           0        2.672610    0.860615    0.234659
      5          6           0        0.683524    1.915526   -0.803321
      6          6           0        0.405384    0.266757    1.127395
      7          6           0       -1.130431   -0.010504    1.088160
      8          6           0       -1.588020   -1.290226    0.331310
      9          6           0       -2.466001   -0.758699   -0.827769
     10          8           0       -2.258797    0.650004   -0.882178
     11          6           0       -2.045155    1.058868    0.463501
     12          7           0        1.092999   -0.789485    1.897000
     13          1           0        2.843681   -1.725160   -0.692099
     14          1           0        1.863633   -2.389117   -2.004972
     15          1           0        1.270947   -2.446411   -0.351445
     16          1           0        1.682538   -0.003684   -2.166920
     17          1           0        0.132282   -0.592172   -1.639061
     18          1           0        3.272988    1.108201   -0.649345
     19          1           0        2.731113    1.710592    0.925644
     20          1           0        3.112466    0.001157    0.740598
     21          1           0       -0.289004    1.780180   -1.280350
     22          1           0        0.606563    2.711163   -0.052077
     23          1           0        1.385803    2.261831   -1.570480
     24          1           0        0.510771    1.173805    1.739961
     25          1           0       -1.401293   -0.109018    2.147210
     26          1           0       -2.167066   -1.950982    0.983221
     27          1           0       -0.742199   -1.870407   -0.039539
     28          1           0       -2.200710   -1.169528   -1.805640
     29          1           0       -3.529640   -0.973076   -0.639124
     30          1           0       -3.007164    1.086937    1.002718
     31          1           0       -1.628471    2.066458    0.452859
     32          1           0        0.698626   -0.823471    2.836263
     33          1           0        0.901144   -1.699856    1.485105
 ---------------------------------------------------------------------

 SCF Done:  E(UB3LYP) =  -523.856663374     A.U. after   28 cycles

 The electronic state is 2-A.
 Alpha  occ. eigenvalues --  -19.01864 -14.18079 -10.10852 -10.10532 -10.09337
 Alpha  occ. eigenvalues --  -10.07994 -10.06737 -10.06265 -10.06014 -10.05875
 Alpha  occ. eigenvalues --  -10.05097 -10.04799  -0.93773  -0.78410  -0.70849
 Alpha  occ. eigenvalues --   -0.67277  -0.64257  -0.62944  -0.57810  -0.55405
 Alpha  occ. eigenvalues --   -0.52499  -0.49385  -0.47727  -0.42803  -0.40231
 Alpha  occ. eigenvalues --   -0.38515  -0.37569  -0.35809  -0.34737  -0.33574
 Alpha  occ. eigenvalues --   -0.33265  -0.31488  -0.31371  -0.29996  -0.29048
 Alpha  occ. eigenvalues --   -0.27685  -0.27469  -0.25914  -0.25413  -0.24993
 Alpha  occ. eigenvalues --   -0.23805  -0.23023  -0.21970  -0.21613  -0.20461
 Alpha  occ. eigenvalues --   -0.19790  -0.15910  -0.13238   0.04646
 Alpha virt. eigenvalues --    0.06877   0.07527   0.07963   0.09175   0.09427
 Alpha virt. eigenvalues --    0.09689   0.10020   0.10717   0.11833   0.12255
 Alpha virt. eigenvalues --    0.12446   0.12661   0.13217   0.13860   0.14300

  Beta  occ. eigenvalues --  -19.01859 -14.18047 -10.10831 -10.10511 -10.09327
  Beta  occ. eigenvalues --  -10.07994 -10.06715 -10.06254 -10.05984 -10.05849
  Beta  occ. eigenvalues --  -10.05089 -10.04789  -0.93759  -0.78364  -0.70824
  Beta  occ. eigenvalues --   -0.67222  -0.64223  -0.62906  -0.57789  -0.55354
  Beta  occ. eigenvalues --   -0.52445  -0.49313  -0.47678  -0.42770  -0.40198
  Beta  occ. eigenvalues --   -0.38450  -0.37518  -0.35778  -0.34698  -0.33551
  Beta  occ. eigenvalues --   -0.33239  -0.31452  -0.31339  -0.29961  -0.29016
  Beta  occ. eigenvalues --   -0.27661  -0.27450  -0.25883  -0.25388  -0.24956
  Beta  occ. eigenvalues --   -0.23763  -0.22993  -0.21941  -0.21586  -0.20434
  Beta  occ. eigenvalues --   -0.19753  -0.15864  -0.13204
  Beta virt. eigenvalues --    0.06857   0.07879   0.08025   0.08536   0.09676
  Beta virt. eigenvalues --    0.09955   0.10155   0.10312   0.11041   0.12192
  Beta virt. eigenvalues --    0.12522   0.12890   0.13179   0.13527   0.14029

 Mulliken charges and spin densities:
               1          2
     1  C    0.083018  -0.720381
     2  C   -0.903310   0.541204
     3  C   -0.990421   1.648127
     4  C    0.281605  -0.767818
     5  C   -0.167126  -0.507018
     6  C    3.452656  -4.022450
     7  C   -1.649280   1.976568
     8  C    0.663161  -0.931596
     9  C    0.483024  -0.853622
    10  O   -0.070796  -0.005859
    11  C    0.428765  -1.086862
    12  N   -0.692821   0.418084
    13  H    0.117128   0.029885
    14  H   -0.302325   0.445929
    15  H   -0.326400   0.456393
    16  H    0.044414   0.104578
    17  H    0.353061  -0.208756
    18  H   -0.036034   0.165812
    19  H    0.076666   0.054747
    20  H    0.095421   0.065754
    21  H    0.186472   0.010878
    22  H    0.003828   0.138236
    23  H    0.121037   0.002910
    24  H   -0.039599   0.255496
    25  H   -0.862999   1.094941
    26  H   -0.743818   0.958405
    27  H    0.199927  -0.147390
    28  H   -0.249401   0.419425
    29  H   -0.044677   0.188466
    30  H   -0.525256   0.683814
    31  H   -0.006785   0.158093
    32  H   -0.085357   0.337839
    33  H    0.106222   0.096169
 Sum of Mulliken charges =  -1.00000   1.00000

 Dipole moment (field-independent basis, Debye):
    X=              3.8036    Y=              3.1758    Z=             -4.4422  Tot=              6.6548
 Quadrupole moment (field-independent basis, Debye-Ang):
   XX=           -132.3760   YY=           -117.4588   ZZ=           -127.0381
   XY=             -1.8240   XZ=              7.0108   YZ=              1.4365

 Summary of Natural Population Analysis:

                                       Natural Population
                Natural  -----------------------------------------------
    Atom  No    Charge         Core      Valence    Rydberg      Total
 -----------------------------------------------------------------------
      C    1   -0.28376      0.99966     2.27899    0.00511     3.28376
      C    2   -0.19368      0.99958     2.18407    0.01003     3.19368
      C    3   -0.04221      0.99955     2.03016    0.01250     3.04221
      C    4   -0.28630      0.99963     2.28029    0.00638     3.28630
      C    5   -0.28784      0.99962     2.28232    0.00589     3.28784
      C    6   -0.00378      0.99953     1.98786    0.01639     3.00378
      C    7   -0.13005      0.99957     2.11397    0.01651     3.13005
      C    8   -0.21081      0.99961     2.20154    0.00967     3.21081
      C    9   -0.01062      0.99960     1.99859    0.01243     3.01062
      O   10   -0.30296      0.99989     3.29479    0.00828     4.30296
      C   11   -0.01244      0.99956     1.99939    0.01349     3.01244
      N   12   -0.42420      0.99977     2.91402    0.01042     3.92420
      H   13    0.09880      0.00000     0.40025    0.00094     0.40120
      H   14    0.09799      0.00000     0.40111    0.00090     0.40201
      H   15    0.09190      0.00000     0.40683    0.00127     0.40810
      H   16    0.09393      0.00000     0.40505    0.00102     0.40607
      H   17    0.10124      0.00000     0.39662    0.00214     0.39876
      H   18    0.09230      0.00000     0.40690    0.00080     0.40770
      H   19    0.09764      0.00000     0.40154    0.00081     0.40236
      H   20    0.11160      0.00000     0.38726    0.00113     0.38840
      H   21    0.11138      0.00000     0.38702    0.00160     0.38862
      H   22    0.09597      0.00000     0.40319    0.00084     0.40403
      H   23    0.09489      0.00000     0.40427    0.00084     0.40511
      H   24    0.09167      0.00000     0.40643    0.00190     0.40833
      H   25    0.10646      0.00000     0.38865    0.00489     0.39354
      H   26    0.10788      0.00000     0.38867    0.00345     0.39212
      H   27    0.10074      0.00000     0.39735    0.00191     0.39926
      H   28    0.08805      0.00000     0.41064    0.00131     0.41195
      H   29    0.08043      0.00000     0.41795    0.00162     0.41957
      H   30    0.08253      0.00000     0.41571    0.00175     0.41747
      H   31    0.09331      0.00000     0.40525    0.00143     0.40669
      H   32    0.17780      0.00000     0.31977    0.00243     0.32220
      H   33    0.17213      0.00000     0.32542    0.00245     0.32787
 =======================================================================
   * Total *   -0.00000     11.99558    35.84187    0.16254    48.00000

 Normal termination of Gaussian 16 at Wed Dec  9 17:50:46 2020.
