 Gaussian 16, Revision A.03,

 -----------------------------------------------------------
 # opt freq B3LYP/6-31G(d) empiricaldispersion=gd3bj scf=xqc
 -----------------------------------------------------------

 -------------------------------
 CID_130020006_JID_1009_neutraal
 -------------------------------
 Symbolic Z-matrix:
 Charge =  0 Multiplicity = 1

 SCF Done:  E(RB3LYP) =  -555.022284542     A.U. after   14 cycles
 SCF Done:  E(RB3LYP) =  -555.026360792     A.U. after   12 cycles
 SCF Done:  E(RB3LYP) =  -555.026740067     A.U. after   11 cycles
 SCF Done:  E(RB3LYP) =  -555.026980984     A.U. after   12 cycles
 SCF Done:  E(RB3LYP) =  -555.027115839     A.U. after   11 cycles
 SCF Done:  E(RB3LYP) =  -555.027173998     A.U. after   10 cycles
 SCF Done:  E(RB3LYP) =  -555.027190140     A.U. after   10 cycles
 SCF Done:  E(RB3LYP) =  -555.027197245     A.U. after    9 cycles
 SCF Done:  E(RB3LYP) =  -555.027201014     A.U. after    8 cycles
 SCF Done:  E(RB3LYP) =  -555.027202049     A.U. after    8 cycles
 SCF Done:  E(RB3LYP) =  -555.027202512     A.U. after    7 cycles
 SCF Done:  E(RB3LYP) =  -555.027202752     A.U. after    7 cycles
 Optimization completed.
    -- Stationary point found.
 Normal termination of Gaussian 16 at Tue Dec  8 19:11:09 2020.

 --------------------------------------------------------------------
 #N Geom=AllCheck Guess=TCheck SCRF=Check GenChk RB3LYP/6-31G(d) Freq
 --------------------------------------------------------------------

 Structure from the checkpoint file:  "JID_1009.chk"
 -------------------------------
 CID_130020006_JID_1009_neutraal
 -------------------------------
 Charge =  0 Multiplicity = 1

 SCF Done:  E(RB3LYP) =  -555.027202752     A.U. after    1 cycles

  Exact polarizability: 103.368  -3.523  77.438  -0.951  -2.339  76.958
 Approx polarizability: 139.289  -8.560 111.254  -4.862  -2.862 114.915

                      1                      2                      3
                      A                      A                      A
 Frequencies --     54.0858                74.6145               123.3626
 Red. masses --      3.7063                 7.2942                 2.3844
 Frc consts  --      0.0064                 0.0239                 0.0214
 IR Inten    --      3.0678                 3.0361                 0.0874

                      4                      5                      6
                      A                      A                      A
 Frequencies --    150.4339               161.4650               219.8353
 Red. masses --      3.3746                 5.0051                 3.6076
 Frc consts  --      0.0450                 0.0769                 0.1027
 IR Inten    --     10.8052                 3.4246                 7.7356

                      7                      8                      9
                      A                      A                      A
 Frequencies --    238.5669               285.6165               296.2713
 Red. masses --      1.9647                 1.4672                 1.8655
 Frc consts  --      0.0659                 0.0705                 0.0965
 IR Inten    --     25.3963                49.9632                52.5833

                     10                     11                     12
                      A                      A                      A
 Frequencies --    336.3592               373.1672               456.8971
 Red. masses --      3.5695                 2.2951                 1.4796
 Frc consts  --      0.2379                 0.1883                 0.1820
 IR Inten    --     13.6909                 0.7361                35.0147

                     13                     14                     15
                      A                      A                      A
 Frequencies --    480.9857               494.7183               536.9651
 Red. masses --      2.1123                 2.9233                 1.7714
 Frc consts  --      0.2879                 0.4215                 0.3009
 IR Inten    --     44.8085                 3.8762                46.1964

                     16                     17                     18
                      A                      A                      A
 Frequencies --    565.0871               613.4791               621.4834
 Red. masses --      2.7951                 2.0347                 3.9284
 Frc consts  --      0.5259                 0.4512                 0.8940
 IR Inten    --     38.3885                74.6585                 8.6010

                     19                     20                     21
                      A                      A                      A
 Frequencies --    675.0354               766.9667               839.2728
 Red. masses --      2.7944                 1.9817                 3.1053
 Frc consts  --      0.7502                 0.6868                 1.2887
 IR Inten    --     60.5664                 0.8165                 7.2328

                     22                     23                     24
                      A                      A                      A
 Frequencies --    863.1306               915.7653               929.0627
 Red. masses --      2.2344                 2.1045                 1.9036
 Frc consts  --      0.9808                 1.0398                 0.9681
 IR Inten    --      3.9866                 4.6698                 2.5231

                     25                     26                     27
                      A                      A                      A
 Frequencies --    952.2089              1010.8615              1019.3513
 Red. masses --      2.0710                 2.0752                 2.0198
 Frc consts  --      1.1063                 1.2494                 1.2365
 IR Inten    --     14.8349                 3.3691                 3.9778

                     28                     29                     30
                      A                      A                      A
 Frequencies --   1052.2780              1075.1392              1094.9733
 Red. masses --      1.9538                 2.7482                 3.9836
 Frc consts  --      1.2747                 1.8717                 2.8141
 IR Inten    --     28.0201                37.3025                82.9713

                     31                     32                     33
                      A                      A                      A
 Frequencies --   1112.7770              1145.3735              1161.3646
 Red. masses --      2.2099                 2.2312                 1.7645
 Frc consts  --      1.6122                 1.7246                 1.4022
 IR Inten    --     49.8872                 9.0819                19.4511

                     34                     35                     36
                      A                      A                      A
 Frequencies --   1209.8169              1241.5059              1253.9463
 Red. masses --      1.3608                 1.4678                 1.3994
 Frc consts  --      1.1735                 1.3330                 1.2964
 IR Inten    --      8.0443                 4.4570                37.1290

                     37                     38                     39
                      A                      A                      A
 Frequencies --   1268.0423              1276.8787              1312.5238
 Red. masses --      1.6729                 1.2602                 1.6380
 Frc consts  --      1.5848                 1.2106                 1.6625
 IR Inten    --     31.9417                64.6752                31.0318

                     40                     41                     42
                      A                      A                      A
 Frequencies --   1321.8773              1346.9038              1366.6583
 Red. masses --      1.4671                 1.4839                 1.4327
 Frc consts  --      1.5104                 1.5861                 1.5766
 IR Inten    --     91.2785                 5.3075                28.3951

                     43                     44                     45
                      A                      A                      A
 Frequencies --   1380.2645              1402.1682              1436.6710
 Red. masses --      1.3578                 1.4890                 1.8070
 Frc consts  --      1.5241                 1.7248                 2.1975
 IR Inten    --      7.6890                 1.1594                40.5472

                     46                     47                     48
                      A                      A                      A
 Frequencies --   1450.0231              1475.7411              1495.9078
 Red. masses --      1.2895                 1.4440                 1.0915
 Frc consts  --      1.5974                 1.8529                 1.4391
 IR Inten    --     37.7996                 4.1636                 4.8426

                     49                     50                     51
                      A                      A                      A
 Frequencies --   1502.5493              1524.7891              1530.6972
 Red. masses --      1.0876                 1.1019                 1.0987
 Frc consts  --      1.4466                 1.5094                 1.5167
 IR Inten    --      6.7339                 2.1369                 8.7243

                     52                     53                     54
                      A                      A                      A
 Frequencies --   1552.0341              1839.8895              2996.9407
 Red. masses --      1.0866                10.6319                 1.0570
 Frc consts  --      1.5421                21.2052                 5.5934
 IR Inten    --      6.4688               456.4240                38.2271

                     55                     56                     57
                      A                      A                      A
 Frequencies --   3001.1697              3021.8310              3047.4670
 Red. masses --      1.0726                 1.1025                 1.0654
 Frc consts  --      5.6921                 5.9317                 5.8296
 IR Inten    --     71.3941                45.7078                40.4624

                     58                     59                     60
                      A                      A                      A
 Frequencies --   3068.6121              3084.6847              3093.9957
 Red. masses --      1.0684                 1.1022                 1.0609
 Frc consts  --      5.9274                 6.1795                 5.9835
 IR Inten    --     12.9473                27.3293                20.7146

                     61                     62                     63
                      A                      A                      A
 Frequencies --   3126.3977              3142.1437              3151.1523
 Red. masses --      1.0974                 1.1051                 1.0905
 Frc consts  --      6.3200                 6.4284                 6.3800
 IR Inten    --      6.2167                17.5005                17.4346

                     64                     65                     66
                      A                      A                      A
 Frequencies --   3583.2829              3688.3606              3756.6571
 Red. masses --      1.0765                 1.0648                 1.0665
 Frc consts  --      8.1441                 8.5349                 8.8675
 IR Inten    --     15.7761                25.2381                20.4299

 - Thermochemistry -
 -------------------
 Temperature   298.150 Kelvin.  Pressure   1.00000 Atm.
 Atom     1 has atomic number  6 and mass  12.00000

 Molecular mass:   159.08954 amu.
 Principal axes and moments of inertia in atomic units:
                           1         2         3
     Eigenvalues --  1065.260042412.499852842.92843
           X            0.99981   0.01712   0.00920
           Y           -0.01681   0.99932  -0.03285
           Z           -0.00976   0.03269   0.99942
 This molecule is an asymmetric top.
 Rotational symmetry number  1.
 Warning -- assumption of classical behavior for rotation
           may cause significant error
 Rotational temperatures (Kelvin)      0.08131     0.03590     0.03047
 Rotational constants (GHZ):           1.69418     0.74808     0.63482
 Zero-point vibrational energy     542198.7 (Joules/Mol)
                                  129.58859 (Kcal/Mol)
 Warning -- explicit consideration of  17 degrees of freedom as
           vibrations may cause significant error
 Vibrational temperatures:     77.82   107.35   177.49   216.44   232.31
          (Kelvin)            316.29   343.24   410.94   426.27   483.95
                              536.90   657.37   692.03   711.79   772.57
                              813.03   882.66   894.18   971.23  1103.49
                             1207.53  1241.85  1317.58  1336.71  1370.02
                             1454.40  1466.62  1513.99  1546.89  1575.42
                             1601.04  1647.94  1670.94  1740.66  1786.25
                             1804.15  1824.43  1837.14  1888.43  1901.89
                             1937.89  1966.32  1985.89  2017.41  2067.05
                             2086.26  2123.26  2152.28  2161.83  2193.83
                             2202.33  2233.03  2647.19  4311.93  4318.01
                             4347.74  4384.63  4415.05  4438.17  4451.57
                             4498.19  4520.84  4533.81  5155.54  5306.73
                             5404.99

 Zero-point correction=                           0.206513 (Hartree/Particle)
 Thermal correction to Energy=                    0.217793
 Thermal correction to Enthalpy=                  0.218737
 Thermal correction to Gibbs Free Energy=         0.169455
 Sum of electronic and zero-point Energies=           -554.820690
 Sum of electronic and thermal Energies=              -554.809410
 Sum of electronic and thermal Enthalpies=            -554.808466
 Sum of electronic and thermal Free Energies=         -554.857747

                     E (Thermal)             CV                S
                      KCal/Mol        Cal/Mol-Kelvin    Cal/Mol-Kelvin
 Total                  136.667             42.620            103.721
 Electronic               0.000              0.000              0.000
 Translational            0.889              2.981             41.102
 Rotational               0.889              2.981             30.370
 Vibrational            134.889             36.658             32.250
 Vibration     1          0.596              1.976              4.662
 Vibration     2          0.599              1.966              4.028
 Vibration     3          0.610              1.930              3.047
 Vibration     4          0.618              1.902              2.667
 Vibration     5          0.622              1.890              2.533
 Vibration     6          0.647              1.811              1.960
 Vibration     7          0.657              1.782              1.814
 Vibration     8          0.683              1.700              1.500
 Vibration     9          0.690              1.681              1.438
 Vibration    10          0.717              1.603              1.229
 Vibration    11          0.745              1.527              1.067
 Vibration    12          0.815              1.346              0.775
 Vibration    13          0.837              1.292              0.707
 Vibration    14          0.850              1.262              0.671
 Vibration    15          0.892              1.168              0.572
 Vibration    16          0.921              1.107              0.514
 Vibration    17          0.973              1.003              0.427

                           ! Non-Optimized Parameters !
 Normal termination of Gaussian 16 at Tue Dec  8 19:16:11 2020.

 ----------------------------------------------------------------------
 # B3LYP/6-311++G(d,p) empiricaldispersion=gd3bj scf=xqc pop=npa geom=c
 heck
 ----------------------------------------------------------------------

 ---------------------------------------
 CID_130020006_JID_1009_Energie_neutraal
 ---------------------------------------
 Structure from the checkpoint file:  "JID_1009.chk"
 Charge =  0 Multiplicity = 1

 SCF Done:  E(RB3LYP) =  -555.213629026     A.U. after   14 cycles
 Normal termination of Gaussian 16 at Tue Dec  8 19:17:54 2020.

 ----------------------------------------------------------------------
 # B3LYP/6-311++G(d,p) empiricaldispersion=gd3bj scf=xqc pop=npa geom=c
 heck
 ----------------------------------------------------------------------

 -------------------------------------
 CID_130020006_JID_1009_Energie_kation
 -------------------------------------
 Structure from the checkpoint file:  "JID_1009.chk"
 Charge =  1 Multiplicity = 2

 SCF Done:  E(UB3LYP) =  -554.877846473     A.U. after   26 cycles
 Normal termination of Gaussian 16 at Tue Dec  8 19:21:56 2020.
 Gaussian 16:  ES64L-G16RevA.03 25-Dec-2016

 ----------------------------------------------------------------------
 # B3LYP/6-311++G(d,p) empiricaldispersion=gd3bj scf=xqc pop=npa geom=c
 heck
 ----------------------------------------------------------------------

 ------------------------------------
 CID_130020006_JID_1009_Energie_anion
 ------------------------------------
 Structure from the checkpoint file:  "JID_1009.chk"
 Charge = -1 Multiplicity = 2

                         Standard orientation:
 ---------------------------------------------------------------------
 Center     Atomic      Atomic             Coordinates (Angstroms)
 Number     Number       Type             X           Y           Z
 ---------------------------------------------------------------------
      1          6           0        1.785559   -0.783062    1.155315
      2          6           0        0.423974   -0.107555    1.376083
      3          6           0       -0.151104    0.136899   -0.046401
      4          7           0        1.090392    0.225503   -0.834985
      5          6           0        2.182558   -0.404379   -0.271048
      6          8           0        3.241298   -0.618730   -0.830033
      7          6           0       -1.002262   -1.043487   -0.562239
      8          6           0       -2.346670   -1.272269    0.118800
      9          8           0       -3.254437   -0.262991   -0.313717
     10          6           0       -0.883252    1.487835   -0.143067
     11          8           0       -0.047071    2.564504    0.238997
     12          1           0        1.728425   -1.877378    1.201473
     13          1           0        2.559357   -0.473470    1.862404
     14          1           0       -0.257060   -0.702245    1.990035
     15          1           0        0.555289    0.864120    1.858584
     16          1           0        1.061631    0.307864   -1.845353
     17          1           0       -1.192845   -0.909595   -1.635208
     18          1           0       -0.404175   -1.958252   -0.461710
     19          1           0       -2.716525   -2.271829   -0.156970
     20          1           0       -2.230933   -1.258193    1.213962
     21          1           0       -4.089372   -0.383306    0.162865
     22          1           0       -1.266419    1.617103   -1.168346
     23          1           0       -1.747851    1.496659    0.522000
     24          1           0        0.796598    2.423843   -0.225483
 ---------------------------------------------------------------------

 SCF Done:  E(UB3LYP) =  -555.205201436     A.U. after   29 cycles

 The electronic state is 2-A.
 Alpha  occ. eigenvalues --  -19.02777 -19.01108 -19.00156 -14.24420 -10.18136
 Alpha  occ. eigenvalues --  -10.12678 -10.11419 -10.10708 -10.08475 -10.07657
 Alpha  occ. eigenvalues --  -10.07180  -0.95085  -0.93246  -0.91247  -0.84800
 Alpha  occ. eigenvalues --   -0.69859  -0.67770  -0.61938  -0.55969  -0.52913
 Alpha  occ. eigenvalues --   -0.49732  -0.48221  -0.42388  -0.40785  -0.39981
 Alpha  occ. eigenvalues --   -0.38073  -0.35878  -0.34770  -0.33332  -0.32637
 Alpha  occ. eigenvalues --   -0.31146  -0.30286  -0.29862  -0.29035  -0.28813
 Alpha  occ. eigenvalues --   -0.25724  -0.24464  -0.23183  -0.22648  -0.18536
 Alpha  occ. eigenvalues --   -0.17713  -0.16722  -0.16161   0.04476
 Alpha virt. eigenvalues --    0.06960   0.07663   0.08050   0.09583   0.10173
 Alpha virt. eigenvalues --    0.10466   0.11049   0.11145   0.11720   0.13345
 Alpha virt. eigenvalues --    0.13784   0.14390   0.14777   0.15365   0.16560

  Beta  occ. eigenvalues --  -19.02772 -19.01058 -19.00154 -14.24404 -10.18137
  Beta  occ. eigenvalues --  -10.12680 -10.11407 -10.10651 -10.08452 -10.07634
  Beta  occ. eigenvalues --  -10.07157  -0.95079  -0.93237  -0.91138  -0.84783
  Beta  occ. eigenvalues --   -0.69818  -0.67728  -0.61869  -0.55925  -0.52816
  Beta  occ. eigenvalues --   -0.49693  -0.48153  -0.42300  -0.40710  -0.39907
  Beta  occ. eigenvalues --   -0.38050  -0.35854  -0.34738  -0.33309  -0.32601
  Beta  occ. eigenvalues --   -0.31117  -0.30255  -0.29825  -0.28987  -0.28762
  Beta  occ. eigenvalues --   -0.25694  -0.24439  -0.23105  -0.22614  -0.18520
  Beta  occ. eigenvalues --   -0.17682  -0.16683  -0.16136
  Beta virt. eigenvalues --    0.06938   0.08161   0.08315   0.08732   0.10162
  Beta virt. eigenvalues --    0.10666   0.10985   0.11336   0.11460   0.12082
  Beta virt. eigenvalues --    0.13785   0.14362   0.14672   0.15256   0.15352

 Mulliken charges and spin densities:
               1          2
     1  C    0.527560  -0.855138
     2  C    0.538637  -1.040276
     3  C   -0.454536   0.711981
     4  N   -0.125942  -0.000277
     5  C   -0.160877   0.247056
     6  O   -0.373607   0.019030
     7  C   -1.336579   1.054908
     8  C    2.897641  -3.341466
     9  O   -0.388812   0.114926
    10  C   -0.341706  -0.145526
    11  O   -0.173959  -0.007435
    12  H   -0.182811   0.377706
    13  H    0.088949   0.088622
    14  H   -0.133628   0.272082
    15  H    0.135180   0.070773
    16  H    0.047561   0.255155
    17  H    0.022962   0.172679
    18  H   -0.153909   0.325699
    19  H   -0.775626   0.952165
    20  H   -0.666824   0.816671
    21  H   -0.341424   0.616316
    22  H    0.013362   0.148741
    23  H    0.105079   0.132975
    24  H    0.233310   0.012634
 Sum of Mulliken charges =  -1.00000   1.00000

 Dipole moment (field-independent basis, Debye):
    X=              5.9863    Y=              4.3126    Z=             -1.3370  Tot=              7.4981
 Quadrupole moment (field-independent basis, Debye-Ang):
   XX=           -142.4871   YY=           -108.3769   ZZ=            -94.9056
   XY=             -6.3349   XZ=              8.0839   YZ=              1.5443

 Summary of Natural Population Analysis:

                                       Natural Population
                Natural  -----------------------------------------------
    Atom  No    Charge         Core      Valence    Rydberg      Total
 -----------------------------------------------------------------------
      C    1   -0.23573      0.99960     2.22810    0.00804     3.23573
      C    2   -0.19773      0.99959     2.18800    0.01014     3.19773
      C    3    0.05492      0.99956     1.93085    0.01467     2.94508
      N    4   -0.34149      0.99965     2.83063    0.01121     3.84149
      C    5    0.35038      0.99967     1.62686    0.02309     2.64962
      O    6   -0.31868      0.99987     3.31256    0.00625     4.31868
      C    7   -0.20543      0.99957     2.19330    0.01255     3.20543
      C    8   -0.00905      0.99960     1.99645    0.01300     3.00905
      O    9   -0.37714      0.99989     3.37010    0.00715     4.37714
      C   10   -0.01286      0.99951     2.00088    0.01247     3.01286
      O   11   -0.37118      0.99990     3.36498    0.00630     4.37118
      H   12    0.11409      0.00000     0.38455    0.00136     0.38591
      H   13    0.11029      0.00000     0.38881    0.00090     0.38971
      H   14    0.10971      0.00000     0.38888    0.00141     0.39029
      H   15    0.10819      0.00000     0.39036    0.00145     0.39181
      H   16    0.19715      0.00000     0.30032    0.00253     0.30285
      H   17    0.10299      0.00000     0.39544    0.00157     0.39701
      H   18    0.10591      0.00000     0.39196    0.00213     0.39409
      H   19    0.08418      0.00000     0.41148    0.00434     0.41582
      H   20    0.08004      0.00000     0.41497    0.00498     0.41996
      H   21    0.23931      0.00000     0.24787    0.01282     0.26069
      H   22    0.08093      0.00000     0.41771    0.00136     0.41907
      H   23    0.10313      0.00000     0.39534    0.00153     0.39687
      H   24    0.22808      0.00000     0.26891    0.00301     0.27192
 =======================================================================
   * Total *   -0.00000     10.99641    31.83931    0.16427    43.00000

 Normal termination of Gaussian 16 at Tue Dec  8 19:26:30 2020.
