 Gaussian 16, Revision A.03,

 -----------------------------------------------------------
 # opt freq B3LYP/6-31G(d) empiricaldispersion=gd3bj scf=xqc
 -----------------------------------------------------------

 ------------------------------
 CID_45099659_JID_3553_neutraal
 ------------------------------
 Symbolic Z-matrix:
 Charge =  0 Multiplicity = 1

 SCF Done:  E(RB3LYP) =  -603.801966749     A.U. after   16 cycles
 SCF Done:  E(RB3LYP) =  -603.816529729     A.U. after   15 cycles
 SCF Done:  E(RB3LYP) =  -603.819915257     A.U. after   14 cycles
 SCF Done:  E(RB3LYP) =  -603.821233903     A.U. after   13 cycles
 SCF Done:  E(RB3LYP) =  -603.822055288     A.U. after   13 cycles
 SCF Done:  E(RB3LYP) =  -603.822430431     A.U. after   13 cycles
 SCF Done:  E(RB3LYP) =  -603.822624785     A.U. after   12 cycles
 SCF Done:  E(RB3LYP) =  -603.822647864     A.U. after   12 cycles
 SCF Done:  E(RB3LYP) =  -603.822717607     A.U. after   11 cycles
 SCF Done:  E(RB3LYP) =  -603.822735985     A.U. after   11 cycles
 SCF Done:  E(RB3LYP) =  -603.822769315     A.U. after   10 cycles
 SCF Done:  E(RB3LYP) =  -603.822792989     A.U. after   10 cycles
 SCF Done:  E(RB3LYP) =  -603.822800269     A.U. after   11 cycles
 SCF Done:  E(RB3LYP) =  -603.822800746     A.U. after    8 cycles
 SCF Done:  E(RB3LYP) =  -603.822800844     A.U. after    8 cycles
 SCF Done:  E(RB3LYP) =  -603.822800872     A.U. after    7 cycles
 Optimization completed.
    -- Stationary point found.
 Normal termination of Gaussian 16 at Wed Dec  9 23:37:45 2020.

 --------------------------------------------------------------------
 #N Geom=AllCheck Guess=TCheck SCRF=Check GenChk RB3LYP/6-31G(d) Freq
 --------------------------------------------------------------------

 Structure from the checkpoint file:  "JID_3553.chk"
 ------------------------------
 CID_45099659_JID_3553_neutraal
 ------------------------------
 Charge =  0 Multiplicity = 1

 SCF Done:  E(RB3LYP) =  -603.822800872     A.U. after    1 cycles

  Exact polarizability: 189.314  -7.011 146.792   0.001   0.001  46.360
 Approx polarizability: 311.582 -15.279 271.423   0.001   0.000  70.537

                      1                      2                      3
                      A                      A                      A
 Frequencies --     35.9199                91.5632               105.2264
 Red. masses --      3.4472                 4.1463                 1.2560
 Frc consts  --      0.0026                 0.0205                 0.0082
 IR Inten    --      0.2163                 0.9731                 0.0090

                      4                      5                      6
                      A                      A                      A
 Frequencies --    105.4469               133.2245               172.3543
 Red. masses --      6.8001                 3.6040                 5.4552
 Frc consts  --      0.0445                 0.0377                 0.0955
 IR Inten    --      2.5652                 0.7040                 2.3629

                      7                      8                      9
                      A                      A                      A
 Frequencies --    227.0498               277.1493               284.2193
 Red. masses --      6.0841                 4.0972                 5.8151
 Frc consts  --      0.1848                 0.1854                 0.2768
 IR Inten    --      0.2103                 3.4800                 0.4529

                     10                     11                     12
                      A                      A                      A
 Frequencies --    371.0528               386.6578               435.6701
 Red. masses --      4.2788                 4.9521                 6.3824
 Frc consts  --      0.3471                 0.4362                 0.7138
 IR Inten    --      6.1708                22.5694                 0.3977

                     13                     14                     15
                      A                      A                      A
 Frequencies --    446.2275               447.5020               493.6208
 Red. masses --      6.0541                 3.5929                 7.6351
 Frc consts  --      0.7103                 0.4239                 1.0961
 IR Inten    --      2.1517                 1.1146                 0.6498

                     16                     17                     18
                      A                      A                      A
 Frequencies --    541.7888               552.4429               597.4246
 Red. masses --      8.4908                 8.5065                 1.3436
 Frc consts  --      1.4685                 1.5296                 0.2825
 IR Inten    --      4.2482                 0.2471               151.1397

                     19                     20                     21
                      A                      A                      A
 Frequencies --    638.4192               641.3742               734.5767
 Red. masses --      6.1411                 2.2948                 1.0915
 Frc consts  --      1.4747                 0.5562                 0.3470
 IR Inten    --      0.0079                11.0945                22.4481

                     22                     23                     24
                      A                      A                      A
 Frequencies --    737.2611               754.8546               767.6771
 Red. masses --      4.3080                 3.9228                 1.7457
 Frc consts  --      1.3797                 1.3169                 0.6061
 IR Inten    --     29.0391                72.1157                 2.9715

                     25                     26                     27
                      A                      A                      A
 Frequencies --    856.7121               880.2143               930.3921
 Red. masses --      6.4222                 1.4533                 3.0795
 Frc consts  --      2.7772                 0.6634                 1.5706
 IR Inten    --      0.6964                20.1137                28.3282

                     28                     29                     30
                      A                      A                      A
 Frequencies --    963.0997               998.8616              1001.2078
 Red. masses --      3.6895                 3.4070                 1.1659
 Frc consts  --      2.0163                 2.0028                 0.6886
 IR Inten    --     28.0104                 6.6361                 0.9031

                     31                     32                     33
                      A                      A                      A
 Frequencies --   1076.5065              1120.0934              1134.3052
 Red. masses --      1.5155                 2.4572                 2.0449
 Frc consts  --      1.0347                 1.8164                 1.5502
 IR Inten    --      0.2679                53.9332                90.4691

                     34                     35                     36
                      A                      A                      A
 Frequencies --   1197.3292              1264.6932              1309.2337
 Red. masses --      1.8738                 2.5699                 1.5015
 Frc consts  --      1.5827                 2.4218                 1.5164
 IR Inten    --     15.8799               102.4574                 7.2194

                     37                     38                     39
                      A                      A                      A
 Frequencies --   1335.9981              1372.3047              1427.6557
 Red. masses --      3.0781                 2.3653                 1.2486
 Frc consts  --      3.2371                 2.6245                 1.4994
 IR Inten    --    124.5725                17.9732                 3.6590

                     40                     41                     42
                      A                      A                      A
 Frequencies --   1441.6922              1476.4762              1512.6361
 Red. masses --      4.0469                 1.4830                 1.1253
 Frc consts  --      4.9559                 1.9047                 1.5171
 IR Inten    --      9.4453                39.2112                 7.2356

                     43                     44                     45
                      A                      A                      A
 Frequencies --   1520.9882              1528.0019              1593.4621
 Red. masses --      5.8123                 1.0459                 3.0463
 Frc consts  --      7.9223                 1.4388                 4.5573
 IR Inten    --     73.4420                 6.2128               184.7739

                     46                     47                     48
                      A                      A                      A
 Frequencies --   1667.7476              1692.3069              1729.1211
 Red. masses --      2.0098                10.7851                 5.9855
 Frc consts  --      3.2935                18.1985                10.5440
 IR Inten    --    142.0623               348.2735                20.7299

                     49                     50                     51
                      A                      A                      A
 Frequencies --   2343.0227              3034.1083              3073.4877
 Red. masses --     12.6840                 1.0439                 1.0988
 Frc consts  --     41.0261                 5.6620                 6.1153
 IR Inten    --     15.9173                34.5389                20.6004

                     52                     53                     54
                      A                      A                      A
 Frequencies --   3141.4309              3157.0529              3163.9441
 Red. masses --      1.0839                 1.0637                 1.0922
 Frc consts  --      6.3021                 6.2462                 6.4419
 IR Inten    --      4.2420               112.3837                34.5049

                     55                     56                     57
                      A                      A                      A
 Frequencies --   3199.3895              3256.4750              3556.6558
 Red. masses --      1.0945                 1.0934                 1.0765
 Frc consts  --      6.6008                 6.8318                 8.0231
 IR Inten    --      3.4712                 3.6468                39.1589

 - Thermochemistry -
 -------------------
 Temperature   298.150 Kelvin.  Pressure   1.00000 Atm.
 Atom     1 has atomic number  6 and mass  12.00000

 Molecular mass:   176.06981 amu.
 Principal axes and moments of inertia in atomic units:
                           1         2         3
     Eigenvalues --  1612.241472864.598694465.71850
           X            0.99990   0.01431   0.00000
           Y           -0.01431   0.99990   0.00000
           Z           -0.00000  -0.00000   1.00000
 This molecule is an asymmetric top.
 Rotational symmetry number  1.
 Warning -- assumption of classical behavior for rotation
           may cause significant error
 Rotational temperatures (Kelvin)      0.05372     0.03024     0.01940
 Rotational constants (GHZ):           1.11940     0.63002     0.40413
 Zero-point vibrational energy     412324.7 (Joules/Mol)
                                   98.54797 (Kcal/Mol)
 Warning -- explicit consideration of  18 degrees of freedom as
           vibrations may cause significant error
 Vibrational temperatures:     51.68   131.74   151.40   151.71   191.68
          (Kelvin)            247.98   326.67   398.76   408.93   533.86
                              556.31   626.83   642.02   643.86   710.21
                              779.51   794.84   859.56   918.54   922.79
                             1056.89  1060.75  1086.07  1104.52  1232.62
                             1266.43  1338.63  1385.69  1437.14  1440.51
                             1548.85  1611.56  1632.01  1722.69  1819.61
                             1883.70  1922.20  1974.44  2054.08  2074.27
                             2124.32  2176.35  2188.36  2198.45  2292.64
                             2399.52  2434.85  2487.82  3371.09  4365.41
                             4422.06  4519.82  4542.29  4552.21  4603.21
                             4685.34  5117.23

 Zero-point correction=                           0.157046 (Hartree/Particle)
 Thermal correction to Energy=                    0.168991
 Thermal correction to Enthalpy=                  0.169935
 Thermal correction to Gibbs Free Energy=         0.118338
 Sum of electronic and zero-point Energies=           -603.665755
 Sum of electronic and thermal Energies=              -603.653810
 Sum of electronic and thermal Enthalpies=            -603.652866
 Sum of electronic and thermal Free Energies=         -603.704463

                     E (Thermal)             CV                S
                      KCal/Mol        Cal/Mol-Kelvin    Cal/Mol-Kelvin
 Total                  106.043             44.361            108.595
 Electronic               0.000              0.000              0.000
 Translational            0.889              2.981             41.404
 Rotational               0.889              2.981             31.401
 Vibrational            104.266             38.400             35.790
 Vibration     1          0.594              1.982              5.472
 Vibration     2          0.602              1.955              3.626
 Vibration     3          0.605              1.945              3.355
 Vibration     4          0.605              1.945              3.351
 Vibration     5          0.613              1.920              2.899
 Vibration     6          0.626              1.877              2.410
 Vibration     7          0.651              1.800              1.902
 Vibration     8          0.678              1.716              1.551
 Vibration     9          0.683              1.703              1.508
 Vibration    10          0.743              1.532              1.075
 Vibration    11          0.755              1.499              1.013
 Vibration    12          0.796              1.392              0.840
 Vibration    13          0.805              1.369              0.807
 Vibration    14          0.807              1.366              0.803
 Vibration    15          0.849              1.264              0.674
 Vibration    16          0.897              1.158              0.561
 Vibration    17          0.908              1.134              0.539
 Vibration    18          0.955              1.037              0.454

 Optimization completed.
    -- Stationary point found.
 Normal termination of Gaussian 16 at Wed Dec  9 23:41:59 2020.

 ----------------------------------------------------------------------
 # B3LYP/6-311++G(d,p) empiricaldispersion=gd3bj scf=xqc pop=npa geom=c
 heck
 ----------------------------------------------------------------------

 --------------------------------------
 CID_45099659_JID_3553_Energie_neutraal
 --------------------------------------
 Structure from the checkpoint file:  "JID_3553.chk"
 Charge =  0 Multiplicity = 1

 SCF Done:  E(RB3LYP) =  -603.996907254     A.U. after   17 cycles
 Normal termination of Gaussian 16 at Wed Dec  9 23:43:34 2020.

 ----------------------------------------------------------------------
 # B3LYP/6-311++G(d,p) empiricaldispersion=gd3bj scf=xqc pop=npa geom=c
 heck
 ----------------------------------------------------------------------

 ------------------------------------
 CID_45099659_JID_3553_Energie_kation
 ------------------------------------
 Structure from the checkpoint file:  "JID_3553.chk"
 Charge =  1 Multiplicity = 2

 SCF Done:  E(UB3LYP) =  -603.707401326     A.U. after   24 cycles
 Normal termination of Gaussian 16 at Wed Dec  9 23:46:33 2020.
 Gaussian 16:  ES64L-G16RevA.03 25-Dec-2016

 ----------------------------------------------------------------------
 # B3LYP/6-311++G(d,p) empiricaldispersion=gd3bj scf=xqc pop=npa geom=c
 heck
 ----------------------------------------------------------------------

 -----------------------------------
 CID_45099659_JID_3553_Energie_anion
 -----------------------------------
 Structure from the checkpoint file:  "JID_3553.chk"
 Charge = -1 Multiplicity = 2

                         Standard orientation:
 ---------------------------------------------------------------------
 Center     Atomic      Atomic             Coordinates (Angstroms)
 Number     Number       Type             X           Y           Z
 ---------------------------------------------------------------------
      1          6           0        3.692505    0.950379    0.000074
      2          6           0        3.480459   -0.532772   -0.000034
      3          6           0        2.332817   -1.233543   -0.000070
      4          6           0        0.946205   -0.767133   -0.000030
      5          6           0       -0.080414   -1.711689   -0.000030
      6          7           0       -1.351940   -1.303156    0.000046
      7          6           0       -1.770329    0.035626    0.000013
      8          7           0       -3.049422    0.197761   -0.000024
      9          6           0       -0.628606    0.936362    0.000028
     10          7           0        0.631273    0.553995    0.000002
     11          6           0       -0.927797    2.338370    0.000003
     12          7           0       -1.239603    3.459240   -0.000051
     13          8           0       -2.364327   -2.223213    0.000049
     14          1           0        2.756357    1.505331   -0.000257
     15          1           0        4.282275    1.245698   -0.878645
     16          1           0        4.281611    1.245670    0.879252
     17          1           0        4.393509   -1.128118   -0.000053
     18          1           0        2.418239   -2.319293   -0.000120
     19          1           0        0.071179   -2.783681   -0.000075
     20          1           0       -3.333231    1.174197   -0.000032
     21          1           0       -3.156511   -1.602565    0.000005
 ---------------------------------------------------------------------

 SCF Done:  E(UB3LYP) =  -604.045222481     A.U. after   22 cycles

 The electronic state is 2-A.
 Alpha  occ. eigenvalues --  -19.04688 -14.27936 -14.15619 -14.15308 -14.15093
 Alpha  occ. eigenvalues --  -10.12207 -10.07677 -10.07228 -10.07020 -10.05714
 Alpha  occ. eigenvalues --  -10.05406 -10.05220 -10.04342  -1.00106  -0.82804
 Alpha  occ. eigenvalues --   -0.77323  -0.75933  -0.74045  -0.67891  -0.62863
 Alpha  occ. eigenvalues --   -0.57345  -0.55905  -0.52234  -0.46453  -0.42394
 Alpha  occ. eigenvalues --   -0.39766  -0.38900  -0.37053  -0.35245  -0.33718
 Alpha  occ. eigenvalues --   -0.31581  -0.30339  -0.29657  -0.27801  -0.26550
 Alpha  occ. eigenvalues --   -0.25658  -0.23278  -0.22254  -0.22082  -0.19682
 Alpha  occ. eigenvalues --   -0.19234  -0.17986  -0.15904  -0.14588  -0.11597
 Alpha  occ. eigenvalues --   -0.06948   0.01463
 Alpha virt. eigenvalues --    0.08003   0.09619   0.09666   0.10449   0.11358
 Alpha virt. eigenvalues --    0.11782   0.12523   0.14425   0.14837   0.15630
 Alpha virt. eigenvalues --    0.15639   0.15766   0.16770   0.17305   0.17433

  Beta  occ. eigenvalues --  -19.04632 -14.27466 -14.15339 -14.15295 -14.14376
  Beta  occ. eigenvalues --  -10.12260 -10.07408 -10.07291 -10.06715 -10.05755
  Beta  occ. eigenvalues --  -10.05375 -10.05273 -10.04340  -0.99703  -0.82167
  Beta  occ. eigenvalues --   -0.77005  -0.75465  -0.73321  -0.67831  -0.62597
  Beta  occ. eigenvalues --   -0.57152  -0.55113  -0.51849  -0.46316  -0.42074
  Beta  occ. eigenvalues --   -0.39644  -0.38628  -0.36905  -0.33744  -0.33595
  Beta  occ. eigenvalues --   -0.31337  -0.30282  -0.29689  -0.27612  -0.25634
  Beta  occ. eigenvalues --   -0.24836  -0.23178  -0.21722  -0.21387  -0.19101
  Beta  occ. eigenvalues --   -0.19063  -0.17816  -0.14121  -0.13363  -0.10877
  Beta  occ. eigenvalues --   -0.05858
  Beta virt. eigenvalues --    0.07984   0.08868   0.09646   0.10177   0.10437
  Beta virt. eigenvalues --    0.11352   0.11782   0.12522   0.14402   0.14827
  Beta virt. eigenvalues --    0.15645   0.15998   0.16474   0.16955   0.17341

 Mulliken charges and spin densities:
               1          2
     1  C   -0.748740   0.011705
     2  C   -0.427280  -0.064305
     3  C   -0.216955   0.053453
     4  C    0.493891  -0.125812
     5  C   -0.132813   0.381219
     6  N   -0.265790   0.091757
     7  C   -0.290051  -0.008653
     8  N   -0.560099   0.013168
     9  C    1.073263   0.231683
    10  N    0.044829   0.347160
    11  C   -1.071983  -0.064110
    12  N   -0.348769   0.143614
    13  O    0.045163   0.026790
    14  H    0.218444  -0.004943
    15  H    0.100460  -0.001242
    16  H    0.100489  -0.001243
    17  H    0.136262   0.003007
    18  H    0.121243  -0.003724
    19  H    0.173201  -0.027733
    20  H    0.266148  -0.000008
    21  H    0.289088  -0.001781
 Sum of Mulliken charges =  -1.00000   1.00000

 Dipole moment (field-independent basis, Debye):
    X=              2.8355    Y=             -4.7258    Z=              0.0001  Tot=              5.5112
 Quadrupole moment (field-independent basis, Debye-Ang):
   XX=           -101.3577   YY=           -111.2535   ZZ=            -83.9764
   XY=              2.6775   XZ=              0.0002   YZ=              0.0006

 Summary of Natural Population Analysis:

                                       Natural Population
                Natural  -----------------------------------------------
    Atom  No    Charge         Core      Valence    Rydberg      Total
 -----------------------------------------------------------------------
      C    1   -0.30955      0.99965     2.30419    0.00572     3.30955
      C    2   -0.11814      0.99957     2.10900    0.00957     3.11814
      C    3   -0.09144      0.99951     2.08227    0.00965     3.09144
      C    4   -0.00395      0.99952     1.99254    0.01188     3.00395
      C    5    0.09670      0.99954     1.89382    0.00994     2.90330
      N    6    0.02372      0.99953     2.46386    0.01288     3.47628
      C    7    0.19220      0.99960     1.79284    0.01537     2.80780
      N    8   -0.43114      0.99967     2.92166    0.00981     3.93114
      C    9    0.04005      0.99942     1.94646    0.01406     2.95995
      N   10   -0.10187      0.99964     2.59048    0.01175     3.60187
      C   11    0.13969      0.99965     1.84131    0.01935     2.86031
      N   12   -0.16832      0.99979     2.65697    0.01156     3.66832
      O   13   -0.27853      0.99990     3.27089    0.00774     4.27853
      H   14    0.12702      0.00000     0.37204    0.00095     0.37298
      H   15    0.09207      0.00000     0.40678    0.00115     0.40793
      H   16    0.09208      0.00000     0.40678    0.00115     0.40792
      H   17    0.08185      0.00000     0.41692    0.00123     0.41815
      H   18    0.08964      0.00000     0.40899    0.00137     0.41036
      H   19    0.09649      0.00000     0.40255    0.00096     0.40351
      H   20    0.18122      0.00000     0.31705    0.00173     0.31878
      H   21    0.25020      0.00000     0.24634    0.00347     0.24980
 =======================================================================
   * Total *    0.00000     12.99499    32.84374    0.16127    46.00000

 Normal termination of Gaussian 16 at Wed Dec  9 23:49:19 2020.
