 Gaussian 16, Revision A.03,

 -----------------------------------------------------------
 # opt freq B3LYP/6-31G(d) empiricaldispersion=gd3bj scf=xqc
 -----------------------------------------------------------

 ------------------------------
 CID_59882065_JID_4663_neutraal
 ------------------------------
 Symbolic Z-matrix:
 Charge =  0 Multiplicity = 1

 SCF Done:  E(RB3LYP) =  -905.685634614     A.U. after   14 cycles
 SCF Done:  E(RB3LYP) =  -905.689238710     A.U. after   13 cycles
 SCF Done:  E(RB3LYP) =  -905.680934309     A.U. after   13 cycles
 SCF Done:  E(RB3LYP) =  -905.688641496     A.U. after   12 cycles
 SCF Done:  E(RB3LYP) =  -905.691119878     A.U. after    9 cycles
 SCF Done:  E(RB3LYP) =  -905.690362506     A.U. after   12 cycles
 SCF Done:  E(RB3LYP) =  -905.691680612     A.U. after   12 cycles
 SCF Done:  E(RB3LYP) =  -905.692217124     A.U. after   11 cycles
 SCF Done:  E(RB3LYP) =  -905.692391145     A.U. after   11 cycles
 SCF Done:  E(RB3LYP) =  -905.692197053     A.U. after   12 cycles
 SCF Done:  E(RB3LYP) =  -905.692706318     A.U. after   10 cycles
 SCF Done:  E(RB3LYP) =  -905.692716395     A.U. after    9 cycles
 SCF Done:  E(RB3LYP) =  -905.692719062     A.U. after    9 cycles
 SCF Done:  E(RB3LYP) =  -905.692720286     A.U. after    7 cycles
 SCF Done:  E(RB3LYP) =  -905.692720586     A.U. after    7 cycles
 Optimization completed.
    -- Stationary point found.
 Normal termination of Gaussian 16 at Thu Dec 10 10:23:00 2020.

 --------------------------------------------------------------------
 #N Geom=AllCheck Guess=TCheck SCRF=Check GenChk RB3LYP/6-31G(d) Freq
 --------------------------------------------------------------------

 Structure from the checkpoint file:  "JID_4663.chk"
 ------------------------------
 CID_59882065_JID_4663_neutraal
 ------------------------------
 Charge =  0 Multiplicity = 1

 SCF Done:  E(RB3LYP) =  -905.692720586     A.U. after    1 cycles

  Exact polarizability: 171.765   0.279 157.681 -12.837  -1.207 122.384
 Approx polarizability: 246.801   4.925 255.682 -24.939  -1.605 186.659

                      1                      2                      3
                      A                      A                      A
 Frequencies --     39.3735                71.5105                95.9444
 Red. masses --      3.7785                 3.8729                 2.3890
 Frc consts  --      0.0035                 0.0117                 0.0130
 IR Inten    --      0.4533                 0.2492                 0.5559

                      4                      5                      6
                      A                      A                      A
 Frequencies --    102.3322               154.1812               186.1091
 Red. masses --      3.2187                 3.3777                 2.5624
 Frc consts  --      0.0199                 0.0473                 0.0523
 IR Inten    --      0.3318                 0.0794                 1.8584

                      7                      8                      9
                      A                      A                      A
 Frequencies --    202.6888               217.4576               226.4400
 Red. masses --      1.7107                 1.5943                 1.2827
 Frc consts  --      0.0414                 0.0444                 0.0388
 IR Inten    --      0.4122                 0.1856                 0.4339

                     10                     11                     12
                      A                      A                      A
 Frequencies --    233.8200               238.9950               262.9935
 Red. masses --      1.1719                 1.5209                 1.4584
 Frc consts  --      0.0377                 0.0512                 0.0594
 IR Inten    --      1.1065                 0.0122                 0.6164

                     13                     14                     15
                      A                      A                      A
 Frequencies --    284.0843               309.1701               322.2422
 Red. masses --      2.2572                 1.5698                 2.3581
 Frc consts  --      0.1073                 0.0884                 0.1443
 IR Inten    --      0.3816                 1.1296                 1.5596

                     16                     17                     18
                      A                      A                      A
 Frequencies --    335.5148               341.8886               370.0510
 Red. masses --      2.7359                 2.5566                 2.3302
 Frc consts  --      0.1815                 0.1761                 0.1880
 IR Inten    --      1.5017                 1.1738                 0.6745

                     19                     20                     21
                      A                      A                      A
 Frequencies --    396.5126               457.1466               479.8868
 Red. masses --      2.8900                 3.8304                 2.9572
 Frc consts  --      0.2677                 0.4716                 0.4012
 IR Inten    --      1.4816                 1.9487                 1.5801

                     22                     23                     24
                      A                      A                      A
 Frequencies --    524.6379               530.1019               545.1887
 Red. masses --      3.6557                 3.2596                 5.0151
 Frc consts  --      0.5929                 0.5397                 0.8783
 IR Inten    --      2.3882                 0.5418                 0.8809

                     25                     26                     27
                      A                      A                      A
 Frequencies --    566.3334               597.9937               642.2001
 Red. masses --      4.2914                 3.4009                 3.9063
 Frc consts  --      0.8110                 0.7165                 0.9492
 IR Inten    --      1.3669                 2.9431                 5.1048

                     28                     29                     30
                      A                      A                      A
 Frequencies --    694.3966               767.4416               785.8360
 Red. masses --      3.9527                 4.2693                 1.2139
 Frc consts  --      1.1230                 1.4815                 0.4417
 IR Inten    --      3.0005                 0.8110                23.2715

                     31                     32                     33
                      A                      A                      A
 Frequencies --    814.3178               902.9102               903.9584
 Red. masses --      4.3919                 1.3097                 2.5250
 Frc consts  --      1.7159                 0.6291                 1.2156
 IR Inten    --      0.2352                 0.1027                 0.7843

                     34                     35                     36
                      A                      A                      A
 Frequencies --    929.7721               940.0590               967.8381
 Red. masses --      2.8386                 1.1645                 1.4333
 Frc consts  --      1.4458                 0.6063                 0.7910
 IR Inten    --      1.0863                 1.2599                 0.0891

                     37                     38                     39
                      A                      A                      A
 Frequencies --    969.1221              1012.8422              1033.5835
 Red. masses --      1.2752                 1.7397                 1.5653
 Frc consts  --      0.7057                 1.0515                 0.9852
 IR Inten    --      0.2536                 5.5315                 4.5005

                     40                     41                     42
                      A                      A                      A
 Frequencies --   1050.1994              1068.0391              1071.0841
 Red. masses --      1.5335                 1.9350                 1.5237
 Frc consts  --      0.9965                 1.3005                 1.0299
 IR Inten    --      0.2691                 9.2606                 7.2312

                     43                     44                     45
                      A                      A                      A
 Frequencies --   1075.4315              1094.8263              1115.4476
 Red. masses --      1.5128                 1.4775                 1.9389
 Frc consts  --      1.0309                 1.0434                 1.4213
 IR Inten    --      3.2792                 7.9757                 8.9143

                     46                     47                     48
                      A                      A                      A
 Frequencies --   1145.9862              1149.7082              1196.8936
 Red. masses --      2.2907                 1.7721                 1.8779
 Frc consts  --      1.7725                 1.3801                 1.5850
 IR Inten    --      1.3599                 0.8352                15.6040

                     49                     50                     51
                      A                      A                      A
 Frequencies --   1203.1079              1222.9719              1266.3213
 Red. masses --      1.2146                 3.0750                 1.3575
 Frc consts  --      1.0358                 2.7097                 1.2825
 IR Inten    --      0.9927                 2.6290                24.4423

                     52                     53                     54
                      A                      A                      A
 Frequencies --   1277.7101              1296.9828              1326.7958
 Red. masses --      3.5792                 1.5639                 2.1243
 Frc consts  --      3.4427                 1.5500                 2.2033
 IR Inten    --      0.2888                 3.2059                 5.3843

                     55                     56                     57
                      A                      A                      A
 Frequencies --   1335.5088              1353.8416              1399.3424
 Red. masses --      1.6912                 1.3289                 1.3402
 Frc consts  --      1.7772                 1.4351                 1.5462
 IR Inten    --      2.6548                 1.4541                 2.0945

                     58                     59                     60
                      A                      A                      A
 Frequencies --   1428.8559              1437.3905              1444.1648
 Red. masses --      1.2435                 1.2288                 1.2265
 Frc consts  --      1.4958                 1.4958                 1.5071
 IR Inten    --      4.3127                 4.0527                 1.2915

                     61                     62                     63
                      A                      A                      A
 Frequencies --   1445.2585              1454.7546              1474.7186
 Red. masses --      1.2353                 1.2214                 2.3721
 Frc consts  --      1.5203                 1.5229                 3.0395
 IR Inten    --      3.2870                 1.9372                 0.1746

                     64                     65                     66
                      A                      A                      A
 Frequencies --   1509.4192              1511.5603              1513.1695
 Red. masses --      1.8189                 1.0691                 1.0606
 Frc consts  --      2.4416                 1.4393                 1.4308
 IR Inten    --      2.8390                 4.8751                 3.2940

                     67                     68                     69
                      A                      A                      A
 Frequencies --   1519.0874              1520.3196              1523.9031
 Red. masses --      1.0668                 1.1071                 1.0858
 Frc consts  --      1.4504                 1.5076                 1.4856
 IR Inten    --      1.1546                 3.5130                15.0872

                     70                     71                     72
                      A                      A                      A
 Frequencies --   1525.2792              1537.4946              1540.3957
 Red. masses --      1.0468                 1.0523                 1.0604
 Frc consts  --      1.4349                 1.4656                 1.4825
 IR Inten    --      7.0822                 1.0625                 9.5476

                     73                     74                     75
                      A                      A                      A
 Frequencies --   1542.6198              1555.4005              1640.0976
 Red. masses --      1.1462                 1.0698                 6.4355
 Frc consts  --      1.6071                 1.5249                10.1994
 IR Inten    --     22.6102                 4.1337                 2.7752

                     76                     77                     78
                      A                      A                      A
 Frequencies --   1655.5050              3035.6524              3039.4425
 Red. masses --      5.0678                 1.0832                 1.0447
 Frc consts  --      8.1834                 5.8811                 5.6864
 IR Inten    --      1.2314                 7.9345                26.9061

                     79                     80                     81
                      A                      A                      A
 Frequencies --   3048.0608              3054.7046              3056.9755
 Red. masses --      1.0443                 1.0462                 1.0462
 Frc consts  --      5.7163                 5.7520                 5.7601
 IR Inten    --     14.2887                58.9713                16.2293

                     82                     83                     84
                      A                      A                      A
 Frequencies --   3070.5976              3075.7835              3102.6442
 Red. masses --      1.0385                 1.0811                 1.0905
 Frc consts  --      5.7692                 6.0262                 6.1852
 IR Inten    --     35.4978                 4.6952                16.6276

                     85                     86                     87
                      A                      A                      A
 Frequencies --   3119.6499              3125.2190              3128.3847
 Red. masses --      1.0934                 1.0979                 1.0929
 Frc consts  --      6.2697                 6.3179                 6.3020
 IR Inten    --     28.9079                25.2666                19.5051

                     88                     89                     90
                      A                      A                      A
 Frequencies --   3129.8595              3134.2589              3139.9209
 Red. masses --      1.1010                 1.1024                 1.1007
 Frc consts  --      6.3546                 6.3803                 6.3938
 IR Inten    --     13.1804                11.8688                36.4352

                     91                     92                     93
                      A                      A                      A
 Frequencies --   3148.5373              3172.5155              3177.2829
 Red. masses --      1.1005                 1.0980                 1.0855
 Frc consts  --      6.4275                 6.5111                 6.4565
 IR Inten    --      7.5676                12.4330                 1.0139

                     94                     95                     96
                      A                      A                      A
 Frequencies --   3185.3947              3190.4552              3204.8423
 Red. masses --      1.0904                 1.0948                 1.0969
 Frc consts  --      6.5185                 6.5657                 6.6379
 IR Inten    --     31.1725                15.3465                33.8069

 - Thermochemistry -
 -------------------
 Temperature   298.150 Kelvin.  Pressure   1.00000 Atm.
 Atom     1 has atomic number  6 and mass  12.00000

 Molecular mass:   208.12857 amu.
 Principal axes and moments of inertia in atomic units:
                           1         2         3
     Eigenvalues --  2185.636323684.584984181.50317
           X            0.99892  -0.04628  -0.00373
           Y            0.04630   0.99892   0.00374
           Z            0.00355  -0.00391   0.99999
 This molecule is an asymmetric top.
 Rotational symmetry number  1.
 Warning -- assumption of classical behavior for rotation
           may cause significant error
 Rotational temperatures (Kelvin)      0.03963     0.02351     0.02071
 Rotational constants (GHZ):           0.82573     0.48981     0.43160
 Zero-point vibrational energy     790891.0 (Joules/Mol)
                                  189.02749 (Kcal/Mol)
 Warning -- explicit consideration of  26 degrees of freedom as
           vibrations may cause significant error
 Vibrational temperatures:     56.65   102.89   138.04   147.23   221.83
          (Kelvin)            267.77   291.62   312.87   325.80   336.41
                              343.86   378.39   408.73   444.83   463.63
                              482.73   491.90   532.42   570.49   657.73
                              690.45   754.84   762.70   784.40   814.83
                              860.38   923.98   999.08  1104.18  1130.64
                             1171.62  1299.09  1300.59  1337.73  1352.54
                             1392.50  1394.35  1457.25  1487.10  1511.00
                             1536.67  1541.05  1547.31  1575.21  1604.88
                             1648.82  1654.17  1722.06  1731.00  1759.58
                             1821.95  1838.34  1866.07  1908.96  1921.50
                             1947.88  2013.34  2055.80  2068.08  2077.83
                             2079.40  2093.07  2121.79  2171.72  2174.80
                             2177.11  2185.63  2187.40  2192.56  2194.54
                             2212.11  2216.29  2219.49  2237.87  2359.73
                             2381.90  4367.63  4373.08  4385.48  4395.04
                             4398.31  4417.91  4425.37  4464.01  4488.48
                             4496.49  4501.05  4503.17  4509.50  4517.65
                             4530.04  4564.54  4571.40  4583.07  4590.35
                             4611.05

 Zero-point correction=                           0.301234 (Hartree/Particle)
 Thermal correction to Energy=                    0.316846
 Thermal correction to Enthalpy=                  0.317790
 Thermal correction to Gibbs Free Energy=         0.259611
 Sum of electronic and zero-point Energies=           -905.391486
 Sum of electronic and thermal Energies=              -905.375874
 Sum of electronic and thermal Enthalpies=            -905.374930
 Sum of electronic and thermal Free Energies=         -905.433109

                     E (Thermal)             CV                S
                      KCal/Mol        Cal/Mol-Kelvin    Cal/Mol-Kelvin
 Total                  198.824             60.285            122.449
 Electronic               0.000              0.000              0.000
 Translational            0.889              2.981             41.903
 Rotational               0.889              2.981             31.888
 Vibrational            197.047             54.324             48.658
 Vibration     1          0.594              1.981              5.290
 Vibration     2          0.598              1.968              4.111
 Vibration     3          0.603              1.952              3.535
 Vibration     4          0.604              1.947              3.409
 Vibration     5          0.620              1.898              2.620
 Vibration     6          0.632              1.859              2.266
 Vibration     7          0.639              1.836              2.109
 Vibration     8          0.646              1.814              1.980
 Vibration     9          0.650              1.801              1.907
 Vibration    10          0.654              1.789              1.849
 Vibration    11          0.657              1.781              1.810
 Vibration    12          0.670              1.741              1.642
 Vibration    13          0.682              1.703              1.509
 Vibration    14          0.699              1.656              1.367
 Vibration    15          0.707              1.631              1.299
 Vibration    16          0.717              1.605              1.233
 Vibration    17          0.721              1.592              1.203
 Vibration    18          0.742              1.534              1.080
 Vibration    19          0.763              1.478              0.976
 Vibration    20          0.815              1.345              0.774
 Vibration    21          0.836              1.295              0.710
 Vibration    22          0.880              1.195              0.599
 Vibration    23          0.885              1.183              0.587
 Vibration    24          0.900              1.150              0.554
 Vibration    25          0.922              1.104              0.511
 Vibration    26          0.956              1.036              0.453

                           ! Non-Optimized Parameters !
 Normal termination of Gaussian 16 at Thu Dec 10 10:33:52 2020.

 ----------------------------------------------------------------------
 # B3LYP/6-311++G(d,p) empiricaldispersion=gd3bj scf=xqc pop=npa geom=c
 heck
 ----------------------------------------------------------------------

 --------------------------------------
 CID_59882065_JID_4663_Energie_neutraal
 --------------------------------------
 Structure from the checkpoint file:  "JID_4663.chk"
 Charge =  0 Multiplicity = 1

 SCF Done:  E(RB3LYP) =  -905.853705633     A.U. after   15 cycles
 Normal termination of Gaussian 16 at Thu Dec 10 10:38:43 2020.

 ----------------------------------------------------------------------
 # B3LYP/6-311++G(d,p) empiricaldispersion=gd3bj scf=xqc pop=npa geom=c
 heck
 ----------------------------------------------------------------------

 ------------------------------------
 CID_59882065_JID_4663_Energie_kation
 ------------------------------------
 Structure from the checkpoint file:  "JID_4663.chk"
 Charge =  1 Multiplicity = 2

 SCF Done:  E(UB3LYP) =  -905.567272423     A.U. after   29 cycles
 Normal termination of Gaussian 16 at Thu Dec 10 10:51:03 2020.
 Gaussian 16:  ES64L-G16RevA.03 25-Dec-2016

 ----------------------------------------------------------------------
 # B3LYP/6-311++G(d,p) empiricaldispersion=gd3bj scf=xqc pop=npa geom=c
 heck
 ----------------------------------------------------------------------

 -----------------------------------
 CID_59882065_JID_4663_Energie_anion
 -----------------------------------
 Structure from the checkpoint file:  "JID_4663.chk"
 Charge = -1 Multiplicity = 2

                         Standard orientation:
 ---------------------------------------------------------------------
 Center     Atomic      Atomic             Coordinates (Angstroms)
 Number     Number       Type             X           Y           Z
 ---------------------------------------------------------------------
      1          6           0        1.519563   -2.546896    0.044724
      2          6           0        1.740840   -1.053237   -0.034842
      3          6           0        0.816405   -0.119932    0.503603
      4          6           0        1.115940    1.260762    0.415961
      5          6           0        2.298628    1.667218   -0.217986
      6          6           0        3.191505    0.752409   -0.759177
      7          6           0        2.906961   -0.603955   -0.659692
      8          6           0        0.237080    2.371770    0.951746
      9          6           0       -0.437134   -0.696751    1.155760
     10          6           0       -1.085317    0.047956    2.329275
     11         16           0       -1.713001   -1.366173   -0.041510
     12          6           0       -2.335221   -0.037178   -1.169161
     13          6           0       -3.210899    1.013121   -0.482299
     14          6           0       -1.266959    0.573950   -2.078283
     15          1           0        1.489377   -2.902926    1.083239
     16          1           0        0.577227   -2.842979   -0.426502
     17          1           0        2.334347   -3.078318   -0.454986
     18          1           0        2.512563    2.730681   -0.284928
     19          1           0        4.099798    1.092627   -1.248485
     20          1           0        3.598608   -1.335380   -1.069264
     21          1           0       -0.785001    2.318901    0.568964
     22          1           0        0.177211    2.369750    2.044023
     23          1           0        0.643702    3.341213    0.649911
     24          1           0       -0.132528   -1.660602    1.574472
     25          1           0       -1.639792    0.936410    2.033345
     26          1           0       -1.789662   -0.626811    2.823739
     27          1           0       -0.321982    0.342803    3.059583
     28          1           0       -2.993143   -0.655040   -1.795246
     29          1           0       -2.622993    1.676432    0.157596
     30          1           0       -3.703130    1.639174   -1.237565
     31          1           0       -3.981687    0.542577    0.134302
     32          1           0       -0.671663   -0.204500   -2.562923
     33          1           0       -1.749712    1.179607   -2.855976
     34          1           0       -0.581869    1.219726   -1.526933
 ---------------------------------------------------------------------

 SCF Done:  E(UB3LYP) =  -905.837638607     A.U. after   33 cycles
 SCF Done:  E(UB3LYP) =  -905.837638607     a.u. after    1 cycles

 The electronic state is 2-A.
 Alpha  occ. eigenvalues --  -88.73315 -10.11470 -10.10883 -10.08938 -10.08842
 Alpha  occ. eigenvalues --  -10.08720 -10.07522 -10.07206 -10.07138 -10.06821
 Alpha  occ. eigenvalues --  -10.06808 -10.06786 -10.06563 -10.06024  -7.81936
 Alpha  occ. eigenvalues --   -5.78347  -5.77943  -5.77303  -0.77085  -0.72329
 Alpha  occ. eigenvalues --   -0.69490  -0.68838  -0.64972  -0.60361  -0.59523
 Alpha  occ. eigenvalues --   -0.59079  -0.57999  -0.53012  -0.48672  -0.47809
 Alpha  occ. eigenvalues --   -0.45360  -0.40406  -0.38465  -0.36440  -0.35620
 Alpha  occ. eigenvalues --   -0.34149  -0.33408  -0.32900  -0.32460  -0.31925
 Alpha  occ. eigenvalues --   -0.31539  -0.31151  -0.30512  -0.29608  -0.28780
 Alpha  occ. eigenvalues --   -0.28145  -0.27309  -0.26072  -0.25374  -0.25101
 Alpha  occ. eigenvalues --   -0.24338  -0.23579  -0.22389  -0.19589  -0.14624
 Alpha  occ. eigenvalues --   -0.14492  -0.12460   0.04429
 Alpha virt. eigenvalues --    0.06357   0.06790   0.06921   0.07418   0.08214
 Alpha virt. eigenvalues --    0.08388   0.08545   0.09476   0.09570   0.10052
 Alpha virt. eigenvalues --    0.10868   0.11086   0.11400   0.12147   0.12536

  Beta  occ. eigenvalues --  -88.73314 -10.11464 -10.10875 -10.08933 -10.08841
  Beta  occ. eigenvalues --  -10.08720 -10.07513 -10.07195 -10.07126 -10.06800
  Beta  occ. eigenvalues --  -10.06782 -10.06756 -10.06529 -10.06000  -7.81934
  Beta  occ. eigenvalues --   -5.78345  -5.77941  -5.77302  -0.77071  -0.72306
  Beta  occ. eigenvalues --   -0.69465  -0.68818  -0.64947  -0.60319  -0.59485
  Beta  occ. eigenvalues --   -0.59028  -0.57960  -0.52971  -0.48635  -0.47771
  Beta  occ. eigenvalues --   -0.45327  -0.40371  -0.38435  -0.36397  -0.35590
  Beta  occ. eigenvalues --   -0.34124  -0.33378  -0.32861  -0.32431  -0.31894
  Beta  occ. eigenvalues --   -0.31505  -0.31118  -0.30484  -0.29579  -0.28750
  Beta  occ. eigenvalues --   -0.28115  -0.27277  -0.26044  -0.25346  -0.25077
  Beta  occ. eigenvalues --   -0.24313  -0.23556  -0.22363  -0.19570  -0.14613
  Beta  occ. eigenvalues --   -0.14481  -0.12449
  Beta virt. eigenvalues --    0.06421   0.07111   0.07243   0.07474   0.07854
  Beta virt. eigenvalues --    0.08307   0.08906   0.09033   0.09862   0.09960
  Beta virt. eigenvalues --    0.10381   0.11269   0.11450   0.11734   0.12435

 Mulliken charges and spin densities:
               1          2
     1  C    0.973050  -1.626292
     2  C   -0.531174   0.620424
     3  C    0.367019  -0.045902
     4  C   -1.485507   1.740090
     5  C    0.279258  -0.583404
     6  C    0.692190  -1.148506
     7  C   -0.350979   0.071361
     8  C    1.351253  -1.666622
     9  C   -0.975916   0.902740
    10  C    0.388053  -0.954335
    11  S    0.568261  -0.478146
    12  C   -0.940235   0.876737
    13  C    0.392492  -0.987942
    14  C    0.350724  -0.922575
    15  H   -0.157920   0.324595
    16  H    0.017652   0.120800
    17  H   -0.046459   0.189768
    18  H   -0.332192   0.483723
    19  H   -0.309168   0.468172
    20  H   -0.311428   0.454340
    21  H    0.017012   0.148502
    22  H   -0.035317   0.195533
    23  H   -0.402453   0.562347
    24  H    0.397169  -0.176555
    25  H    0.157645   0.000413
    26  H   -0.167733   0.323577
    27  H   -0.167720   0.312035
    28  H   -0.117142   0.355384
    29  H   -0.238329   0.339458
    30  H   -0.338181   0.480189
    31  H   -0.075819   0.214716
    32  H   -0.021692   0.150258
    33  H   -0.118366   0.272817
    34  H    0.171949  -0.017700
 Sum of Mulliken charges =  -1.00000   1.00000

 Dipole moment (field-independent basis, Debye):
    X=              0.2600    Y=             -2.5632    Z=              0.7663  Tot=              2.6879
 Quadrupole moment (field-independent basis, Debye-Ang):
   XX=           -161.3294   YY=           -147.7373   ZZ=           -137.2533
   XY=              2.7370   XZ=             -1.5684   YZ=              1.4440

 Summary of Natural Population Analysis:

                                       Natural Population
                Natural  -----------------------------------------------
    Atom  No    Charge         Core      Valence    Rydberg      Total
 -----------------------------------------------------------------------
      C    1   -0.30109      0.99963     2.29583    0.00563     3.30109
      C    2   -0.00368      0.99948     1.99436    0.00984     3.00368
      C    3   -0.02442      0.99940     2.01276    0.01226     3.02442
      C    4   -0.01421      0.99948     2.00409    0.01065     3.01421
      C    5   -0.10093      0.99951     2.09168    0.00975     3.10093
      C    6   -0.09612      0.99955     2.08624    0.01033     3.09612
      C    7   -0.10287      0.99951     2.09376    0.00961     3.10287
      C    8   -0.29428      0.99963     2.28845    0.00621     3.29428
      C    9   -0.17033      0.99952     2.15718    0.01363     3.17033
      C   10   -0.28632      0.99963     2.27993    0.00676     3.28632
      S   11    0.08490      4.99959     2.90020    0.01531     7.91510
      C   12   -0.16811      0.99958     2.15557    0.01296     3.16811
      C   13   -0.28669      0.99962     2.28041    0.00666     3.28669
      C   14   -0.28933      0.99962     2.28294    0.00676     3.28933
      H   15    0.10182      0.00000     0.39702    0.00116     0.39818
      H   16    0.11386      0.00000     0.38488    0.00126     0.38614
      H   17    0.10202      0.00000     0.39702    0.00096     0.39798
      H   18    0.09962      0.00000     0.39917    0.00121     0.40038
      H   19    0.10032      0.00000     0.39870    0.00098     0.39968
      H   20    0.09865      0.00000     0.40023    0.00112     0.40135
      H   21    0.10160      0.00000     0.39676    0.00164     0.39840
      H   22    0.10653      0.00000     0.39226    0.00120     0.39347
      H   23    0.10361      0.00000     0.39503    0.00136     0.39639
      H   24    0.11043      0.00000     0.38792    0.00164     0.38957
      H   25    0.10133      0.00000     0.39732    0.00135     0.39867
      H   26    0.10387      0.00000     0.39503    0.00110     0.39613
      H   27    0.10072      0.00000     0.39806    0.00122     0.39928
      H   28    0.10219      0.00000     0.39659    0.00122     0.39781
      H   29    0.09516      0.00000     0.40339    0.00145     0.40484
      H   30    0.10140      0.00000     0.39710    0.00150     0.39860
      H   31    0.10316      0.00000     0.39564    0.00120     0.39684
      H   32    0.10438      0.00000     0.39440    0.00121     0.39562
      H   33    0.09983      0.00000     0.39897    0.00120     0.40017
      H   34    0.10300      0.00000     0.39513    0.00188     0.39700
 =======================================================================
   * Total *   -0.00000     17.99374    38.84402    0.16224    57.00000

 Normal termination of Gaussian 16 at Thu Dec 10 11:07:06 2020.
