 Gaussian 16, Revision A.03,

 -----------------------------------------------------------
 # opt freq B3LYP/6-31G(d) empiricaldispersion=gd3bj scf=xqc
 -----------------------------------------------------------

 -------------------------------
 CID_115723855_JID_6637_neutraal
 -------------------------------
 Symbolic Z-matrix:
 Charge =  0 Multiplicity = 1

 SCF Done:  E(RB3LYP) =  -1016.36276935     A.U. after   15 cycles
 SCF Done:  E(RB3LYP) =  -1016.36397333     A.U. after   13 cycles
 SCF Done:  E(RB3LYP) =  -1016.35934782     A.U. after   13 cycles
 SCF Done:  E(RB3LYP) =  -1016.36698478     A.U. after   12 cycles
 SCF Done:  E(RB3LYP) =  -1016.36571463     A.U. after   13 cycles
 SCF Done:  E(RB3LYP) =  -1016.36832469     A.U. after   12 cycles
 SCF Done:  E(RB3LYP) =  -1016.36826567     A.U. after   12 cycles
 SCF Done:  E(RB3LYP) =  -1016.36857004     A.U. after   12 cycles
 SCF Done:  E(RB3LYP) =  -1016.36870543     A.U. after   10 cycles
 SCF Done:  E(RB3LYP) =  -1016.36874787     A.U. after   11 cycles
 SCF Done:  E(RB3LYP) =  -1016.36893828     A.U. after   10 cycles
 SCF Done:  E(RB3LYP) =  -1016.36893787     A.U. after    8 cycles
 SCF Done:  E(RB3LYP) =  -1016.36893837     A.U. after    8 cycles
 SCF Done:  E(RB3LYP) =  -1016.36893842     A.U. after    7 cycles
 SCF Done:  E(RB3LYP) =  -1016.36893845     A.U. after    7 cycles
 Optimization completed.
    -- Stationary point found.
 Normal termination of Gaussian 16 at Fri Dec 11 00:09:20 2020.

 --------------------------------------------------------------------
 #N Geom=AllCheck Guess=TCheck SCRF=Check GenChk RB3LYP/6-31G(d) Freq
 --------------------------------------------------------------------

 Structure from the checkpoint file:  "JID_6637.chk"
 -------------------------------
 CID_115723855_JID_6637_neutraal
 -------------------------------
 Charge =  0 Multiplicity = 1

 SCF Done:  E(RB3LYP) =  -1016.36893845     A.U. after    1 cycles

  Exact polarizability: 192.596 -23.413 148.452  11.735   7.219 137.848
 Approx polarizability: 257.878 -40.192 223.723  25.754  17.396 248.689

                      1                      2                      3
                      A                      A                      A
 Frequencies --     31.9308                35.5148                54.4307
 Red. masses --      3.9099                 5.1394                 4.0144
 Frc consts  --      0.0023                 0.0038                 0.0070
 IR Inten    --      0.1001                 0.5207                 0.0888

                      4                      5                      6
                      A                      A                      A
 Frequencies --     59.4359                78.0283               101.5859
 Red. masses --      3.4164                 4.3279                 3.4391
 Frc consts  --      0.0071                 0.0155                 0.0209
 IR Inten    --      0.2527                 0.5864                 0.1701

                      7                      8                      9
                      A                      A                      A
 Frequencies --    104.2654               132.2498               135.9741
 Red. masses --      2.6475                 2.3696                 1.3759
 Frc consts  --      0.0170                 0.0244                 0.0150
 IR Inten    --      0.0527                 0.1853                 0.3817

                     10                     11                     12
                      A                      A                      A
 Frequencies --    156.6147               178.0591               214.3928
 Red. masses --      2.6626                 2.2052                 1.7130
 Frc consts  --      0.0385                 0.0412                 0.0464
 IR Inten    --      2.8658                 0.9221                 0.0456

                     13                     14                     15
                      A                      A                      A
 Frequencies --    231.3554               260.6271               288.6916
 Red. masses --      1.8694                 2.5256                 2.6110
 Frc consts  --      0.0590                 0.1011                 0.1282
 IR Inten    --      0.8963                 2.1584                 1.4451

                     16                     17                     18
                      A                      A                      A
 Frequencies --    299.3542               331.7144               343.2589
 Red. masses --      2.1720                 2.5687                 2.5868
 Frc consts  --      0.1147                 0.1665                 0.1796
 IR Inten    --      0.3624                 0.1467                 1.2714

                     19                     20                     21
                      A                      A                      A
 Frequencies --    372.4783               415.6508               426.2095
 Red. masses --      2.1768                 3.3391                 1.8386
 Frc consts  --      0.1779                 0.3399                 0.1968
 IR Inten    --      1.2672                 2.0660                 1.4918

                     22                     23                     24
                      A                      A                      A
 Frequencies --    446.3070               480.8040               509.5766
 Red. masses --      2.5315                 2.5494                 4.4757
 Frc consts  --      0.2971                 0.3472                 0.6847
 IR Inten    --      1.7686                 2.0830                 6.7033

                     25                     26                     27
                      A                      A                      A
 Frequencies --    559.3303               585.1815               611.6724
 Red. masses --      2.2572                 2.5025                 4.8435
 Frc consts  --      0.4161                 0.5049                 1.0677
 IR Inten    --      1.2612                10.5044                 9.5877

                     28                     29                     30
                      A                      A                      A
 Frequencies --    630.2389               674.9012               681.9419
 Red. masses --      4.6769                 5.8357                 1.7387
 Frc consts  --      1.0945                 1.5661                 0.4764
 IR Inten    --      4.0454                 0.7526                 8.5901

                     31                     32                     33
                      A                      A                      A
 Frequencies --    720.4111               756.8475               774.1505
 Red. masses --      2.0752                 2.7821                 1.9492
 Frc consts  --      0.6346                 0.9390                 0.6883
 IR Inten    --     48.4611                 4.2036                 7.3483

                     34                     35                     36
                      A                      A                      A
 Frequencies --    813.0034               852.8877               860.2133
 Red. masses --      1.5225                 2.2400                 1.3517
 Frc consts  --      0.5929                 0.9600                 0.5893
 IR Inten    --      0.0785                 1.1099                11.6820

                     37                     38                     39
                      A                      A                      A
 Frequencies --    873.1178               896.8255               923.8339
 Red. masses --      1.7903                 1.6445                 2.1307
 Frc consts  --      0.8041                 0.7793                 1.0714
 IR Inten    --      6.3711                10.6180                18.7956

                     40                     41                     42
                      A                      A                      A
 Frequencies --    933.0864               955.8177               985.3168
 Red. masses --      1.3823                 1.7421                 1.6785
 Frc consts  --      0.7091                 0.9377                 0.9601
 IR Inten    --     46.0050                15.8054                 3.9034

                     43                     44                     45
                      A                      A                      A
 Frequencies --   1014.4647              1029.4549              1037.2397
 Red. masses --      1.7422                 2.1080                 1.9620
 Frc consts  --      1.0564                 1.3163                 1.2437
 IR Inten    --      3.4203                 4.1622                17.4753

                     46                     47                     48
                      A                      A                      A
 Frequencies --   1051.4508              1063.2172              1073.0607
 Red. masses --      1.1068                 2.6230                 1.4027
 Frc consts  --      0.7210                 1.7470                 0.9516
 IR Inten    --     16.5652                 1.8580                 1.2009

                     49                     50                     51
                      A                      A                      A
 Frequencies --   1079.2705              1103.3681              1144.9598
 Red. masses --      1.3230                 1.9573                 2.1105
 Frc consts  --      0.9080                 1.4039                 1.6301
 IR Inten    --      0.6800                23.3262                10.2762

                     52                     53                     54
                      A                      A                      A
 Frequencies --   1156.5679              1173.1997              1191.6275
 Red. masses --      2.3984                 2.9920                 2.4436
 Frc consts  --      1.8902                 2.4264                 2.0444
 IR Inten    --     18.6746                73.7841                 3.2292

                     55                     56                     57
                      A                      A                      A
 Frequencies --   1195.6554              1217.4970              1250.0011
 Red. masses --      3.7940                 2.7234                 1.3237
 Frc consts  --      3.1957                 2.3785                 1.2186
 IR Inten    --      9.7821                 5.4565                 5.5647

                     58                     59                     60
                      A                      A                      A
 Frequencies --   1257.9505              1263.5476              1291.2252
 Red. masses --      1.2105                 1.3445                 1.2678
 Frc consts  --      1.1286                 1.2647                 1.2454
 IR Inten    --      9.3382                 0.8265                 6.7667

                     61                     62                     63
                      A                      A                      A
 Frequencies --   1307.0797              1329.8466              1339.5394
 Red. masses --      1.2845                 1.9880                 1.2215
 Frc consts  --      1.2930                 2.0715                 1.2914
 IR Inten    --      4.7936                 2.2744                 0.0495

                     64                     65                     66
                      A                      A                      A
 Frequencies --   1354.5528              1361.5392              1374.7798
 Red. masses --      1.3344                 1.3476                 1.3425
 Frc consts  --      1.4425                 1.4719                 1.4949
 IR Inten    --      4.4379                 0.8416                 2.4166

                     67                     68                     69
                      A                      A                      A
 Frequencies --   1392.7688              1404.9875              1415.6208
 Red. masses --      1.3857                 1.2449                 1.3038
 Frc consts  --      1.5837                 1.4479                 1.5394
 IR Inten    --      5.5132                14.1936                15.8924

                     70                     71                     72
                      A                      A                      A
 Frequencies --   1429.5078              1441.5392              1445.4479
 Red. masses --      1.3668                 1.2425                 1.2456
 Frc consts  --      1.6456                 1.5213                 1.5333
 IR Inten    --      3.9735                 4.3273                 0.0331

                     73                     74                     75
                      A                      A                      A
 Frequencies --   1474.6659              1500.5942              1507.3471
 Red. masses --      1.1796                 1.0954                 1.0423
 Frc consts  --      1.5114                 1.4533                 1.3953
 IR Inten    --      0.9009                 8.0856                 7.5399

                     76                     77                     78
                      A                      A                      A
 Frequencies --   1508.9504              1509.9159              1517.1260
 Red. masses --      1.1112                 1.0873                 1.1866
 Frc consts  --      1.4907                 1.4605                 1.6091
 IR Inten    --      1.5069                 2.7227                 8.7166

                     79                     80                     81
                      A                      A                      A
 Frequencies --   1523.1404              1527.4097              1531.8140
 Red. masses --      1.0895                 1.0794                 1.0577
 Frc consts  --      1.4892                 1.4837                 1.4623
 IR Inten    --      7.6136                 1.6914                 8.3941

                     82                     83                     84
                      A                      A                      A
 Frequencies --   1536.8937              1542.7179              1556.6295
 Red. masses --      1.2472                 1.0747                 3.9616
 Frc consts  --      1.7357                 1.5070                 5.6558
 IR Inten    --     26.0264                 4.2934                19.1708

                     85                     86                     87
                      A                      A                      A
 Frequencies --   1604.3590              1728.4335              3006.5710
 Red. masses --      5.4710                 4.3796                 1.0828
 Frc consts  --      8.2970                 7.7088                 5.7670
 IR Inten    --     17.1658                 5.5107                15.3856

                     88                     89                     90
                      A                      A                      A
 Frequencies --   3031.8491              3037.1502              3041.1522
 Red. masses --      1.0665                 1.0615                 1.0640
 Frc consts  --      5.7759                 5.7690                 5.7976
 IR Inten    --     11.6237                19.0011                65.4012

                     91                     92                     93
                      A                      A                      A
 Frequencies --   3042.5538              3046.5696              3048.5338
 Red. masses --      1.0404                 1.0362                 1.0615
 Frc consts  --      5.6747                 5.6664                 5.8123
 IR Inten    --      7.4097                32.6963                26.9631

                     94                     95                     96
                      A                      A                      A
 Frequencies --   3052.1091              3076.7999              3079.5893
 Red. masses --      1.0672                 1.1012                 1.1024
 Frc consts  --      5.8571                 6.1419                 6.1602
 IR Inten    --     75.7814                25.0706                28.7733

                     97                     98                     99
                      A                      A                      A
 Frequencies --   3081.8558              3100.2140              3107.0791
 Red. masses --      1.1001                 1.1017                 1.1011
 Frc consts  --      6.1559                 6.2388                 6.2630
 IR Inten    --     18.3340                16.9900                50.0493

                    100                    101                    102
                      A                      A                      A
 Frequencies --   3112.4827              3116.3937              3119.4161
 Red. masses --      1.0948                 1.0986                 1.0981
 Frc consts  --      6.2488                 6.2861                 6.2954
 IR Inten    --     27.5037                45.5159                12.6588

                    103                    104                    105
                      A                      A                      A
 Frequencies --   3128.0347              3142.5031              3162.6185
 Red. masses --      1.1013                 1.0831                 1.0658
 Frc consts  --      6.3487                 6.3018                 6.2811
 IR Inten    --     11.2425                16.8049                 6.2150

                    106                    107                    108
                      A                      A                      A
 Frequencies --   3219.3700              3238.9338              3533.3300
 Red. masses --      1.0934                 1.1161                 1.0737
 Frc consts  --      6.6768                 6.8983                 7.8974
 IR Inten    --     12.1030                13.3885                 9.8219

 - Thermochemistry -
 -------------------
 Temperature   298.150 Kelvin.  Pressure   1.00000 Atm.
 Atom     1 has atomic number  6 and mass  12.00000

 Molecular mass:   238.15037 amu.
 Principal axes and moments of inertia in atomic units:
                           1         2         3
     Eigenvalues --  2259.475475894.177066928.70449
           X            0.99985  -0.01620   0.00538
           Y            0.01622   0.99987  -0.00227
           Z           -0.00535   0.00236   0.99998
 This molecule is an asymmetric top.
 Rotational symmetry number  1.
 Warning -- assumption of classical behavior for rotation
           may cause significant error
 Rotational temperatures (Kelvin)      0.03833     0.01469     0.01250
 Rotational constants (GHZ):           0.79874     0.30619     0.26047
 Zero-point vibrational energy     879634.3 (Joules/Mol)
                                  210.23763 (Kcal/Mol)
 Warning -- explicit consideration of  27 degrees of freedom as
           vibrations may cause significant error
 Vibrational temperatures:     45.94    51.10    78.31    85.51   112.27
          (Kelvin)            146.16   150.01   190.28   195.64   225.33
                              256.19   308.46   332.87   374.98   415.36
                              430.70   477.26   493.87   535.91   598.03
                              613.22   642.14   691.77   733.17   804.75
                              841.95   880.06   906.77   971.03   981.16
                             1036.51  1088.93  1113.83  1169.73  1227.12
                             1237.66  1256.22  1290.33  1329.19  1342.50
                             1375.21  1417.65  1459.59  1481.16  1492.36
                             1512.80  1529.73  1543.89  1552.83  1587.50
                             1647.34  1664.04  1687.97  1714.49  1720.28
                             1751.71  1798.47  1809.91  1817.96  1857.79
                             1880.60  1913.35  1927.30  1948.90  1958.95
                             1978.00  2003.88  2021.46  2036.76  2056.74
                             2074.05  2079.68  2121.72  2159.02  2168.74
                             2171.04  2172.43  2182.81  2191.46  2197.60
                             2203.94  2211.25  2219.63  2239.64  2308.31
                             2486.83  4325.79  4362.15  4369.78  4375.54
                             4377.56  4383.33  4386.16  4391.30  4426.83
                             4430.84  4434.10  4460.52  4470.39  4478.17
                             4483.80  4488.14  4500.54  4521.36  4550.30
                             4631.96  4660.10  5083.67

 Zero-point correction=                           0.335035 (Hartree/Particle)
 Thermal correction to Energy=                    0.353050
 Thermal correction to Enthalpy=                  0.353994
 Thermal correction to Gibbs Free Energy=         0.288063
 Sum of electronic and zero-point Energies=          -1016.033903
 Sum of electronic and thermal Energies=             -1016.015889
 Sum of electronic and thermal Enthalpies=           -1016.014945
 Sum of electronic and thermal Free Energies=        -1016.080875

                     E (Thermal)             CV                S
                      KCal/Mol        Cal/Mol-Kelvin    Cal/Mol-Kelvin
 Total                  221.542             67.012            138.762
 Electronic               0.000              0.000              0.000
 Translational            0.889              2.981             42.305
 Rotational               0.889              2.981             32.889
 Vibrational            219.765             61.051             63.568
 Vibration     1          0.594              1.983              5.706
 Vibration     2          0.594              1.982              5.495
 Vibration     3          0.596              1.976              4.650
 Vibration     4          0.597              1.974              4.476
 Vibration     5          0.599              1.964              3.940
 Vibration     6          0.604              1.948              3.424
 Vibration     7          0.605              1.946              3.373
 Vibration     8          0.612              1.921              2.913
 Vibration     9          0.614              1.917              2.860
 Vibration    10          0.620              1.895              2.590
 Vibration    11          0.628              1.869              2.349
 Vibration    12          0.644              1.819              2.006
 Vibration    13          0.653              1.793              1.868
 Vibration    14          0.669              1.745              1.658
 Vibration    15          0.685              1.695              1.482
 Vibration    16          0.692              1.675              1.421
 Vibration    17          0.714              1.612              1.252
 Vibration    18          0.722              1.589              1.197
 Vibration    19          0.744              1.529              1.070
 Vibration    20          0.779              1.436              0.907
 Vibration    21          0.788              1.413              0.871
 Vibration    22          0.806              1.369              0.807
 Vibration    23          0.837              1.293              0.708
 Vibration    24          0.865              1.229              0.635
 Vibration    25          0.915              1.119              0.525
 Vibration    26          0.942              1.063              0.476
 Vibration    27          0.971              1.007              0.430

                           ! Non-Optimized Parameters !
 Normal termination of Gaussian 16 at Fri Dec 11 00:23:02 2020.

 ----------------------------------------------------------------------
 # B3LYP/6-311++G(d,p) empiricaldispersion=gd3bj scf=xqc pop=npa geom=c
 heck
 ----------------------------------------------------------------------

 ---------------------------------------
 CID_115723855_JID_6637_Energie_neutraal
 ---------------------------------------
 Structure from the checkpoint file:  "JID_6637.chk"
 Charge =  0 Multiplicity = 1

 SCF Done:  E(RB3LYP) =  -1016.56688981     A.U. after   15 cycles
 Normal termination of Gaussian 16 at Fri Dec 11 00:29:25 2020.

 ----------------------------------------------------------------------
 # B3LYP/6-311++G(d,p) empiricaldispersion=gd3bj scf=xqc pop=npa geom=c
 heck
 ----------------------------------------------------------------------

 -------------------------------------
 CID_115723855_JID_6637_Energie_kation
 -------------------------------------
 Structure from the checkpoint file:  "JID_6637.chk"
 Charge =  1 Multiplicity = 2

 SCF Done:  E(UB3LYP) =  -1016.28156371     A.U. after   26 cycles
 Normal termination of Gaussian 16 at Fri Dec 11 00:44:18 2020.
 Gaussian 16:  ES64L-G16RevA.03 25-Dec-2016

 ----------------------------------------------------------------------
 # B3LYP/6-311++G(d,p) empiricaldispersion=gd3bj scf=xqc pop=npa geom=c
 heck
 ----------------------------------------------------------------------

 ------------------------------------
 CID_115723855_JID_6637_Energie_anion
 ------------------------------------
 Structure from the checkpoint file:  "JID_6637.chk"
 Charge = -1 Multiplicity = 2

                         Standard orientation:
 ---------------------------------------------------------------------
 Center     Atomic      Atomic             Coordinates (Angstroms)
 Number     Number       Type             X           Y           Z
 ---------------------------------------------------------------------
      1          6           0        4.819816    0.202844    0.246212
      2          6           0        3.640676   -0.118171   -0.675817
      3          6           0        2.348231   -0.514353    0.060733
      4          6           0        1.847978    0.568016    1.042419
      5          6           0        1.676881    1.996150    0.472190
      6          6           0        0.765179    2.106951   -0.722558
      7          6           0       -0.503718    2.516919   -0.678721
      8          7           0        1.340618   -0.938363   -0.930834
      9          6           0        0.667362   -2.198654   -0.675145
     10          6           0       -0.242207   -2.275703    0.577671
     11          6           0       -1.312028   -1.227879    0.606551
     12          7           0       -1.536375   -0.424864    1.605932
     13          6           0       -2.566910    0.447996    1.332939
     14          6           0       -3.156781    0.342953    0.106327
     15         16           0       -2.374368   -0.945242   -0.779062
     16          6           0       -4.266700    1.162742   -0.470640
     17          1           0        4.636065    1.096541    0.852825
     18          1           0        5.733973    0.379579   -0.331188
     19          1           0        5.018471   -0.627730    0.935590
     20          1           0        3.433399    0.735811   -1.333876
     21          1           0        3.901199   -0.949128   -1.341478
     22          1           0        2.587784   -1.398496    0.670273
     23          1           0        0.891156    0.249422    1.466680
     24          1           0        2.554901    0.633101    1.879544
     25          1           0        1.285315    2.627773    1.278850
     26          1           0        2.662227    2.401702    0.207104
     27          1           0        1.190249    1.817883   -1.684632
     28          1           0       -1.122618    2.564507   -1.570555
     29          1           0       -0.974026    2.812413    0.255813
     30          1           0        0.651574   -0.205831   -1.072595
     31          1           0        0.065348   -2.439700   -1.561292
     32          1           0        1.424516   -2.988147   -0.594694
     33          1           0       -0.695949   -3.276086    0.619072
     34          1           0        0.343735   -2.151166    1.493496
     35          1           0       -2.856926    1.172374    2.086631
     36          1           0       -3.942505    1.714840   -1.360984
     37          1           0       -5.125969    0.546164   -0.758998
     38          1           0       -4.608397    1.891776    0.270759
 ---------------------------------------------------------------------

 SCF Done:  E(UB3LYP) =  -1016.55476182     A.U. after   33 cycles
 SCF Done:  E(UB3LYP) =  -1016.55476182     a.u. after    1 cycles

 The electronic state is 2-A.
 Alpha  occ. eigenvalues --  -88.76249 -14.19625 -14.18918 -10.11600 -10.09850
 Alpha  occ. eigenvalues --  -10.09426 -10.09306 -10.08537 -10.08403 -10.08038
 Alpha  occ. eigenvalues --  -10.07926 -10.07288 -10.07287 -10.06719 -10.06652
 Alpha  occ. eigenvalues --  -10.06620  -7.84916  -5.81179  -5.80842  -5.80525
 Alpha  occ. eigenvalues --   -0.84882  -0.80662  -0.71538  -0.70163  -0.68867
 Alpha  occ. eigenvalues --   -0.66676  -0.63853  -0.62600  -0.59132  -0.57188
 Alpha  occ. eigenvalues --   -0.53498  -0.51824  -0.47446  -0.45948  -0.45428
 Alpha  occ. eigenvalues --   -0.43149  -0.39742  -0.37988  -0.37473  -0.36539
 Alpha  occ. eigenvalues --   -0.35448  -0.34981  -0.33385  -0.33175  -0.32504
 Alpha  occ. eigenvalues --   -0.31997  -0.30911  -0.30377  -0.29960  -0.29536
 Alpha  occ. eigenvalues --   -0.27639  -0.27104  -0.26878  -0.26279  -0.25829
 Alpha  occ. eigenvalues --   -0.24782  -0.24386  -0.23996  -0.22464  -0.22315
 Alpha  occ. eigenvalues --   -0.17113  -0.16703  -0.16307  -0.13073  -0.11960
 Alpha  occ. eigenvalues --    0.04359
 Alpha virt. eigenvalues --    0.05809   0.06194   0.07550   0.07568   0.08080
 Alpha virt. eigenvalues --    0.08578   0.09040   0.09582   0.10023   0.10079
 Alpha virt. eigenvalues --    0.10245   0.10682   0.11253   0.11716   0.12122

  Beta  occ. eigenvalues --  -88.76236 -14.19591 -14.18917 -10.11421 -10.09843
  Beta  occ. eigenvalues --  -10.09399 -10.09168 -10.08543 -10.08402 -10.08033
  Beta  occ. eigenvalues --  -10.07905 -10.07290 -10.07284 -10.06694 -10.06649
  Beta  occ. eigenvalues --  -10.06612  -7.84902  -5.81175  -5.80838  -5.80480
  Beta  occ. eigenvalues --   -0.84729  -0.80650  -0.71521  -0.69986  -0.68829
  Beta  occ. eigenvalues --   -0.66557  -0.63834  -0.62527  -0.59061  -0.57148
  Beta  occ. eigenvalues --   -0.53469  -0.51753  -0.47415  -0.45897  -0.45295
  Beta  occ. eigenvalues --   -0.42998  -0.39724  -0.37951  -0.37425  -0.36501
  Beta  occ. eigenvalues --   -0.35345  -0.34927  -0.33302  -0.33011  -0.32403
  Beta  occ. eigenvalues --   -0.31926  -0.30842  -0.30333  -0.29926  -0.29461
  Beta  occ. eigenvalues --   -0.27576  -0.27023  -0.26741  -0.26230  -0.25778
  Beta  occ. eigenvalues --   -0.24726  -0.24336  -0.23941  -0.22444  -0.22296
  Beta  occ. eigenvalues --   -0.16937  -0.16530  -0.16237  -0.12571  -0.11821
  Beta virt. eigenvalues --    0.06171   0.06691   0.07204   0.07680   0.08247
  Beta virt. eigenvalues --    0.08387   0.08915   0.09124   0.09932   0.10254
  Beta virt. eigenvalues --    0.10313   0.10507   0.10779   0.11448   0.11948

 Mulliken charges and spin densities:
               1          2
     1  C    0.464429  -1.164478
     2  C   -0.354484   0.538463
     3  C   -0.757083  -0.157192
     4  C    0.196806  -0.365272
     5  C   -0.266067  -0.295468
     6  C   -0.046099   0.316999
     7  C   -0.442555  -0.235017
     8  N    0.219105   0.023689
     9  C   -0.187428  -0.143755
    10  C    0.246444  -0.312422
    11  C   -0.096531  -0.023663
    12  N    0.054857   0.019615
    13  C   -0.166758  -0.377008
    14  C   -1.241967   1.428474
    15  S   -0.060669   0.048357
    16  C    1.810436  -2.192789
    17  H    0.001814   0.135004
    18  H   -0.177146   0.316321
    19  H   -0.178113   0.314690
    20  H    0.098570   0.047615
    21  H    0.002977   0.163298
    22  H    0.049587   0.136659
    23  H    0.308168  -0.168090
    24  H    0.009439   0.171177
    25  H    0.154723   0.016243
    26  H    0.033654   0.086645
    27  H    0.135854   0.037196
    28  H    0.113837   0.000734
    29  H    0.065320   0.078606
    30  H    0.231388   0.002167
    31  H    0.016240   0.155712
    32  H   -0.298768   0.448123
    33  H   -0.421649   0.628711
    34  H    0.112092   0.062965
    35  H   -0.080281   0.235307
    36  H    0.059660   0.093508
    37  H   -0.355970   0.520414
    38  H   -0.253832   0.408457
 Sum of Mulliken charges =  -1.00000   1.00000

 Dipole moment (field-independent basis, Debye):
    X=              1.6712    Y=              3.4739    Z=             -0.9922  Tot=              3.9807
 Quadrupole moment (field-independent basis, Debye-Ang):
   XX=           -203.7681   YY=           -152.6564   ZZ=           -135.5341
   XY=              5.6071   XZ=             -0.1560   YZ=             -0.3151

 Summary of Natural Population Analysis:

                                       Natural Population
                Natural  -----------------------------------------------
    Atom  No    Charge         Core      Valence    Rydberg      Total
 -----------------------------------------------------------------------
      C    1   -0.28927      0.99966     2.28471    0.00490     3.28927
      C    2   -0.19198      0.99961     2.18218    0.01018     3.19198
      C    3   -0.01045      0.99958     1.99748    0.01339     3.01045
      C    4   -0.19972      0.99959     2.19199    0.00814     3.19972
      C    5   -0.21024      0.99961     2.20115    0.00948     3.21024
      C    6   -0.09924      0.99957     2.09025    0.00943     3.09924
      C    7   -0.18435      0.99955     2.17757    0.00723     3.18435
      N    8   -0.35351      0.99973     2.84179    0.01198     3.85351
      C    9   -0.07998      0.99962     2.06769    0.01267     3.07998
      C   10   -0.22721      0.99956     2.21755    0.01010     3.22721
      C   11    0.07076      0.99960     1.91109    0.01856     2.92924
      N   12   -0.24776      0.99964     2.73725    0.01087     3.74776
      C   13   -0.03095      0.99943     2.01612    0.01539     3.03095
      C   14   -0.09057      0.99951     2.07938    0.01168     3.09057
      S   15    0.17415      4.99938     2.80893    0.01754     7.82585
      C   16   -0.29843      0.99961     2.29178    0.00704     3.29843
      H   17    0.09474      0.00000     0.40422    0.00104     0.40526
      H   18    0.09837      0.00000     0.40084    0.00080     0.40163
      H   19    0.09725      0.00000     0.40167    0.00108     0.40275
      H   20    0.09206      0.00000     0.40661    0.00133     0.40794
      H   21    0.10065      0.00000     0.39800    0.00135     0.39935
      H   22    0.09161      0.00000     0.40648    0.00191     0.40839
      H   23    0.11361      0.00000     0.38424    0.00215     0.38639
      H   24    0.09760      0.00000     0.40141    0.00098     0.40240
      H   25    0.10058      0.00000     0.39837    0.00104     0.39942
      H   26    0.09895      0.00000     0.39993    0.00112     0.40105
      H   27    0.09323      0.00000     0.40555    0.00123     0.40677
      H   28    0.09308      0.00000     0.40589    0.00103     0.40692
      H   29    0.09335      0.00000     0.40543    0.00122     0.40665
      H   30    0.18369      0.00000     0.31318    0.00313     0.31631
      H   31    0.09326      0.00000     0.40574    0.00100     0.40674
      H   32    0.09427      0.00000     0.40437    0.00135     0.40573
      H   33    0.11084      0.00000     0.38676    0.00240     0.38916
      H   34    0.10883      0.00000     0.38951    0.00167     0.39117
      H   35    0.09562      0.00000     0.40322    0.00116     0.40438
      H   36    0.10130      0.00000     0.39768    0.00102     0.39870
      H   37    0.10902      0.00000     0.38850    0.00248     0.39098
      H   38    0.10685      0.00000     0.39183    0.00133     0.39315
 =======================================================================
   * Total *   -0.00000     19.99326    44.79631    0.21043    65.00000

 Normal termination of Gaussian 16 at Fri Dec 11 01:03:17 2020.
