 Gaussian 16, Revision A.03,

 -----------------------------------------------------------
 # opt freq B3LYP/6-31G(d) empiricaldispersion=gd3bj scf=xqc
 -----------------------------------------------------------

 ------------------------------
 CID_64353117_JID_7044_neutraal
 ------------------------------
 Symbolic Z-matrix:
 Charge =  0 Multiplicity = 1

 SCF Done:  E(RB3LYP) =  -695.632565580     A.U. after   14 cycles
 SCF Done:  E(RB3LYP) =  -695.638061692     A.U. after   12 cycles
 SCF Done:  E(RB3LYP) =  -695.638486992     A.U. after   11 cycles
 SCF Done:  E(RB3LYP) =  -695.638615510     A.U. after   11 cycles
 SCF Done:  E(RB3LYP) =  -695.638663511     A.U. after   10 cycles
 SCF Done:  E(RB3LYP) =  -695.638710445     A.U. after   11 cycles
 SCF Done:  E(RB3LYP) =  -695.638748993     A.U. after   11 cycles
 SCF Done:  E(RB3LYP) =  -695.638757534     A.U. after    9 cycles
 SCF Done:  E(RB3LYP) =  -695.638762713     A.U. after    9 cycles
 SCF Done:  E(RB3LYP) =  -695.638763726     A.U. after    8 cycles
 SCF Done:  E(RB3LYP) =  -695.638763828     A.U. after    7 cycles
 SCF Done:  E(RB3LYP) =  -695.638763875     A.U. after    6 cycles
 Optimization completed.
    -- Stationary point found.
 Normal termination of Gaussian 16 at Fri Dec 11 11:48:37 2020.

 --------------------------------------------------------------------
 #N Geom=AllCheck Guess=TCheck SCRF=Check GenChk RB3LYP/6-31G(d) Freq
 --------------------------------------------------------------------

 Structure from the checkpoint file:  "JID_7044.chk"
 ------------------------------
 CID_64353117_JID_7044_neutraal
 ------------------------------
 Charge =  0 Multiplicity = 1

 SCF Done:  E(RB3LYP) =  -695.638763875     A.U. after    1 cycles

  Exact polarizability: 240.060  -2.228 169.790  18.096  -1.920 114.504
 Approx polarizability: 300.349  -8.368 272.863  35.941  -2.824 176.722

                      1                      2                      3
                      A                      A                      A
 Frequencies --     27.6389                50.1540                75.1291
 Red. masses --      3.9728                 3.3711                 3.4179
 Frc consts  --      0.0018                 0.0050                 0.0114
 IR Inten    --      0.1929                 0.7857                 0.5320

                      4                      5                      6
                      A                      A                      A
 Frequencies --     91.8150               114.3387               171.3206
 Red. masses --      2.7779                 2.9467                 3.0455
 Frc consts  --      0.0138                 0.0227                 0.0527
 IR Inten    --      1.3677                 0.2776                 1.8114

                      7                      8                      9
                      A                      A                      A
 Frequencies --    180.0243               183.8993               205.8176
 Red. masses --      2.0976                 1.2137                 1.6449
 Frc consts  --      0.0401                 0.0242                 0.0411
 IR Inten    --      3.1509                 0.5006                 0.2570

                     10                     11                     12
                      A                      A                      A
 Frequencies --    227.9947               241.7359               244.9836
 Red. masses --      2.3748                 2.3392                 2.4004
 Frc consts  --      0.0727                 0.0805                 0.0849
 IR Inten    --      0.6852                 1.7312                 1.5301

                     13                     14                     15
                      A                      A                      A
 Frequencies --    276.1960               298.2567               314.9019
 Red. masses --      1.9462                 2.1751                 2.3267
 Frc consts  --      0.0875                 0.1140                 0.1359
 IR Inten    --      7.2571                 5.1704                 4.1335

                     16                     17                     18
                      A                      A                      A
 Frequencies --    326.3945               344.2680               365.2981
 Red. masses --      3.2875                 1.7398                 1.9251
 Frc consts  --      0.2063                 0.1215                 0.1514
 IR Inten    --      0.4715                18.3803                 0.0602

                     19                     20                     21
                      A                      A                      A
 Frequencies --    383.1068               422.8535               445.8096
 Red. masses --      2.7522                 3.6498                 2.7323
 Frc consts  --      0.2380                 0.3845                 0.3199
 IR Inten    --      1.4648                 1.5037                 3.0370

                     22                     23                     24
                      A                      A                      A
 Frequencies --    464.5069               500.6960               525.0186
 Red. masses --      2.9431                 1.8609                 2.7095
 Frc consts  --      0.3741                 0.2749                 0.4400
 IR Inten    --      5.0182                 1.2149                 1.7621

                     25                     26                     27
                      A                      A                      A
 Frequencies --    558.0753               570.9130               613.1712
 Red. masses --      2.9702                 3.4573                 3.3023
 Frc consts  --      0.5450                 0.6639                 0.7315
 IR Inten    --     13.1745                 6.0962                 0.6334

                     28                     29                     30
                      A                      A                      A
 Frequencies --    621.8842               682.3264               693.2498
 Red. masses --      2.1038                 2.1699                 2.9150
 Frc consts  --      0.4794                 0.5952                 0.8254
 IR Inten    --     98.8498               162.1006                32.3665

                     31                     32                     33
                      A                      A                      A
 Frequencies --    723.1849               775.2045               785.1421
 Red. masses --      2.4902                 3.6316                 1.5486
 Frc consts  --      0.7673                 1.2858                 0.5624
 IR Inten    --     35.6849                 1.0008                12.2047

                     34                     35                     36
                      A                      A                      A
 Frequencies --    792.3531               816.3971               823.1493
 Red. masses --      1.2189                 1.9636                 1.8418
 Frc consts  --      0.4509                 0.7711                 0.7353
 IR Inten    --      1.1791                 4.0351                39.7153

                     37                     38                     39
                      A                      A                      A
 Frequencies --    831.8406               874.4987               898.5349
 Red. masses --      1.8917                 2.0645                 2.4354
 Frc consts  --      0.7712                 0.9302                 1.1585
 IR Inten    --     18.0034                 0.5800                 5.1869

                     40                     41                     42
                      A                      A                      A
 Frequencies --    904.0689               924.9782               930.3524
 Red. masses --      2.5262                 1.3297                 1.7351
 Frc consts  --      1.2165                 0.6703                 0.8848
 IR Inten    --      3.9391                 2.7250                 4.3667

                     43                     44                     45
                      A                      A                      A
 Frequencies --    960.2837               993.6223              1023.1315
 Red. masses --      2.1983                 2.0908                 1.6331
 Frc consts  --      1.1944                 1.2162                 1.0072
 IR Inten    --      2.8662                 0.2312                 2.2427

                     46                     47                     48
                      A                      A                      A
 Frequencies --   1028.1432              1041.4030              1055.5593
 Red. masses --      1.8439                 1.4988                 1.4660
 Frc consts  --      1.1484                 0.9577                 0.9624
 IR Inten    --     32.3585                 3.3333                 1.1944

                     49                     50                     51
                      A                      A                      A
 Frequencies --   1069.2183              1074.0619              1094.8977
 Red. masses --      2.1466                 1.4455                 1.9605
 Frc consts  --      1.4459                 0.9825                 1.3847
 IR Inten    --      2.1049                 1.4622                 1.7389

                     52                     53                     54
                      A                      A                      A
 Frequencies --   1100.3319              1134.3344              1148.3398
 Red. masses --      2.5206                 1.5861                 1.9166
 Frc consts  --      1.7981                 1.2025                 1.4891
 IR Inten    --      2.1257                18.9148                 5.1831

                     55                     56                     57
                      A                      A                      A
 Frequencies --   1171.3834              1189.4867              1210.9281
 Red. masses --      1.7523                 1.4318                 1.5089
 Frc consts  --      1.4166                 1.1935                 1.3036
 IR Inten    --      5.6474                50.4465                54.1659

                     58                     59                     60
                      A                      A                      A
 Frequencies --   1232.2682              1243.3125              1264.9189
 Red. masses --      2.1145                 2.2707                 1.3552
 Frc consts  --      1.8918                 2.0681                 1.2775
 IR Inten    --     34.5946                 1.4760                14.8027

                     61                     62                     63
                      A                      A                      A
 Frequencies --   1280.0764              1289.8523              1309.4541
 Red. masses --      1.3582                 1.6134                 1.5179
 Frc consts  --      1.3113                 1.5815                 1.5334
 IR Inten    --      5.8886                46.0570                17.6372

                     64                     65                     66
                      A                      A                      A
 Frequencies --   1316.9982              1329.9387              1341.7595
 Red. masses --      1.2113                 1.6008                 1.3555
 Frc consts  --      1.2379                 1.6682                 1.4378
 IR Inten    --      2.8324                23.1759                 7.5915

                     67                     68                     69
                      A                      A                      A
 Frequencies --   1352.6385              1364.2986              1375.3380
 Red. masses --      1.7410                 1.4186                 2.4732
 Frc consts  --      1.8767                 1.5557                 2.7563
 IR Inten    --     14.1507                 9.5854                30.8437

                     70                     71                     72
                      A                      A                      A
 Frequencies --   1391.4558              1401.4333              1407.8685
 Red. masses --      1.4117                 1.3590                 1.5501
 Frc consts  --      1.6104                 1.5726                 1.8102
 IR Inten    --     21.6818                 4.2599                37.7813

                     73                     74                     75
                      A                      A                      A
 Frequencies --   1416.1733              1425.7323              1433.7899
 Red. masses --      1.4941                 1.5920                 1.4547
 Frc consts  --      1.7654                 1.9066                 1.7620
 IR Inten    --      7.9491                 2.5526                 0.8799

                     76                     77                     78
                      A                      A                      A
 Frequencies --   1441.8953              1445.4124              1449.9668
 Red. masses --      1.2852                 1.3314                 1.5986
 Frc consts  --      1.5743                 1.6389                 1.9801
 IR Inten    --     26.0173                28.7526                63.4792

                     79                     80                     81
                      A                      A                      A
 Frequencies --   1494.8393              1509.5335              1514.0727
 Red. masses --      2.5676                 1.0932                 1.0456
 Frc consts  --      3.3804                 1.4677                 1.4122
 IR Inten    --      9.4936                 1.3054                 5.6477

                     82                     83                     84
                      A                      A                      A
 Frequencies --   1516.8893              1519.7507              1525.9950
 Red. masses --      1.0907                 1.0871                 1.1045
 Frc consts  --      1.4786                 1.4794                 1.5154
 IR Inten    --      1.8651                 3.0205                 5.1524

                     85                     86                     87
                      A                      A                      A
 Frequencies --   1533.7014              1535.1474              1539.4632
 Red. masses --      1.1458                 1.0491                 1.0688
 Frc consts  --      1.5880                 1.4567                 1.4923
 IR Inten    --      8.7794                 2.4695                 5.7019

                     88                     89                     90
                      A                      A                      A
 Frequencies --   1543.2885              1550.1446              1575.6191
 Red. masses --      1.0861                 1.1272                 2.7677
 Frc consts  --      1.5241                 1.5959                 4.0483
 IR Inten    --     38.5681                21.7798               179.8739

                     91                     92                     93
                      A                      A                      A
 Frequencies --   1624.2274              1680.1707              1698.1233
 Red. masses --      5.4974                 3.2144                 1.3754
 Frc consts  --      8.5448                 5.3463                 2.3368
 IR Inten    --     57.8134               164.3457               150.8105

                     94                     95                     96
                      A                      A                      A
 Frequencies --   2959.9295              3004.5689              3012.7923
 Red. masses --      1.0736                 1.0502                 1.0759
 Frc consts  --      5.5421                 5.5858                 5.7538
 IR Inten    --     85.0523                74.8964                 3.7958

                     97                     98                     99
                      A                      A                      A
 Frequencies --   3023.5072              3031.8594              3033.4971
 Red. masses --      1.0629                 1.0658                 1.0624
 Frc consts  --      5.7247                 5.7721                 5.7601
 IR Inten    --     29.5784                43.6201                44.0850

                    100                    101                    102
                      A                      A                      A
 Frequencies --   3037.2945              3044.7804              3052.2631
 Red. masses --      1.0672                 1.0655                 1.0394
 Frc consts  --      5.8005                 5.8201                 5.7052
 IR Inten    --     13.8962                44.5918                37.1686

                    103                    104                    105
                      A                      A                      A
 Frequencies --   3056.3621              3058.7575              3061.8914
 Red. masses --      1.1006                 1.0890                 1.0913
 Frc consts  --      6.0573                 6.0029                 6.0282
 IR Inten    --      1.6437                32.8016                 2.8138

                    106                    107                    108
                      A                      A                      A
 Frequencies --   3063.2526              3080.8472              3085.7740
 Red. masses --      1.1001                 1.1000                 1.0967
 Frc consts  --      6.0823                 6.1514                 6.1526
 IR Inten    --     55.0674                18.8857               120.5126

                    109                    110                    111
                      A                      A                      A
 Frequencies --   3101.7596              3114.9836              3120.7147
 Red. masses --      1.0974                 1.1018                 1.1020
 Frc consts  --      6.2204                 6.2991                 6.3233
 IR Inten    --     25.0150                48.6230                40.1434

                    112                    113                    114
                      A                      A                      A
 Frequencies --   3121.0003              3169.8984              3198.4076
 Red. masses --      1.0973                 1.0890                 1.0883
 Frc consts  --      6.2972                 6.4469                 6.5592
 IR Inten    --     18.5162                31.3949                16.1711

                    115                    116                    117
                      A                      A                      A
 Frequencies --   3231.1651              3541.9227              3639.5036
 Red. masses --      1.0906                 1.0479                 1.0973
 Frc consts  --      6.7086                 7.7453                 8.5635
 IR Inten    --     13.4741                 4.3566                 5.2079

 - Thermochemistry -
 -------------------
 Temperature   298.150 Kelvin.  Pressure   1.00000 Atm.
 Atom     1 has atomic number  6 and mass  12.00000

 Molecular mass:   232.19395 amu.
 Principal axes and moments of inertia in atomic units:
                           1         2         3
     Eigenvalues --  1564.997588617.052869381.70243
           X            1.00000  -0.00021   0.00200
           Y            0.00021   1.00000  -0.00074
           Z           -0.00200   0.00074   1.00000
 This molecule is an asymmetric top.
 Rotational symmetry number  1.
 Warning -- assumption of classical behavior for rotation
           may cause significant error
 Rotational temperatures (Kelvin)      0.05534     0.01005     0.00923
 Rotational constants (GHZ):           1.15319     0.20944     0.19237
 Zero-point vibrational energy     976863.9 (Joules/Mol)
                                  233.47607 (Kcal/Mol)
 Warning -- explicit consideration of  27 degrees of freedom as
           vibrations may cause significant error
 Vibrational temperatures:     39.77    72.16   108.09   132.10   164.51
          (Kelvin)            246.49   259.01   264.59   296.13   328.03
                              347.80   352.48   397.38   429.12   453.07
                              469.61   495.32   525.58   551.21   608.39
                              641.42   668.32   720.39   755.38   802.95
                              821.42   882.22   894.75   981.72   997.43
                             1040.50  1115.35  1129.64  1140.02  1174.61
                             1184.33  1196.83  1258.21  1292.79  1300.75
                             1330.84  1338.57  1381.63  1429.60  1472.06
                             1479.27  1498.35  1518.71  1538.37  1545.34
                             1575.31  1583.13  1632.05  1652.20  1685.36
                             1711.41  1742.26  1772.96  1788.85  1819.94
                             1841.74  1855.81  1884.01  1894.87  1913.49
                             1930.49  1946.15  1962.92  1978.80  2001.99
                             2016.35  2025.61  2037.56  2051.31  2062.90
                             2074.57  2079.63  2086.18  2150.74  2171.88
                             2178.41  2182.47  2186.58  2195.57  2206.65
                             2208.73  2214.94  2220.45  2230.31  2266.96
                             2336.90  2417.39  2443.22  4258.68  4322.90
                             4334.74  4350.15  4362.17  4364.53  4369.99
                             4380.76  4391.53  4397.42  4400.87  4405.38
                             4407.34  4432.65  4439.74  4462.74  4481.77
                             4490.01  4490.42  4560.78  4601.80  4648.93
                             5096.04  5236.43

 Zero-point correction=                           0.372068 (Hartree/Particle)
 Thermal correction to Energy=                    0.389037
 Thermal correction to Enthalpy=                  0.389981
 Thermal correction to Gibbs Free Energy=         0.327932
 Sum of electronic and zero-point Energies=           -695.266696
 Sum of electronic and thermal Energies=              -695.249727
 Sum of electronic and thermal Enthalpies=            -695.248783
 Sum of electronic and thermal Free Energies=         -695.310832

                     E (Thermal)             CV                S
                      KCal/Mol        Cal/Mol-Kelvin    Cal/Mol-Kelvin
 Total                  244.124             67.479            130.593
 Electronic               0.000              0.000              0.000
 Translational            0.889              2.981             42.229
 Rotational               0.889              2.981             33.203
 Vibrational            242.347             61.517             55.161
 Vibration     1          0.593              1.984              5.992
 Vibration     2          0.595              1.978              4.811
 Vibration     3          0.599              1.966              4.014
 Vibration     4          0.602              1.955              3.621
 Vibration     5          0.607              1.938              3.194
 Vibration     6          0.626              1.878              2.421
 Vibration     7          0.629              1.867              2.328
 Vibration     8          0.631              1.862              2.288
 Vibration     9          0.640              1.832              2.080
 Vibration    10          0.651              1.798              1.895
 Vibration    11          0.658              1.776              1.790
 Vibration    12          0.660              1.771              1.766
 Vibration    13          0.678              1.717              1.557
 Vibration    14          0.691              1.677              1.427
 Vibration    15          0.702              1.645              1.336
 Vibration    16          0.710              1.623              1.278
 Vibration    17          0.723              1.587              1.192
 Vibration    18          0.739              1.544              1.099
 Vibration    19          0.752              1.506              1.027
 Vibration    20          0.785              1.421              0.882
 Vibration    21          0.805              1.370              0.809
 Vibration    22          0.822              1.329              0.753
 Vibration    23          0.856              1.248              0.656
 Vibration    24          0.880              1.195              0.598
 Vibration    25          0.914              1.122              0.528
 Vibration    26          0.927              1.094              0.502
 Vibration    27          0.972              1.004              0.428

                           ! Non-Optimized Parameters !
 Normal termination of Gaussian 16 at Fri Dec 11 12:06:58 2020.

 ----------------------------------------------------------------------
 # B3LYP/6-311++G(d,p) empiricaldispersion=gd3bj scf=xqc pop=npa geom=c
 heck
 ----------------------------------------------------------------------

 --------------------------------------
 CID_64353117_JID_7044_Energie_neutraal
 --------------------------------------
 Structure from the checkpoint file:  "JID_7044.chk"
 Charge =  0 Multiplicity = 1

 SCF Done:  E(RB3LYP) =  -695.828781983     A.U. after   14 cycles
 Normal termination of Gaussian 16 at Fri Dec 11 12:15:28 2020.

 ----------------------------------------------------------------------
 # B3LYP/6-311++G(d,p) empiricaldispersion=gd3bj scf=xqc pop=npa geom=c
 heck
 ----------------------------------------------------------------------

 ------------------------------------
 CID_64353117_JID_7044_Energie_kation
 ------------------------------------
 Structure from the checkpoint file:  "JID_7044.chk"
 Charge =  1 Multiplicity = 2

 SCF Done:  E(UB3LYP) =  -695.589873029     A.U. after   21 cycles
 Normal termination of Gaussian 16 at Fri Dec 11 12:30:55 2020.
 Gaussian 16:  ES64L-G16RevA.03 25-Dec-2016

 ----------------------------------------------------------------------
 # B3LYP/6-311++G(d,p) empiricaldispersion=gd3bj scf=xqc pop=npa geom=c
 heck
 ----------------------------------------------------------------------

 -----------------------------------
 CID_64353117_JID_7044_Energie_anion
 -----------------------------------
 Structure from the checkpoint file:  "JID_7044.chk"
 Charge = -1 Multiplicity = 2

                         Standard orientation:
 ---------------------------------------------------------------------
 Center     Atomic      Atomic             Coordinates (Angstroms)
 Number     Number       Type             X           Y           Z
 ---------------------------------------------------------------------
      1          6           0        5.488474   -0.317222   -0.452989
      2          6           0        4.242309   -0.418201   -1.339861
      3          6           0        2.908521   -0.087511   -0.638615
      4          6           0        2.876738    1.378547   -0.164632
      5          6           0        1.503037    1.899881    0.274375
      6          6           0        0.806042    1.017978    1.322690
      7          7           0        0.278042   -0.219900    0.772420
      8          6           0        1.134860   -1.393222    0.719607
      9          6           0        2.620169   -1.071675    0.517173
     10          6           0       -1.064888   -0.324033    0.422057
     11          6           0       -1.843955    0.824658    0.178122
     12          6           0       -3.194498    0.734881   -0.170991
     13          6           0       -3.818731   -0.523103   -0.307761
     14          6           0       -3.034524   -1.651278   -0.076356
     15          6           0       -1.691727   -1.579674    0.285221
     16          6           0       -5.275860   -0.624679   -0.675265
     17          7           0       -3.948568    1.905981   -0.343351
     18          1           0        5.640117    0.701740   -0.081072
     19          1           0        6.386474   -0.599757   -1.013332
     20          1           0        5.419801   -0.981591    0.415955
     21          1           0        4.361313    0.250013   -2.203610
     22          1           0        4.175452   -1.436306   -1.747315
     23          1           0        2.115113   -0.214142   -1.390009
     24          1           0        3.255456    2.022522   -0.969890
     25          1           0        3.579004    1.492379    0.673067
     26          1           0        1.622384    2.914507    0.679424
     27          1           0        0.840409    1.979700   -0.596504
     28          1           0        1.505281    0.781061    2.135176
     29          1           0       -0.018309    1.564798    1.789173
     30          1           0        0.806204   -1.999214   -0.132054
     31          1           0        1.021948   -2.024831    1.618701
     32          1           0        3.116632   -2.031422    0.322542
     33          1           0        3.064481   -0.694652    1.446211
     34          1           0       -1.395381    1.811059    0.230969
     35          1           0       -3.497831   -2.631830   -0.165620
     36          1           0       -1.153503   -2.494317    0.498971
     37          1           0       -5.911711   -0.066549    0.025109
     38          1           0       -5.485369   -0.227833   -1.681186
     39          1           0       -5.606705   -1.667678   -0.669838
     40          1           0       -3.388799    2.731418   -0.521304
     41          1           0       -4.694586    1.826275   -1.023693
 ---------------------------------------------------------------------

 SCF Done:  E(UB3LYP) =  -695.816326308     A.U. after   33 cycles
 SCF Done:  E(UB3LYP) =  -695.816326308     a.u. after    1 cycles

 The electronic state is 2-A.
 Alpha  occ. eigenvalues --  -14.22879 -14.21746 -10.11448 -10.11136 -10.11114
 Alpha  occ. eigenvalues --  -10.10809 -10.08267 -10.07979 -10.07638 -10.07514
 Alpha  occ. eigenvalues --  -10.07331 -10.07318 -10.07288 -10.06913 -10.06839
 Alpha  occ. eigenvalues --  -10.06094 -10.06069  -0.85499  -0.82018  -0.74179
 Alpha  occ. eigenvalues --   -0.72647  -0.68981  -0.67637  -0.65268  -0.63092
 Alpha  occ. eigenvalues --   -0.60911  -0.58085  -0.57075  -0.52758  -0.51094
 Alpha  occ. eigenvalues --   -0.50396  -0.47030  -0.45736  -0.43487  -0.42081
 Alpha  occ. eigenvalues --   -0.39030  -0.37782  -0.37204  -0.37169  -0.35959
 Alpha  occ. eigenvalues --   -0.35132  -0.34382  -0.34004  -0.33040  -0.32757
 Alpha  occ. eigenvalues --   -0.31657  -0.31331  -0.29897  -0.29519  -0.28763
 Alpha  occ. eigenvalues --   -0.27594  -0.27283  -0.27166  -0.26386  -0.25212
 Alpha  occ. eigenvalues --   -0.25066  -0.23853  -0.23032  -0.22516  -0.22065
 Alpha  occ. eigenvalues --   -0.21707  -0.17546  -0.11727  -0.09207   0.03929
 Alpha virt. eigenvalues --    0.05221   0.06404   0.06769   0.07205   0.07480
 Alpha virt. eigenvalues --    0.08584   0.08669   0.09132   0.09254   0.09748
 Alpha virt. eigenvalues --    0.10018   0.10418   0.10896   0.11309   0.11591

  Beta  occ. eigenvalues --  -14.22879 -14.21698 -10.11445 -10.11135 -10.11108
  Beta  occ. eigenvalues --  -10.10800 -10.08266 -10.07964 -10.07624 -10.07489
  Beta  occ. eigenvalues --  -10.07315 -10.07315 -10.07273 -10.06909 -10.06810
  Beta  occ. eigenvalues --  -10.06080 -10.06068  -0.85491  -0.81960  -0.74156
  Beta  occ. eigenvalues --   -0.72624  -0.68958  -0.67615  -0.65238  -0.63059
  Beta  occ. eigenvalues --   -0.60881  -0.58052  -0.57039  -0.52712  -0.51060
  Beta  occ. eigenvalues --   -0.50361  -0.46992  -0.45696  -0.43462  -0.42051
  Beta  occ. eigenvalues --   -0.39004  -0.37740  -0.37182  -0.37139  -0.35936
  Beta  occ. eigenvalues --   -0.35100  -0.34351  -0.33978  -0.33020  -0.32730
  Beta  occ. eigenvalues --   -0.31635  -0.31304  -0.29868  -0.29494  -0.28734
  Beta  occ. eigenvalues --   -0.27563  -0.27260  -0.27140  -0.26362  -0.25190
  Beta  occ. eigenvalues --   -0.25042  -0.23833  -0.23005  -0.22495  -0.22037
  Beta  occ. eigenvalues --   -0.21677  -0.17526  -0.11691  -0.09194
  Beta virt. eigenvalues --    0.05818   0.06251   0.06863   0.07148   0.07517
  Beta virt. eigenvalues --    0.07952   0.08657   0.08995   0.09383   0.09518
  Beta virt. eigenvalues --    0.09999   0.10305   0.10654   0.11004   0.11448

 Mulliken charges and spin densities:
               1          2
     1  C    0.581115  -1.098753
     2  C   -0.195328  -0.242920
     3  C   -0.390301   1.035909
     4  C   -0.211997  -0.402667
     5  C    0.749164  -0.964421
     6  C   -0.347544   0.034393
     7  N    0.350115  -0.013558
     8  C    0.052808  -0.611657
     9  C   -0.302763  -0.127076
    10  C   -0.336430   0.053002
    11  C   -1.284110   0.575831
    12  C   -0.208848  -0.046231
    13  C    0.925215   0.096139
    14  C   -0.339269  -0.126282
    15  C   -0.107336  -0.189424
    16  C    1.545667  -2.013557
    17  N   -0.233753  -0.057463
    18  H   -0.214096   0.358813
    19  H   -0.353703   0.503328
    20  H   -0.217890   0.361886
    21  H   -0.022738   0.154474
    22  H   -0.084549   0.220399
    23  H    0.073693   0.127837
    24  H   -0.122522   0.296058
    25  H    0.167178  -0.032842
    26  H   -0.382595   0.543397
    27  H    0.047625   0.094545
    28  H   -0.091703   0.247167
    29  H    0.053330   0.143495
    30  H    0.165760  -0.025339
    31  H   -0.048396   0.202178
    32  H    0.000365   0.168059
    33  H    0.157571   0.023590
    34  H    0.134749  -0.004574
    35  H   -0.010762   0.123980
    36  H    0.088759   0.052671
    37  H   -0.014982   0.177100
    38  H   -0.208654   0.364364
    39  H    0.064203   0.073915
    40  H   -0.339076   0.583432
    41  H   -0.087973   0.340803
 Sum of Mulliken charges =  -1.00000   1.00000

 Dipole moment (field-independent basis, Debye):
    X=             -0.2870    Y=             -3.8629    Z=              1.6628  Tot=              4.2154
 Quadrupole moment (field-independent basis, Debye-Ang):
   XX=           -231.2789   YY=           -151.8097   ZZ=           -139.9480
   XY=             12.8592   XZ=             -2.5446   YZ=              2.3067

 Summary of Natural Population Analysis:

                                       Natural Population
                Natural  -----------------------------------------------
    Atom  No    Charge         Core      Valence    Rydberg      Total
 -----------------------------------------------------------------------
      C    1   -0.28944      0.99967     2.28486    0.00492     3.28944
      C    2   -0.18307      0.99963     2.17393    0.00951     3.18307
      C    3   -0.11453      0.99959     2.10434    0.01060     3.11453
      C    4   -0.18690      0.99961     2.17842    0.00887     3.18690
      C    5   -0.19327      0.99962     2.18520    0.00845     3.19327
      C    6   -0.08505      0.99961     2.07463    0.01082     3.08505
      N    7   -0.26053      0.99964     2.74996    0.01092     3.76053
      C    8   -0.06405      0.99961     2.05713    0.00731     3.06405
      C    9   -0.20010      0.99962     2.18990    0.01058     3.20010
      C   10    0.10581      0.99950     1.88370    0.01100     2.89419
      C   11   -0.15104      0.99949     2.14267    0.00888     3.15104
      C   12    0.09623      0.99945     1.89259    0.01172     2.90377
      C   13   -0.06214      0.99947     2.05245    0.01022     3.06214
      C   14   -0.08368      0.99953     2.07569    0.00846     3.08368
      C   15   -0.15087      0.99954     2.14325    0.00808     3.15087
      C   16   -0.29459      0.99964     2.28896    0.00598     3.29459
      N   17   -0.39732      0.99972     2.88706    0.01054     3.89732
      H   18    0.09763      0.00000     0.40129    0.00108     0.40237
      H   19    0.09971      0.00000     0.39926    0.00104     0.40029
      H   20    0.09646      0.00000     0.40240    0.00114     0.40354
      H   21    0.09521      0.00000     0.40377    0.00103     0.40479
      H   22    0.09367      0.00000     0.40528    0.00105     0.40633
      H   23    0.09733      0.00000     0.40079    0.00188     0.40267
      H   24    0.09973      0.00000     0.39915    0.00112     0.40027
      H   25    0.09306      0.00000     0.40542    0.00152     0.40694
      H   26    0.09739      0.00000     0.40136    0.00124     0.40261
      H   27    0.09851      0.00000     0.39984    0.00165     0.40149
      H   28    0.09317      0.00000     0.40568    0.00115     0.40683
      H   29    0.10281      0.00000     0.39584    0.00134     0.39719
      H   30    0.09475      0.00000     0.40337    0.00188     0.40525
      H   31    0.08489      0.00000     0.41366    0.00145     0.41511
      H   32    0.10295      0.00000     0.39604    0.00101     0.39705
      H   33    0.09610      0.00000     0.40221    0.00169     0.40390
      H   34    0.10030      0.00000     0.39797    0.00173     0.39970
      H   35    0.09441      0.00000     0.40472    0.00087     0.40559
      H   36    0.10018      0.00000     0.39851    0.00131     0.39982
      H   37    0.10283      0.00000     0.39607    0.00110     0.39717
      H   38    0.09963      0.00000     0.39896    0.00141     0.40037
      H   39    0.10071      0.00000     0.39847    0.00082     0.39929
      H   40    0.18613      0.00000     0.31083    0.00303     0.31387
      H   41    0.18700      0.00000     0.31007    0.00292     0.31300
 =======================================================================
   * Total *    0.00003     16.99293    46.81569    0.19136    63.99997

 Normal termination of Gaussian 16 at Fri Dec 11 12:58:54 2020.
