 Gaussian 16, Revision A.03,

 -----------------------------------------------------------
 # opt freq B3LYP/6-31G(d) empiricaldispersion=gd3bj scf=xqc
 -----------------------------------------------------------

 ------------------------------
 CID_82829878_JID_8107_neutraal
 ------------------------------
 Symbolic Z-matrix:
 Charge =  0 Multiplicity = 1

 SCF Done:  E(RB3LYP) =  -825.414207515     A.U. after   15 cycles
 SCF Done:  E(RB3LYP) =  -825.419786588     A.U. after   12 cycles
 SCF Done:  E(RB3LYP) =  -825.420202472     A.U. after   11 cycles
 SCF Done:  E(RB3LYP) =  -825.420268658     A.U. after   12 cycles
 SCF Done:  E(RB3LYP) =  -825.420393073     A.U. after   11 cycles
 SCF Done:  E(RB3LYP) =  -825.420454580     A.U. after   11 cycles
 SCF Done:  E(RB3LYP) =  -825.420491092     A.U. after   11 cycles
 SCF Done:  E(RB3LYP) =  -825.420531486     A.U. after   11 cycles
 SCF Done:  E(RB3LYP) =  -825.420577308     A.U. after   12 cycles
 SCF Done:  E(RB3LYP) =  -825.420597952     A.U. after   11 cycles
 SCF Done:  E(RB3LYP) =  -825.420636884     A.U. after   11 cycles
 SCF Done:  E(RB3LYP) =  -825.420639554     A.U. after    9 cycles
 SCF Done:  E(RB3LYP) =  -825.420639568     A.U. after    8 cycles
 SCF Done:  E(RB3LYP) =  -825.420640417     A.U. after   10 cycles
 SCF Done:  E(RB3LYP) =  -825.420640544     A.U. after    8 cycles
 Optimization completed.
    -- Stationary point found.
 Normal termination of Gaussian 16 at Fri Dec 11 18:51:03 2020.

 --------------------------------------------------------------------
 #N Geom=AllCheck Guess=TCheck SCRF=Check GenChk RB3LYP/6-31G(d) Freq
 --------------------------------------------------------------------

 Structure from the checkpoint file:  "JID_8107.chk"
 ------------------------------
 CID_82829878_JID_8107_neutraal
 ------------------------------
 Charge =  0 Multiplicity = 1

 SCF Done:  E(RB3LYP) =  -825.420640544     A.U. after    1 cycles

  Exact polarizability: 205.323   4.422 157.063   8.925  -4.153 111.411
 Approx polarizability: 264.523   2.430 251.855  22.883 -12.640 183.982

                      1                      2                      3
                      A                      A                      A
 Frequencies --     26.4419                33.8527                45.5116
 Red. masses --      4.2118                 4.0542                 2.7997
 Frc consts  --      0.0017                 0.0027                 0.0034
 IR Inten    --      0.8780                 0.4386                 0.1883

                      4                      5                      6
                      A                      A                      A
 Frequencies --     53.8653                64.7228               100.4284
 Red. masses --      5.5310                 4.3483                 4.0718
 Frc consts  --      0.0095                 0.0107                 0.0242
 IR Inten    --      2.0118                 1.7441                 1.8474

                      7                      8                      9
                      A                      A                      A
 Frequencies --    121.5743               135.1800               152.3760
 Red. masses --      1.8143                 2.4122                 1.2951
 Frc consts  --      0.0158                 0.0260                 0.0177
 IR Inten    --      0.2767                 1.4770                 3.0108

                     10                     11                     12
                      A                      A                      A
 Frequencies --    173.6506               188.7088               204.5965
 Red. masses --      2.3310                 2.0923                 2.0120
 Frc consts  --      0.0414                 0.0439                 0.0496
 IR Inten    --      0.6607                 0.9143                 0.3647

                     13                     14                     15
                      A                      A                      A
 Frequencies --    245.4198               256.2677               280.1061
 Red. masses --      4.3792                 3.9075                 4.4188
 Frc consts  --      0.1554                 0.1512                 0.2043
 IR Inten    --      4.8165                 7.3057                 2.9723

                     16                     17                     18
                      A                      A                      A
 Frequencies --    301.3411               320.1262               342.8817
 Red. masses --      1.8094                 1.9192                 2.4863
 Frc consts  --      0.0968                 0.1159                 0.1722
 IR Inten    --     43.7120                35.6843                12.7642

                     19                     20                     21
                      A                      A                      A
 Frequencies --    377.3470               388.0828               451.8483
 Red. masses --      4.9676                 3.3011                 2.2925
 Frc consts  --      0.4168                 0.2929                 0.2758
 IR Inten    --      7.9460                15.9625                12.4897

                     22                     23                     24
                      A                      A                      A
 Frequencies --    465.0264               481.8774               528.6286
 Red. masses --      3.3556                 3.6854                 3.6529
 Frc consts  --      0.4275                 0.5042                 0.6014
 IR Inten    --      0.8291                 7.0810                 1.9827

                     25                     26                     27
                      A                      A                      A
 Frequencies --    541.1720               598.1362               613.9445
 Red. masses --      4.8738                 2.2332                 5.8359
 Frc consts  --      0.8410                 0.4707                 1.2960
 IR Inten    --      0.5548                 1.8223                 5.5485

                     28                     29                     30
                      A                      A                      A
 Frequencies --    646.6262               674.7389               683.9342
 Red. masses --      4.6013                 3.9529                 5.4736
 Frc consts  --      1.1336                 1.0603                 1.5085
 IR Inten    --      2.5784                 4.9760                16.6879

                     31                     32                     33
                      A                      A                      A
 Frequencies --    723.6695               760.5271               807.8006
 Red. masses --      3.3101                 3.1630                 2.0522
 Frc consts  --      1.0213                 1.0779                 0.7890
 IR Inten    --      3.0942                27.9210                24.3585

                     34                     35                     36
                      A                      A                      A
 Frequencies --    820.8704               838.0600               873.9436
 Red. masses --      4.4600                 2.3630                 2.1827
 Frc consts  --      1.7706                 0.9778                 0.9822
 IR Inten    --      2.8902                 0.8282                 9.6843

                     37                     38                     39
                      A                      A                      A
 Frequencies --    887.6370               897.7344               901.4132
 Red. masses --      2.0685                 1.4805                 2.2094
 Frc consts  --      0.9602                 0.7030                 1.0577
 IR Inten    --      3.1116                 0.9683                10.5967

                     40                     41                     42
                      A                      A                      A
 Frequencies --    931.9753               952.1470               966.3229
 Red. masses --      2.2120                 2.4285                 1.2548
 Frc consts  --      1.1320                 1.2972                 0.6903
 IR Inten    --     12.8701                 4.7262                 0.1461

                     43                     44                     45
                      A                      A                      A
 Frequencies --    978.5879               994.1068              1032.2733
 Red. masses --      2.0138                 1.7816                 2.2053
 Frc consts  --      1.1362                 1.0374                 1.3846
 IR Inten    --     14.8447                 4.3489                 7.6043

                     46                     47                     48
                      A                      A                      A
 Frequencies --   1064.9750              1067.9401              1097.6769
 Red. masses --      1.7891                 1.4866                 2.1709
 Frc consts  --      1.1955                 0.9989                 1.5411
 IR Inten    --     84.4274                14.7819                31.6824

                     49                     50                     51
                      A                      A                      A
 Frequencies --   1106.1406              1125.4891              1141.2973
 Red. masses --      2.7030                 2.7079                 2.0944
 Frc consts  --      1.9486                 2.0210                 1.6074
 IR Inten    --    145.4110                37.7940                17.5754

                     52                     53                     54
                      A                      A                      A
 Frequencies --   1151.6671              1166.9156              1191.7037
 Red. masses --      1.8175                 1.3421                 1.3866
 Frc consts  --      1.4203                 1.0768                 1.1602
 IR Inten    --     46.6214                 3.3707                41.9674

                     55                     56                     57
                      A                      A                      A
 Frequencies --   1200.8631              1207.5360              1215.7150
 Red. masses --      1.4170                 1.5268                 1.5868
 Frc consts  --      1.2040                 1.3117                 1.3818
 IR Inten    --     15.2689                 9.6654                23.1666

                     58                     59                     60
                      A                      A                      A
 Frequencies --   1243.1878              1246.7083              1273.6738
 Red. masses --      1.9376                 2.0322                 1.3282
 Frc consts  --      1.7644                 1.8610                 1.2695
 IR Inten    --     20.5866                55.1209                 8.1615

                     61                     62                     63
                      A                      A                      A
 Frequencies --   1285.5773              1322.7577              1333.1820
 Red. masses --      2.6018                 1.5881                 1.8775
 Frc consts  --      2.5335                 1.6372                 1.9661
 IR Inten    --     57.5075                32.2563                43.2638

                     64                     65                     66
                      A                      A                      A
 Frequencies --   1339.2252              1359.0215              1360.7051
 Red. masses --      2.6396                 1.1684                 1.3017
 Frc consts  --      2.7893                 1.2714                 1.4200
 IR Inten    --     97.5639                 3.1220                 8.1721

                     67                     68                     69
                      A                      A                      A
 Frequencies --   1381.0874              1395.6582              1420.8986
 Red. masses --      3.0466                 1.3257                 1.3702
 Frc consts  --      3.4238                 1.5215                 1.6299
 IR Inten    --     13.5109                 0.2750                10.9000

                     70                     71                     72
                      A                      A                      A
 Frequencies --   1427.4822              1444.6921              1447.4614
 Red. masses --      1.5709                 1.2770                 2.1748
 Frc consts  --      1.8860                 1.5703                 2.6846
 IR Inten    --     16.3529                 8.5598               140.2068

                     73                     74                     75
                      A                      A                      A
 Frequencies --   1489.5117              1503.6083              1507.9695
 Red. masses --      1.2003                 1.4373                 2.0180
 Frc consts  --      1.5691                 1.9145                 2.7036
 IR Inten    --     19.7332                29.7114                50.7937

                     76                     77                     78
                      A                      A                      A
 Frequencies --   1514.6438              1516.0768              1523.0058
 Red. masses --      1.4837                 1.0979                 1.0903
 Frc consts  --      2.0055                 1.4868                 1.4900
 IR Inten    --     25.2334                 8.2626                 8.2138

                     79                     80                     81
                      A                      A                      A
 Frequencies --   1525.5015              1529.6523              1543.5256
 Red. masses --      1.0562                 1.1044                 1.3743
 Frc consts  --      1.4481                 1.5225                 1.9291
 IR Inten    --     14.9145                 1.2062                 6.2914

                     82                     83                     84
                      A                      A                      A
 Frequencies --   1555.4907              1562.9074              1646.1779
 Red. masses --      1.2591                 1.0960                 5.9307
 Frc consts  --      1.7949                 1.5773                 9.4691
 IR Inten    --     33.2437                 2.8907                53.8644

                     85                     86                     87
                      A                      A                      A
 Frequencies --   1669.8896              1739.8399              3020.6461
 Red. masses --      6.0053                11.0653                 1.0443
 Frc consts  --      9.8665                19.7348                 5.6143
 IR Inten    --      3.7756               240.2469                24.2713

                     88                     89                     90
                      A                      A                      A
 Frequencies --   3021.4352              3036.7199              3039.8979
 Red. masses --      1.0672                 1.0759                 1.0505
 Frc consts  --      5.7401                 5.8459                 5.7196
 IR Inten    --     96.3869                 8.3156                33.0602

                     91                     92                     93
                      A                      A                      A
 Frequencies --   3048.9204              3064.0139              3064.0898
 Red. masses --      1.0700                 1.0900                 1.0836
 Frc consts  --      5.8604                 6.0292                 5.9941
 IR Inten    --     26.9947                28.3306                 6.2294

                     94                     95                     96
                      A                      A                      A
 Frequencies --   3074.1621              3079.1543              3099.3232
 Red. masses --      1.0644                 1.0873                 1.0964
 Frc consts  --      5.9268                 6.0738                 6.2053
 IR Inten    --     38.8505                75.7220                24.4749

                     97                     98                     99
                      A                      A                      A
 Frequencies --   3117.5342              3124.4986              3140.6203
 Red. masses --      1.0976                 1.1046                 1.1026
 Frc consts  --      6.2850                 6.3534                 6.4075
 IR Inten    --     17.9234                46.1678                 8.8808

                    100                    101                    102
                      A                      A                      A
 Frequencies --   3159.3524              3184.3961              3195.5797
 Red. masses --      1.0927                 1.0964                 1.0869
 Frc consts  --      6.4263                 6.5506                 6.5393
 IR Inten    --      5.1142                 7.1424                 7.2661

                    103                    104                    105
                      A                      A                      A
 Frequencies --   3214.7295              3221.8468              3769.3182
 Red. masses --      1.0914                 1.0960                 1.0652
 Frc consts  --      6.6454                 6.7030                 8.9170
 IR Inten    --      8.2583                12.2471                40.8308

 - Thermochemistry -
 -------------------
 Temperature   298.150 Kelvin.  Pressure   1.00000 Atm.
 Atom     1 has atomic number  6 and mass  12.00000

 Molecular mass:   249.13649 amu.
 Principal axes and moments of inertia in atomic units:
                           1         2         3
     Eigenvalues --  1647.183569595.23791**********
           X            0.99996  -0.00670  -0.00528
           Y            0.00670   0.99998  -0.00060
           Z            0.00529   0.00057   0.99999
 This molecule is an asymmetric top.
 Rotational symmetry number  1.
 Warning -- assumption of classical behavior for rotation
           may cause significant error
 Rotational temperatures (Kelvin)      0.05258     0.00903     0.00859
 Rotational constants (GHZ):           1.09565     0.18809     0.17893
 Zero-point vibrational energy     827748.6 (Joules/Mol)
                                  197.83667 (Kcal/Mol)
 Warning -- explicit consideration of  27 degrees of freedom as
           vibrations may cause significant error
 Vibrational temperatures:     38.04    48.71    65.48    77.50    93.12
          (Kelvin)            144.49   174.92   194.49   219.24   249.84
                              271.51   294.37   353.10   368.71   403.01
                              433.56   460.59   493.33   542.92   558.36
                              650.11   669.07   693.31   760.58   778.63
                              860.58   883.33   930.35   970.80   984.03
                             1041.20  1094.23  1162.24  1181.05  1205.78
                             1257.41  1277.11  1291.64  1296.93  1340.90
                             1369.93  1390.32  1407.97  1430.30  1485.21
                             1532.26  1536.53  1579.31  1591.49  1619.33
                             1642.07  1656.99  1678.93  1714.60  1727.77
                             1737.37  1749.14  1788.67  1793.74  1832.53
                             1849.66  1903.15  1918.15  1926.85  1955.33
                             1957.75  1987.08  2008.04  2044.36  2053.83
                             2078.59  2082.57  2143.08  2163.36  2169.63
                             2179.23  2181.30  2191.27  2194.86  2200.83
                             2220.79  2238.00  2248.68  2368.48  2402.60
                             2503.24  4346.04  4347.17  4369.16  4373.74
                             4386.72  4408.43  4408.54  4423.03  4430.22
                             4459.23  4485.44  4495.46  4518.65  4545.60
                             4581.64  4597.73  4625.28  4635.52  5423.21

 Zero-point correction=                           0.315273 (Hartree/Particle)
 Thermal correction to Energy=                    0.333234
 Thermal correction to Enthalpy=                  0.334178
 Thermal correction to Gibbs Free Energy=         0.267675
 Sum of electronic and zero-point Energies=           -825.105368
 Sum of electronic and thermal Energies=              -825.087406
 Sum of electronic and thermal Enthalpies=            -825.086462
 Sum of electronic and thermal Free Energies=         -825.152966

                     E (Thermal)             CV                S
                      KCal/Mol        Cal/Mol-Kelvin    Cal/Mol-Kelvin
 Total                  209.108             66.873            139.969
 Electronic               0.000              0.000              0.000
 Translational            0.889              2.981             42.439
 Rotational               0.889              2.981             33.433
 Vibrational            207.330             60.911             64.098
 Vibration     1          0.593              1.985              6.080
 Vibration     2          0.594              1.983              5.590
 Vibration     3          0.595              1.979              5.003
 Vibration     4          0.596              1.976              4.670
 Vibration     5          0.597              1.971              4.308
 Vibration     6          0.604              1.949              3.446
 Vibration     7          0.609              1.931              3.075
 Vibration     8          0.613              1.918              2.871
 Vibration     9          0.619              1.900              2.642
 Vibration    10          0.627              1.875              2.396
 Vibration    11          0.633              1.855              2.240
 Vibration    12          0.640              1.833              2.091
 Vibration    13          0.660              1.770              1.763
 Vibration    14          0.666              1.752              1.687
 Vibration    15          0.680              1.710              1.533
 Vibration    16          0.693              1.671              1.409
 Vibration    17          0.706              1.635              1.309
 Vibration    18          0.722              1.590              1.199
 Vibration    19          0.748              1.518              1.050
 Vibration    20          0.756              1.496              1.008
 Vibration    21          0.811              1.357              0.790
 Vibration    22          0.822              1.328              0.752
 Vibration    23          0.838              1.290              0.705
 Vibration    24          0.884              1.187              0.590
 Vibration    25          0.896              1.159              0.563
 Vibration    26          0.956              1.036              0.453
 Vibration    27          0.973              1.002              0.426

                           ! Non-Optimized Parameters !
 Normal termination of Gaussian 16 at Fri Dec 11 19:08:46 2020.

 ----------------------------------------------------------------------
 # B3LYP/6-311++G(d,p) empiricaldispersion=gd3bj scf=xqc pop=npa geom=c
 heck
 ----------------------------------------------------------------------

 --------------------------------------
 CID_82829878_JID_8107_Energie_neutraal
 --------------------------------------
 Structure from the checkpoint file:  "JID_8107.chk"
 Charge =  0 Multiplicity = 1

 SCF Done:  E(RB3LYP) =  -825.657553527     A.U. after   16 cycles
 Normal termination of Gaussian 16 at Fri Dec 11 19:17:22 2020.

 ----------------------------------------------------------------------
 # B3LYP/6-311++G(d,p) empiricaldispersion=gd3bj scf=xqc pop=npa geom=c
 heck
 ----------------------------------------------------------------------

 ------------------------------------
 CID_82829878_JID_8107_Energie_kation
 ------------------------------------
 Structure from the checkpoint file:  "JID_8107.chk"
 Charge =  1 Multiplicity = 2

 SCF Done:  E(UB3LYP) =  -825.364232811     A.U. after   29 cycles
 Normal termination of Gaussian 16 at Fri Dec 11 19:40:00 2020.
 Gaussian 16:  ES64L-G16RevA.03 25-Dec-2016

 ----------------------------------------------------------------------
 # B3LYP/6-311++G(d,p) empiricaldispersion=gd3bj scf=xqc pop=npa geom=c
 heck
 ----------------------------------------------------------------------

 -----------------------------------
 CID_82829878_JID_8107_Energie_anion
 -----------------------------------
 Structure from the checkpoint file:  "JID_8107.chk"
 Charge = -1 Multiplicity = 2

                         Standard orientation:
 ---------------------------------------------------------------------
 Center     Atomic      Atomic             Coordinates (Angstroms)
 Number     Number       Type             X           Y           Z
 ---------------------------------------------------------------------
      1          6           0        2.409892   -2.026760   -0.218687
      2          6           0        2.642590   -0.537021   -0.121241
      3          6           0        1.632564    0.409289   -0.364802
      4          6           0        1.904184    1.779827   -0.310510
      5          6           0        3.181831    2.223578    0.022854
      6          6           0        4.195484    1.306372    0.282261
      7          6           0        3.925955   -0.060847    0.201871
      8          8           0        4.970014   -0.909323    0.453866
      9          6           0        0.239752    0.003304   -0.775794
     10          8           0       -0.177488    0.263434   -1.901941
     11          7           0       -0.540350   -0.648853    0.146581
     12          6           0       -0.184002   -0.842538    1.543440
     13          6           0       -1.862655   -1.101540   -0.286122
     14          6           0       -2.911472    0.009749   -0.288116
     15          6           0       -3.290666    0.594633    1.075526
     16          6           0       -4.716184    1.092742    0.805643
     17          6           0       -5.256810   -0.001555   -0.125915
     18          8           0       -4.124544   -0.556016   -0.804897
     19          1           0        3.087754   -2.491754   -0.948220
     20          1           0        2.563256   -2.530991    0.746378
     21          1           0        1.393694   -2.254240   -0.543466
     22          1           0        1.111332    2.485224   -0.536000
     23          1           0        3.392238    3.287781    0.075242
     24          1           0        5.201029    1.623678    0.538001
     25          1           0        4.671514   -1.825068    0.351439
     26          1           0       -0.945614   -0.406262    2.198361
     27          1           0       -0.097316   -1.910755    1.781726
     28          1           0        0.767643   -0.357676    1.755587
     29          1           0       -1.779646   -1.496235   -1.300997
     30          1           0       -2.187073   -1.909926    0.377989
     31          1           0       -2.563171    0.806995   -0.958827
     32          1           0       -3.305823   -0.196458    1.836678
     33          1           0       -2.606506    1.381179    1.406733
     34          1           0       -5.317182    1.213484    1.711803
     35          1           0       -4.686290    2.057986    0.287525
     36          1           0       -5.757076   -0.798955    0.442245
     37          1           0       -5.966937    0.383799   -0.866949
 ---------------------------------------------------------------------

 SCF Done:  E(UB3LYP) =  -825.650108555     A.U. after   33 cycles
 SCF Done:  E(UB3LYP) =  -825.650108555     a.u. after    1 cycles

 The electronic state is 2-A.
 Alpha  occ. eigenvalues --  -19.06403 -19.03191 -18.99575 -14.25595 -10.18133
 Alpha  occ. eigenvalues --  -10.14808 -10.12954 -10.12943 -10.11115 -10.11089
 Alpha  occ. eigenvalues --  -10.10067 -10.09901 -10.09280 -10.08829 -10.08608
 Alpha  occ. eigenvalues --  -10.08528 -10.08457 -10.08221  -0.97522  -0.95089
 Alpha  occ. eigenvalues --   -0.94692  -0.84731  -0.77405  -0.70320  -0.69617
 Alpha  occ. eigenvalues --   -0.68164  -0.66379  -0.62321  -0.61358  -0.59424
 Alpha  occ. eigenvalues --   -0.53570  -0.52320  -0.51516  -0.49601  -0.46562
 Alpha  occ. eigenvalues --   -0.44589  -0.43098  -0.42020  -0.40410  -0.39600
 Alpha  occ. eigenvalues --   -0.38763  -0.37493  -0.36813  -0.35558  -0.34804
 Alpha  occ. eigenvalues --   -0.33967  -0.33364  -0.32469  -0.31726  -0.31413
 Alpha  occ. eigenvalues --   -0.30912  -0.30559  -0.30279  -0.29327  -0.28817
 Alpha  occ. eigenvalues --   -0.27441  -0.27203  -0.26385  -0.25446  -0.25242
 Alpha  occ. eigenvalues --   -0.25077  -0.23420  -0.17952  -0.17300  -0.15883
 Alpha  occ. eigenvalues --   -0.15028  -0.13952   0.03761
 Alpha virt. eigenvalues --    0.05299   0.06182   0.06755   0.07039   0.07650
 Alpha virt. eigenvalues --    0.07951   0.08316   0.08902   0.09333   0.09722
 Alpha virt. eigenvalues --    0.09878   0.10712   0.11247   0.11369   0.11767

  Beta  occ. eigenvalues --  -19.06364 -19.03191 -18.99559 -14.25593 -10.18123
  Beta  occ. eigenvalues --  -10.14803 -10.12952 -10.12930 -10.11105 -10.11057
  Beta  occ. eigenvalues --  -10.10063 -10.09886 -10.09281 -10.08809 -10.08593
  Beta  occ. eigenvalues --  -10.08525 -10.08435 -10.08156  -0.97442  -0.95075
  Beta  occ. eigenvalues --   -0.94676  -0.84714  -0.77375  -0.70293  -0.69583
  Beta  occ. eigenvalues --   -0.68137  -0.66340  -0.62275  -0.61293  -0.59381
  Beta  occ. eigenvalues --   -0.53530  -0.52265  -0.51462  -0.49569  -0.46518
  Beta  occ. eigenvalues --   -0.44550  -0.43072  -0.42001  -0.40362  -0.39573
  Beta  occ. eigenvalues --   -0.38734  -0.37462  -0.36782  -0.35538  -0.34749
  Beta  occ. eigenvalues --   -0.33936  -0.33329  -0.32438  -0.31696  -0.31376
  Beta  occ. eigenvalues --   -0.30860  -0.30515  -0.30240  -0.29296  -0.28767
  Beta  occ. eigenvalues --   -0.27409  -0.27172  -0.26357  -0.25411  -0.25205
  Beta  occ. eigenvalues --   -0.25044  -0.23406  -0.17912  -0.17283  -0.15843
  Beta  occ. eigenvalues --   -0.14988  -0.13899
  Beta virt. eigenvalues --    0.05893   0.06324   0.06601   0.06886   0.07696
  Beta virt. eigenvalues --    0.07796   0.08226   0.08550   0.09257   0.09775
  Beta virt. eigenvalues --    0.09909   0.10215   0.11151   0.11377   0.11666

 Mulliken charges and spin densities:
               1          2
     1  C    2.867754  -3.474267
     2  C   -2.157842   3.104097
     3  C    0.774384   0.224130
     4  C   -0.602266   0.316756
     5  C   -0.119841  -0.235329
     6  C    0.674183  -0.682781
     7  C    0.418074  -0.972708
     8  O   -0.245780   0.010670
     9  C   -1.953401   0.467363
    10  O   -0.225020  -0.002249
    11  N    0.192526   0.080480
    12  C    0.618104  -1.028872
    13  C    0.479202  -0.766552
    14  C   -1.066327   0.686044
    15  C    0.395919  -0.455363
    16  C   -0.188372  -0.319230
    17  C    0.429417  -0.585099
    18  O   -0.114479   0.011733
    19  H   -0.307338   0.473681
    20  H   -0.469448   0.673644
    21  H    0.289122  -0.066318
    22  H    0.091328   0.075596
    23  H    0.133206   0.021009
    24  H    0.108583   0.066299
    25  H   -0.345995   0.647025
    26  H   -0.368719   0.539904
    27  H   -0.289938   0.476636
    28  H    0.126976   0.034739
    29  H    0.147186   0.080618
    30  H   -0.010775   0.182845
    31  H    0.140344   0.080735
    32  H   -0.046809   0.211221
    33  H   -0.037606   0.202676
    34  H   -0.408973   0.576856
    35  H    0.090447   0.046796
    36  H   -0.107688   0.242748
    37  H    0.089862   0.054468
 Sum of Mulliken charges =  -1.00000   1.00000

 Dipole moment (field-independent basis, Debye):
    X=             -0.9907    Y=              5.2960    Z=             -1.7213  Tot=              5.6562
 Quadrupole moment (field-independent basis, Debye-Ang):
   XX=           -204.3453   YY=           -146.6204   ZZ=           -153.5825
   XY=             16.0514   XZ=              6.1708   YZ=              4.8834

 Summary of Natural Population Analysis:

                                       Natural Population
                Natural  -----------------------------------------------
    Atom  No    Charge         Core      Valence    Rydberg      Total
 -----------------------------------------------------------------------
      C    1   -0.30897      0.99963     2.30160    0.00775     3.30897
      C    2   -0.04091      0.99944     2.03150    0.00997     3.04091
      C    3   -0.04937      0.99943     2.03838    0.01156     3.04937
      C    4   -0.10352      0.99952     2.09571    0.00829     3.10352
      C    5   -0.09802      0.99957     2.08944    0.00902     3.09802
      C    6   -0.12159      0.99952     2.11310    0.00898     3.12159
      C    7    0.16284      0.99933     1.82371    0.01412     2.83716
      O    8   -0.34093      0.99988     3.33433    0.00672     4.34093
      C    9    0.34250      0.99958     1.63367    0.02426     2.65750
      O   10   -0.31885      0.99988     3.31410    0.00487     4.31885
      N   11   -0.25295      0.99965     2.74235    0.01096     3.75295
      C   12   -0.17563      0.99962     2.16795    0.00806     3.17563
      C   13   -0.08988      0.99957     2.07708    0.01323     3.08988
      C   14    0.06245      0.99955     1.92429    0.01372     2.93755
      C   15   -0.20461      0.99962     2.19652    0.00847     3.20461
      C   16   -0.20428      0.99964     2.19703    0.00761     3.20428
      C   17   -0.00851      0.99960     1.99666    0.01225     3.00851
      O   18   -0.30678      0.99989     3.29890    0.00799     4.30678
      H   19    0.10753      0.00000     0.39088    0.00159     0.39247
      H   20    0.10999      0.00000     0.38752    0.00249     0.39001
      H   21    0.11342      0.00000     0.38518    0.00140     0.38658
      H   22    0.10452      0.00000     0.39435    0.00113     0.39548
      H   23    0.09886      0.00000     0.40040    0.00074     0.40114
      H   24    0.10478      0.00000     0.39437    0.00085     0.39522
      H   25    0.24301      0.00000     0.25099    0.00599     0.25699
      H   26    0.09696      0.00000     0.40153    0.00150     0.40304
      H   27    0.09740      0.00000     0.40101    0.00159     0.40260
      H   28    0.10850      0.00000     0.39015    0.00136     0.39150
      H   29    0.11194      0.00000     0.38681    0.00125     0.38806
      H   30    0.09826      0.00000     0.40013    0.00161     0.40174
      H   31    0.08987      0.00000     0.40865    0.00148     0.41013
      H   32    0.09900      0.00000     0.39936    0.00165     0.40100
      H   33    0.10633      0.00000     0.39258    0.00109     0.39367
      H   34    0.10591      0.00000     0.39258    0.00151     0.39409
      H   35    0.09555      0.00000     0.40336    0.00109     0.40445
      H   36    0.08174      0.00000     0.41684    0.00142     0.41826
      H   37    0.08345      0.00000     0.41544    0.00111     0.41655
 =======================================================================
   * Total *   -0.00000     17.99292    48.78843    0.21865    67.00000

 Normal termination of Gaussian 16 at Fri Dec 11 20:06:23 2020.
