 Gaussian 16, Revision A.03,

 -----------------------------------------------------------
 # opt freq B3LYP/6-31G(d) empiricaldispersion=gd3bj scf=xqc
 -----------------------------------------------------------

 -------------------------------
 CID_113508301_JID_7670_neutraal
 -------------------------------
 Symbolic Z-matrix:
 Charge =  0 Multiplicity = 1

 SCF Done:  E(RB3LYP) =  -1071.70449345     A.U. after   15 cycles
 SCF Done:  E(RB3LYP) =  -1071.71662684     A.U. after   12 cycles
 SCF Done:  E(RB3LYP) =  -1071.71744356     A.U. after   12 cycles
 SCF Done:  E(RB3LYP) =  -1071.71837507     A.U. after   12 cycles
 SCF Done:  E(RB3LYP) =  -1071.71854033     A.U. after   12 cycles
 SCF Done:  E(RB3LYP) =  -1071.71862537     A.U. after   12 cycles
 SCF Done:  E(RB3LYP) =  -1071.71871411     A.U. after   10 cycles
 SCF Done:  E(RB3LYP) =  -1071.71873619     A.U. after   10 cycles
 SCF Done:  E(RB3LYP) =  -1071.71874266     A.U. after   10 cycles
 SCF Done:  E(RB3LYP) =  -1071.71874822     A.U. after    9 cycles
 SCF Done:  E(RB3LYP) =  -1071.71878457     A.U. after    8 cycles
 SCF Done:  E(RB3LYP) =  -1071.71878526     A.U. after    8 cycles
 SCF Done:  E(RB3LYP) =  -1071.71878541     A.U. after    7 cycles
 SCF Done:  E(RB3LYP) =  -1071.71878543     A.U. after    6 cycles
 SCF Done:  E(RB3LYP) =  -1071.71878544     A.U. after    6 cycles
 Optimization completed.
    -- Stationary point found.
 Normal termination of Gaussian 16 at Fri Dec 11 13:18:39 2020.

 --------------------------------------------------------------------
 #N Geom=AllCheck Guess=TCheck SCRF=Check GenChk RB3LYP/6-31G(d) Freq
 --------------------------------------------------------------------

 Structure from the checkpoint file:  "JID_7670.chk"
 -------------------------------
 CID_113508301_JID_7670_neutraal
 -------------------------------
 Charge =  0 Multiplicity = 1

 SCF Done:  E(RB3LYP) =  -1071.71878544     A.U. after    1 cycles

  Exact polarizability: 213.956  -2.044 184.416  -2.047   3.191 125.247
 Approx polarizability: 290.610  -7.168 280.429  -8.571   7.183 192.281

                      1                      2                      3
                      A                      A                      A
 Frequencies --     24.7094                36.6907                65.3062
 Red. masses --      3.4243                 3.3931                 3.1129
 Frc consts  --      0.0012                 0.0027                 0.0078
 IR Inten    --      0.2122                 0.2310                 1.3184

                      4                      5                      6
                      A                      A                      A
 Frequencies --     73.8492                80.8220                84.1921
 Red. masses --      2.7016                 3.3151                 3.1027
 Frc consts  --      0.0087                 0.0128                 0.0130
 IR Inten    --      2.0776                 0.3565                 2.7174

                      7                      8                      9
                      A                      A                      A
 Frequencies --     99.2886               133.4508               144.0936
 Red. masses --      4.0304                 1.9153                 2.2270
 Frc consts  --      0.0234                 0.0201                 0.0272
 IR Inten    --      0.3281                 0.7757                 0.8341

                     10                     11                     12
                      A                      A                      A
 Frequencies --    166.2266               225.9615               231.7681
 Red. masses --      2.0108                 2.7227                 1.4127
 Frc consts  --      0.0327                 0.0819                 0.0447
 IR Inten    --      0.2421                 0.8301                11.9454

                     13                     14                     15
                      A                      A                      A
 Frequencies --    243.5348               267.1397               276.1587
 Red. masses --      1.3318                 1.9374                 1.2706
 Frc consts  --      0.0465                 0.0815                 0.0571
 IR Inten    --      7.7567                20.0112                 1.6457

                     16                     17                     18
                      A                      A                      A
 Frequencies --    288.2167               296.1666               318.0892
 Red. masses --      1.6253                 3.3230                 2.7641
 Frc consts  --      0.0795                 0.1717                 0.1648
 IR Inten    --     24.1759                 0.2252                 0.0593

                     19                     20                     21
                      A                      A                      A
 Frequencies --    324.0962               365.1894               370.6663
 Red. masses --      3.1679                 2.6484                 1.2740
 Frc consts  --      0.1961                 0.2081                 0.1031
 IR Inten    --      2.7194                 0.6604                 0.6816

                     22                     23                     24
                      A                      A                      A
 Frequencies --    379.4008               397.8857               402.3647
 Red. masses --      2.3923                 2.6643                 2.6222
 Frc consts  --      0.2029                 0.2485                 0.2501
 IR Inten    --      2.4846                 2.8154                 1.5421

                     25                     26                     27
                      A                      A                      A
 Frequencies --    452.8340               457.6860               514.1256
 Red. masses --      3.4267                 3.7833                 3.3031
 Frc consts  --      0.4140                 0.4669                 0.5144
 IR Inten    --      3.0492                 2.2507                 2.0908

                     28                     29                     30
                      A                      A                      A
 Frequencies --    554.6946               562.8396               618.2104
 Red. masses --      3.0426                 5.0284                 9.6021
 Frc consts  --      0.5516                 0.9385                 2.1622
 IR Inten    --      2.0656                 9.2495                 5.7436

                     31                     32                     33
                      A                      A                      A
 Frequencies --    654.9946               703.6931               723.9133
 Red. masses --      2.5725                 3.8095                 5.5773
 Frc consts  --      0.6503                 1.1114                 1.7221
 IR Inten    --      1.2029                 5.5474                10.5432

                     34                     35                     36
                      A                      A                      A
 Frequencies --    731.1858               776.0598               793.1286
 Red. masses --      5.4527                 2.5998                 1.1814
 Frc consts  --      1.7176                 0.9225                 0.4379
 IR Inten    --      8.8162                 0.9396                 0.4932

                     37                     38                     39
                      A                      A                      A
 Frequencies --    804.8424               862.0601               886.5275
 Red. masses --      2.2332                 1.5677                 1.8555
 Frc consts  --      0.8523                 0.6864                 0.8592
 IR Inten    --      2.5790                59.7408               107.6496

                     40                     41                     42
                      A                      A                      A
 Frequencies --    912.2762               936.7476               941.1659
 Red. masses --      2.1796                 2.6463                 1.8107
 Frc consts  --      1.0688                 1.3682                 0.9450
 IR Inten    --      0.8060                 0.3332                 0.9249

                     43                     44                     45
                      A                      A                      A
 Frequencies --    955.7253               961.8299               968.5021
 Red. masses --      1.6538                 1.4346                 2.8545
 Frc consts  --      0.8900                 0.7819                 1.5776
 IR Inten    --      1.6441                 3.9181                 7.5982

                     46                     47                     48
                      A                      A                      A
 Frequencies --    975.4011              1035.2944              1042.1191
 Red. masses --      1.1972                 3.6379                 1.8517
 Frc consts  --      0.6711                 2.2974                 1.1848
 IR Inten    --      0.1376                13.0831                 3.6382

                     49                     50                     51
                      A                      A                      A
 Frequencies --   1057.8827              1060.2184              1066.2145
 Red. masses --      1.8610                 1.4039                 1.4548
 Frc consts  --      1.2271                 0.9298                 0.9744
 IR Inten    --      3.0178                 0.1019                 6.7192

                     52                     53                     54
                      A                      A                      A
 Frequencies --   1076.2003              1124.6531              1154.1297
 Red. masses --      4.0637                 1.6208                 1.2961
 Frc consts  --      2.7730                 1.2079                 1.0172
 IR Inten    --     18.0559                70.6208                21.4841

                     55                     56                     57
                      A                      A                      A
 Frequencies --   1172.7357              1183.4472              1194.0569
 Red. masses --      2.3741                 3.0223                 1.8415
 Frc consts  --      1.9238                 2.4939                 1.5469
 IR Inten    --     11.8387                 3.4257                38.7073

                     58                     59                     60
                      A                      A                      A
 Frequencies --   1214.4187              1223.9513              1241.2467
 Red. masses --      1.3285                 2.2647                 2.6290
 Frc consts  --      1.1544                 1.9989                 2.3865
 IR Inten    --      0.7423                26.8608                 2.7453

                     61                     62                     63
                      A                      A                      A
 Frequencies --   1254.9917              1262.0674              1267.7555
 Red. masses --      2.0828                 2.0243                 1.2613
 Frc consts  --      1.9328                 1.8998                 1.1944
 IR Inten    --      9.1158                 4.8801                 0.4062

                     64                     65                     66
                      A                      A                      A
 Frequencies --   1274.7540              1281.9005              1300.7074
 Red. masses --      1.1726                 2.1017                 1.4433
 Frc consts  --      1.1227                 2.0349                 1.4386
 IR Inten    --      0.9584                 8.4054                 3.4933

                     67                     68                     69
                      A                      A                      A
 Frequencies --   1301.2705              1315.3152              1343.8909
 Red. masses --      1.5181                 1.2460                 4.3536
 Frc consts  --      1.5145                 1.2701                 4.6326
 IR Inten    --      5.5038                 9.6004                19.3567

                     70                     71                     72
                      A                      A                      A
 Frequencies --   1373.2724              1416.5374              1424.8446
 Red. masses --      4.0584                 1.2184                 1.2462
 Frc consts  --      4.5094                 1.4404                 1.4906
 IR Inten    --    213.3421                 5.6896                 1.1004

                     73                     74                     75
                      A                      A                      A
 Frequencies --   1435.8209              1440.5247              1454.0728
 Red. masses --      1.4247                 1.3683                 1.2335
 Frc consts  --      1.7305                 1.6729                 1.5366
 IR Inten    --     66.1033                12.6276                 9.8989

                     76                     77                     78
                      A                      A                      A
 Frequencies --   1486.3284              1498.5239              1506.7277
 Red. masses --      1.2906                 1.0905                 1.0505
 Frc consts  --      1.6799                 1.4427                 1.4052
 IR Inten    --     48.3690                 2.3496                 0.1746

                     79                     80                     81
                      A                      A                      A
 Frequencies --   1511.1298              1515.2589              1518.3952
 Red. masses --      1.0868                 1.0463                 1.0548
 Frc consts  --      1.4622                 1.4154                 1.4328
 IR Inten    --      3.1446                15.4758                 1.1165

                     82                     83                     84
                      A                      A                      A
 Frequencies --   1522.5303              1527.6926              1539.0125
 Red. masses --      1.0477                 1.0593                 1.0961
 Frc consts  --      1.4309                 1.4566                 1.5296
 IR Inten    --      0.0802                 4.2383                13.4883

                     85                     86                     87
                      A                      A                      A
 Frequencies --   1539.8595              1541.1730              1545.8617
 Red. masses --      1.0938                 1.0773                 1.0776
 Frc consts  --      1.5281                 1.5076                 1.5172
 IR Inten    --     11.2760                 3.8448                19.4509

                     88                     89                     90
                      A                      A                      A
 Frequencies --   1563.8146              1596.4289              1611.9569
 Red. masses --      1.0845                 7.3738                 4.7827
 Frc consts  --      1.5626                11.0724                 7.3220
 IR Inten    --      6.4434                25.5166               458.1799

                     91                     92                     93
                      A                      A                      A
 Frequencies --   1683.9612              3015.7487              3043.1288
 Red. masses --      1.0912                 1.0468                 1.0367
 Frc consts  --      1.8232                 5.6095                 5.6567
 IR Inten    --     27.7950                53.5316                19.8851

                     94                     95                     96
                      A                      A                      A
 Frequencies --   3045.7094              3049.6135              3054.8710
 Red. masses --      1.0385                 1.0504                 1.0439
 Frc consts  --      5.6760                 5.7559                 5.7400
 IR Inten    --     27.8317                35.8697                47.1261

                     97                     98                     99
                      A                      A                      A
 Frequencies --   3072.8507              3073.6466              3079.2924
 Red. masses --      1.0617                 1.1015                 1.0937
 Frc consts  --      5.9066                 6.1310                 6.1099
 IR Inten    --     29.2173                45.1117                11.9507

                    100                    101                    102
                      A                      A                      A
 Frequencies --   3083.0859              3084.4623              3094.6039
 Red. masses --      1.0675                 1.0744                 1.0775
 Frc consts  --      5.9784                 6.0227                 6.0797
 IR Inten    --     73.1165                30.1206                50.5843

                    103                    104                    105
                      A                      A                      A
 Frequencies --   3105.4310              3108.4341              3115.8468
 Red. masses --      1.1027                 1.1022                 1.1010
 Frc consts  --      6.2653                 6.2748                 6.2976
 IR Inten    --     15.2736                10.9385                67.4683

                    106                    107                    108
                      A                      A                      A
 Frequencies --   3123.8567              3125.4464              3141.8785
 Red. masses --      1.1067                 1.1025                 1.0999
 Frc consts  --      6.3628                 6.3453                 6.3969
 IR Inten    --     19.6528                33.6784                12.6179

                    109                    110                    111
                      A                      A                      A
 Frequencies --   3148.9733              3152.8161              3164.9587
 Red. masses --      1.0992                 1.0974                 1.1008
 Frc consts  --      6.4222                 6.4272                 6.4969
 IR Inten    --     29.8351                19.7032                16.0662

                    112                    113                    114
                      A                      A                      A
 Frequencies --   3178.5361              3453.3032              3547.8471
 Red. masses --      1.0991                 1.0494                 1.0927
 Frc consts  --      6.5426                 7.3730                 8.1037
 IR Inten    --     18.2278                 7.7679                 3.3482

 - Thermochemistry -
 -------------------
 Temperature   298.150 Kelvin.  Pressure   1.00000 Atm.
 Atom     1 has atomic number  6 and mass  12.00000

 Molecular mass:   253.16127 amu.
 Principal axes and moments of inertia in atomic units:
                           1         2         3
     Eigenvalues --  3027.505145519.761567697.28285
           X            0.99982   0.01879   0.00032
           Y           -0.01879   0.99982  -0.00013
           Z           -0.00032   0.00012   1.00000
 This molecule is an asymmetric top.
 Rotational symmetry number  1.
 Warning -- assumption of classical behavior for rotation
           may cause significant error
 Rotational temperatures (Kelvin)      0.02861     0.01569     0.01125
 Rotational constants (GHZ):           0.59611     0.32696     0.23446
 Zero-point vibrational energy     925975.4 (Joules/Mol)
                                  221.31344 (Kcal/Mol)
 Warning -- explicit consideration of  30 degrees of freedom as
           vibrations may cause significant error
 Vibrational temperatures:     35.55    52.79    93.96   106.25   116.28
          (Kelvin)            121.13   142.85   192.01   207.32   239.16
                              325.11   333.46   350.39   384.35   397.33
                              414.68   426.12   457.66   466.30   525.43
                              533.31   545.87   572.47   578.91   651.53
                              658.51   739.71   798.08   809.80   889.47
                              942.39  1012.46  1041.55  1052.01  1116.58
                             1141.14  1157.99  1240.31  1275.52  1312.56
                             1347.77  1354.13  1375.08  1383.86  1393.46
                             1403.38  1489.56  1499.38  1522.06  1525.42
                             1534.04  1548.41  1618.12  1660.54  1687.31
                             1702.72  1717.98  1747.28  1760.99  1785.88
                             1805.65  1815.83  1824.02  1834.09  1844.37
                             1871.43  1872.24  1892.45  1933.56  1975.83
                             2038.08  2050.03  2065.83  2072.59  2092.09
                             2138.50  2156.04  2167.85  2174.18  2180.12
                             2184.63  2190.58  2198.01  2214.30  2215.51
                             2217.40  2224.15  2249.98  2296.91  2319.25
                             2422.84  4338.99  4378.38  4382.10  4387.71
                             4395.28  4421.15  4422.29  4430.41  4435.87
                             4437.85  4452.44  4468.02  4472.34  4483.01
                             4494.53  4496.82  4520.46  4530.67  4536.20
                             4553.67  4573.20  4968.53  5104.56

 Zero-point correction=                           0.352685 (Hartree/Particle)
 Thermal correction to Energy=                    0.371705
 Thermal correction to Enthalpy=                  0.372649
 Thermal correction to Gibbs Free Energy=         0.305046
 Sum of electronic and zero-point Energies=          -1071.366100
 Sum of electronic and thermal Energies=             -1071.347080
 Sum of electronic and thermal Enthalpies=           -1071.346136
 Sum of electronic and thermal Free Energies=        -1071.413739

                     E (Thermal)             CV                S
                      KCal/Mol        Cal/Mol-Kelvin    Cal/Mol-Kelvin
 Total                  233.248             71.647            142.283
 Electronic               0.000              0.000              0.000
 Translational            0.889              2.981             42.487
 Rotational               0.889              2.981             33.219
 Vibrational            231.471             65.685             66.577
 Vibration     1          0.593              1.985              6.214
 Vibration     2          0.594              1.982              5.430
 Vibration     3          0.597              1.971              4.290
 Vibration     4          0.599              1.966              4.048
 Vibration     5          0.600              1.962              3.871
 Vibration     6          0.601              1.960              3.791
 Vibration     7          0.604              1.950              3.468
 Vibration     8          0.613              1.920              2.896
 Vibration     9          0.616              1.909              2.749
 Vibration    10          0.624              1.884              2.478
 Vibration    11          0.650              1.801              1.911
 Vibration    12          0.653              1.792              1.865
 Vibration    13          0.659              1.773              1.777
 Vibration    14          0.672              1.733              1.615
 Vibration    15          0.678              1.717              1.557
 Vibration    16          0.685              1.696              1.484
 Vibration    17          0.690              1.681              1.438
 Vibration    18          0.704              1.639              1.320
 Vibration    19          0.709              1.627              1.289
 Vibration    20          0.738              1.544              1.100
 Vibration    21          0.743              1.532              1.077
 Vibration    22          0.749              1.514              1.042
 Vibration    23          0.764              1.475              0.970
 Vibration    24          0.768              1.465              0.954
 Vibration    25          0.811              1.355              0.787
 Vibration    26          0.816              1.344              0.773
 Vibration    27          0.869              1.219              0.624
 Vibration    28          0.910              1.129              0.535
 Vibration    29          0.919              1.112              0.518
 Vibration    30          0.978              0.993              0.419

 Optimization completed.
    -- Stationary point found.
 Normal termination of Gaussian 16 at Fri Dec 11 13:37:18 2020.

 ----------------------------------------------------------------------
 # B3LYP/6-311++G(d,p) empiricaldispersion=gd3bj scf=xqc pop=npa geom=c
 heck
 ----------------------------------------------------------------------

 ---------------------------------------
 CID_113508301_JID_7670_Energie_neutraal
 ---------------------------------------
 Structure from the checkpoint file:  "JID_7670.chk"
 Charge =  0 Multiplicity = 1

 SCF Done:  E(RB3LYP) =  -1071.93153824     A.U. after   16 cycles
 Normal termination of Gaussian 16 at Fri Dec 11 13:47:17 2020.

 ----------------------------------------------------------------------
 # B3LYP/6-311++G(d,p) empiricaldispersion=gd3bj scf=xqc pop=npa geom=c
 heck
 ----------------------------------------------------------------------

 -------------------------------------
 CID_113508301_JID_7670_Energie_kation
 -------------------------------------
 Structure from the checkpoint file:  "JID_7670.chk"
 Charge =  1 Multiplicity = 2

 SCF Done:  E(UB3LYP) =  -1071.67525722     A.U. after   22 cycles
 Normal termination of Gaussian 16 at Fri Dec 11 14:06:32 2020.
 Gaussian 16:  ES64L-G16RevA.03 25-Dec-2016

 ----------------------------------------------------------------------
 # B3LYP/6-311++G(d,p) empiricaldispersion=gd3bj scf=xqc pop=npa geom=c
 heck
 ----------------------------------------------------------------------

 ------------------------------------
 CID_113508301_JID_7670_Energie_anion
 ------------------------------------
 Structure from the checkpoint file:  "JID_7670.chk"
 Charge = -1 Multiplicity = 2

                         Standard orientation:
 ---------------------------------------------------------------------
 Center     Atomic      Atomic             Coordinates (Angstroms)
 Number     Number       Type             X           Y           Z
 ---------------------------------------------------------------------
      1          6           0        0.967067    2.638203   -1.077864
      2          6           0        1.696976    1.731771   -0.063203
      3          6           0        3.203501    1.803328   -0.348919
      4          6           0        1.443129    2.266678    1.364180
      5          6           0        1.095943    0.328411   -0.144477
      6          6           0        1.696822   -0.893749   -0.311357
      7         16           0        0.473974   -2.167493   -0.228480
      8          6           0       -0.758635   -0.921357    0.006807
      9          7           0       -0.281294    0.295107    0.020626
     10          7           0       -2.076480   -1.251616    0.155827
     11          6           0       -2.461148   -2.644544   -0.005602
     12          6           0       -3.105259   -0.216118    0.133170
     13          6           0       -3.078042    0.950358    1.155960
     14          6           0       -3.636896    1.869892    0.035341
     15          6           0       -3.180524    0.824453   -1.018515
     16          6           0        3.127567   -1.331490   -0.437916
     17          7           0        3.695098   -1.656178    0.883326
     18          1           0        1.345405    3.665066   -1.008111
     19          1           0       -0.108101    2.645916   -0.884652
     20          1           0        1.127735    2.283190   -2.102307
     21          1           0        3.540804    2.839336   -0.232558
     22          1           0        3.787029    1.189806    0.345588
     23          1           0        3.438215    1.493521   -1.372191
     24          1           0        0.375664    2.249660    1.598584
     25          1           0        1.964512    1.653771    2.108858
     26          1           0        1.805941    3.297732    1.454173
     27          1           0       -3.502797   -2.763269    0.297234
     28          1           0       -2.353859   -2.994214   -1.043283
     29          1           0       -1.848668   -3.287665    0.637374
     30          1           0       -4.059756   -0.742968    0.211571
     31          1           0       -3.673150    0.821747    2.065561
     32          1           0       -2.054086    1.215041    1.416003
     33          1           0       -3.201155    2.869349   -0.043044
     34          1           0       -4.726644    1.966078    0.080322
     35          1           0       -2.185978    1.053338   -1.402310
     36          1           0       -3.855385    0.597301   -1.849899
     37          1           0        3.172851   -2.246068   -1.041487
     38          1           0        3.691073   -0.573468   -0.994099
     39          1           0        4.689099   -1.863400    0.786277
     40          1           0        3.623402   -0.836124    1.483985
 ---------------------------------------------------------------------

 SCF Done:  E(UB3LYP) =  -1071.91899678     A.U. after   33 cycles
 SCF Done:  E(UB3LYP) =  -1071.91899678     a.u. after    1 cycles

 The electronic state is 2-A.
 Alpha  occ. eigenvalues --  -88.77394 -14.25308 -14.19997 -14.19600 -10.16847
 Alpha  occ. eigenvalues --  -10.11808 -10.11451 -10.10923 -10.10821 -10.10030
 Alpha  occ. eigenvalues --  -10.09853 -10.07609 -10.06996 -10.06942 -10.06812
 Alpha  occ. eigenvalues --  -10.06658 -10.06476  -7.86056  -5.82356  -5.82001
 Alpha  occ. eigenvalues --   -5.81596  -0.89235  -0.83376  -0.79092  -0.74822
 Alpha  occ. eigenvalues --   -0.72872  -0.69658  -0.64107  -0.61814  -0.59669
 Alpha  occ. eigenvalues --   -0.59389  -0.57849  -0.56719  -0.55803  -0.49318
 Alpha  occ. eigenvalues --   -0.48342  -0.44613  -0.43647  -0.40664  -0.40205
 Alpha  occ. eigenvalues --   -0.39339  -0.37781  -0.37250  -0.36293  -0.35542
 Alpha  occ. eigenvalues --   -0.34857  -0.33823  -0.32370  -0.32162  -0.31658
 Alpha  occ. eigenvalues --   -0.30396  -0.29580  -0.29200  -0.29115  -0.28642
 Alpha  occ. eigenvalues --   -0.28197  -0.27554  -0.27358  -0.24896  -0.24422
 Alpha  occ. eigenvalues --   -0.24150  -0.22740  -0.22736  -0.21984  -0.18900
 Alpha  occ. eigenvalues --   -0.17024  -0.16995  -0.15160  -0.10535   0.03974
 Alpha virt. eigenvalues --    0.05155   0.06526   0.07146   0.07341   0.08115
 Alpha virt. eigenvalues --    0.08290   0.08743   0.09300   0.09355   0.09768
 Alpha virt. eigenvalues --    0.10110   0.10242   0.10760   0.10963   0.12017

  Beta  occ. eigenvalues --  -88.77391 -14.25304 -14.19960 -14.19602 -10.16839
  Beta  occ. eigenvalues --  -10.11793 -10.11418 -10.10907 -10.10808 -10.10029
  Beta  occ. eigenvalues --  -10.09855 -10.07599 -10.06986 -10.06935 -10.06784
  Beta  occ. eigenvalues --  -10.06647 -10.06462  -7.86052  -5.82354  -5.81998
  Beta  occ. eigenvalues --   -5.81592  -0.89222  -0.83364  -0.79033  -0.74802
  Beta  occ. eigenvalues --   -0.72856  -0.69642  -0.64075  -0.61770  -0.59626
  Beta  occ. eigenvalues --   -0.59363  -0.57802  -0.56692  -0.55763  -0.49290
  Beta  occ. eigenvalues --   -0.48315  -0.44576  -0.43620  -0.40629  -0.40160
  Beta  occ. eigenvalues --   -0.39318  -0.37742  -0.37222  -0.36250  -0.35510
  Beta  occ. eigenvalues --   -0.34829  -0.33797  -0.32331  -0.32129  -0.31631
  Beta  occ. eigenvalues --   -0.30366  -0.29562  -0.29180  -0.29090  -0.28622
  Beta  occ. eigenvalues --   -0.28171  -0.27535  -0.27338  -0.24874  -0.24401
  Beta  occ. eigenvalues --   -0.24127  -0.22720  -0.22716  -0.21960  -0.18879
  Beta  occ. eigenvalues --   -0.17012  -0.16980  -0.15124  -0.10510
  Beta virt. eigenvalues --    0.05944   0.06419   0.06943   0.07496   0.07707
  Beta virt. eigenvalues --    0.08403   0.08666   0.08969   0.09398   0.09526
  Beta virt. eigenvalues --    0.10129   0.10232   0.10654   0.11008   0.11159

 Mulliken charges and spin densities:
               1          2
     1  C   -0.170384  -0.434851
     2  C   -1.819260   2.522115
     3  C    0.619877  -1.233853
     4  C   -0.242806  -0.347098
     5  C    0.619087  -1.122570
     6  C   -0.100714   0.580459
     7  S   -0.385182  -0.126364
     8  C   -0.009266  -0.134487
     9  N    0.184062   0.003428
    10  N    0.388373   0.044022
    11  C    0.728397  -0.978555
    12  C   -1.065091   0.726022
    13  C    0.303266  -0.585723
    14  C   -0.120714  -0.172004
    15  C    0.705447  -0.952060
    16  C    0.892165  -1.693864
    17  N   -0.291993   0.022087
    18  H   -0.018970   0.162143
    19  H    0.231312  -0.139556
    20  H    0.044111   0.106993
    21  H   -0.095725   0.248492
    22  H   -0.286935   0.421410
    23  H    0.010500   0.146024
    24  H    0.038633   0.046636
    25  H    0.019323   0.128888
    26  H    0.000698   0.144841
    27  H   -0.494985   0.640122
    28  H   -0.091301   0.274860
    29  H   -0.041378   0.176899
    30  H   -0.529983   0.747165
    31  H   -0.057122   0.207412
    32  H    0.219964   0.004370
    33  H    0.065525   0.093229
    34  H   -0.075653   0.196071
    35  H    0.106733   0.093580
    36  H   -0.146790   0.304929
    37  H   -0.094291   0.271954
    38  H   -0.057461   0.183270
    39  H   -0.144528   0.375005
    40  H    0.163059   0.048560
 Sum of Mulliken charges =  -1.00000   1.00000

 Dipole moment (field-independent basis, Debye):
    X=              0.3803    Y=              2.2234    Z=             -0.4880  Tot=              2.3079
 Quadrupole moment (field-independent basis, Debye-Ang):
   XX=           -218.6545   YY=           -162.5860   ZZ=           -144.6433
   XY=             -5.7843   XZ=             -3.0587   YZ=              3.1789

 Summary of Natural Population Analysis:

                                       Natural Population
                Natural  -----------------------------------------------
    Atom  No    Charge         Core      Valence    Rydberg      Total
 -----------------------------------------------------------------------
      C    1   -0.27945      0.99963     2.27401    0.00582     3.27945
      C    2   -0.05527      0.99955     2.04419    0.01153     3.05527
      C    3   -0.28437      0.99964     2.27705    0.00768     3.28437
      C    4   -0.27824      0.99963     2.27304    0.00557     3.27824
      C    5    0.08195      0.99940     1.90206    0.01659     2.91805
      C    6   -0.12015      0.99943     2.10879    0.01194     3.12015
      S    7    0.16807      4.99943     2.81560    0.01689     7.83193
      C    8    0.15797      0.99957     1.82326    0.01920     2.84203
      N    9   -0.29473      0.99962     2.78461    0.01049     3.79473
      N   10   -0.25312      0.99960     2.74134    0.01217     3.75312
      C   11   -0.17563      0.99964     2.16801    0.00798     3.17563
      C   12    0.00065      0.99957     1.98427    0.01551     2.99935
      C   13   -0.19342      0.99962     2.18542    0.00838     3.19342
      C   14   -0.19186      0.99965     2.18427    0.00793     3.19186
      C   15   -0.19572      0.99962     2.18793    0.00817     3.19572
      C   16   -0.10654      0.99957     2.09438    0.01260     3.10654
      N   17   -0.41814      0.99977     2.90798    0.01039     3.91814
      H   18    0.09525      0.00000     0.40393    0.00082     0.40475
      H   19    0.10790      0.00000     0.39103    0.00107     0.39210
      H   20    0.09947      0.00000     0.39966    0.00086     0.40053
      H   21    0.10021      0.00000     0.39889    0.00090     0.39979
      H   22    0.09990      0.00000     0.39837    0.00172     0.40010
      H   23    0.10057      0.00000     0.39828    0.00115     0.39943
      H   24    0.10616      0.00000     0.39278    0.00107     0.39384
      H   25    0.09911      0.00000     0.39995    0.00094     0.40089
      H   26    0.09552      0.00000     0.40365    0.00083     0.40448
      H   27    0.10479      0.00000     0.39353    0.00169     0.39521
      H   28    0.09308      0.00000     0.40563    0.00129     0.40692
      H   29    0.09862      0.00000     0.39999    0.00139     0.40138
      H   30    0.10061      0.00000     0.39703    0.00236     0.39939
      H   31    0.09382      0.00000     0.40512    0.00107     0.40618
      H   32    0.11158      0.00000     0.38661    0.00181     0.38842
      H   33    0.09599      0.00000     0.40324    0.00077     0.40401
      H   34    0.09502      0.00000     0.40379    0.00119     0.40498
      H   35    0.10931      0.00000     0.38901    0.00167     0.39069
      H   36    0.09517      0.00000     0.40371    0.00113     0.40483
      H   37    0.09441      0.00000     0.40433    0.00125     0.40559
      H   38    0.09401      0.00000     0.40394    0.00205     0.40599
      H   39    0.17466      0.00000     0.32262    0.00272     0.32534
      H   40    0.17285      0.00000     0.32503    0.00212     0.32715
 =======================================================================
   * Total *    0.00000     20.99293    47.78635    0.22072    69.00000

 Normal termination of Gaussian 16 at Fri Dec 11 14:34:42 2020.
