 Gaussian 16, Revision A.03,

 -----------------------------------------------------------
 # opt freq B3LYP/6-31G(d) empiricaldispersion=gd3bj scf=xqc
 -----------------------------------------------------------

 -------------------------------
 CID_104930854_JID_5737_neutraal
 -------------------------------
 Symbolic Z-matrix:
 Charge =  0 Multiplicity = 1

 SCF Done:  E(RB3LYP) =  -705.981719205     A.U. after   14 cycles
 SCF Done:  E(RB3LYP) =  -705.986032945     A.U. after   12 cycles
 SCF Done:  E(RB3LYP) =  -705.985717375     A.U. after   12 cycles
 SCF Done:  E(RB3LYP) =  -705.987018461     A.U. after   10 cycles
 SCF Done:  E(RB3LYP) =  -705.987207237     A.U. after   10 cycles
 SCF Done:  E(RB3LYP) =  -705.987279751     A.U. after   11 cycles
 SCF Done:  E(RB3LYP) =  -705.987313217     A.U. after   10 cycles
 SCF Done:  E(RB3LYP) =  -705.987330875     A.U. after    9 cycles
 SCF Done:  E(RB3LYP) =  -705.987336573     A.U. after    8 cycles
 SCF Done:  E(RB3LYP) =  -705.987337826     A.U. after    8 cycles
 SCF Done:  E(RB3LYP) =  -705.987338332     A.U. after    8 cycles
 SCF Done:  E(RB3LYP) =  -705.987338421     A.U. after    7 cycles
 SCF Done:  E(RB3LYP) =  -705.987338448     A.U. after    6 cycles
 SCF Done:  E(RB3LYP) =  -705.987338466     A.U. after    6 cycles
 Optimization completed.
    -- Stationary point found.
 Normal termination of Gaussian 16 at Thu Dec 10 16:40:33 2020.

 --------------------------------------------------------------------
 #N Geom=AllCheck Guess=TCheck SCRF=Check GenChk RB3LYP/6-31G(d) Freq
 --------------------------------------------------------------------

 Structure from the checkpoint file:  "JID_5737.chk"
 -------------------------------
 CID_104930854_JID_5737_neutraal
 -------------------------------
 Charge =  0 Multiplicity = 1

 SCF Done:  E(RB3LYP) =  -705.987338466     A.U. after    1 cycles

  Exact polarizability: 164.938  -4.143 120.510   9.444   1.382  95.497
 Approx polarizability: 206.749 -11.819 187.545  19.610   2.656 149.765

                      1                      2                      3
                      A                      A                      A
 Frequencies --     34.1906                55.3636                72.8761
 Red. masses --      4.8792                 3.8463                 3.5530
 Frc consts  --      0.0034                 0.0069                 0.0111
 IR Inten    --      0.0835                 0.6280                 0.6111

                      4                      5                      6
                      A                      A                      A
 Frequencies --     88.4994                97.4017               124.1088
 Red. masses --      3.4369                 4.1042                 5.7626
 Frc consts  --      0.0159                 0.0229                 0.0523
 IR Inten    --      0.4538                 0.6607                 5.3399

                      7                      8                      9
                      A                      A                      A
 Frequencies --    151.0478               211.0863               223.8982
 Red. masses --      3.1999                 3.8815                 1.1165
 Frc consts  --      0.0430                 0.1019                 0.0330
 IR Inten    --      0.2180                 0.0575                 0.5230

                     10                     11                     12
                      A                      A                      A
 Frequencies --    238.3816               284.1690               289.3934
 Red. masses --      2.6427                 3.3515                 4.0970
 Frc consts  --      0.0885                 0.1595                 0.2022
 IR Inten    --      3.2532                 1.0403                 1.0457

                     13                     14                     15
                      A                      A                      A
 Frequencies --    350.0789               367.4833               395.5515
 Red. masses --      2.7369                 2.3948                 3.8700
 Frc consts  --      0.1976                 0.1905                 0.3568
 IR Inten    --     11.3761                18.1560                 4.1803

                     16                     17                     18
                      A                      A                      A
 Frequencies --    409.6049               415.5057               436.1606
 Red. masses --      1.4019                 1.7618                 3.5533
 Frc consts  --      0.1386                 0.1792                 0.3983
 IR Inten    --     79.5423                 5.8368                 8.5675

                     19                     20                     21
                      A                      A                      A
 Frequencies --    494.3775               532.4249               572.1236
 Red. masses --      2.7855                 2.7598                 3.8125
 Frc consts  --      0.4011                 0.4609                 0.7353
 IR Inten    --     18.8803                36.4767                14.7685

                     22                     23                     24
                      A                      A                      A
 Frequencies --    593.9442               632.1165               693.8962
 Red. masses --      3.0581                 2.9300                 3.3516
 Frc consts  --      0.6356                 0.6898                 0.9508
 IR Inten    --     13.4118                21.7544                 9.8060

                     25                     26                     27
                      A                      A                      A
 Frequencies --    713.0893               721.1863               757.1947
 Red. masses --      2.6045                 3.3794                 2.3286
 Frc consts  --      0.7803                 1.0356                 0.7866
 IR Inten    --     17.3023                 2.9806                18.0997

                     28                     29                     30
                      A                      A                      A
 Frequencies --    775.4994               786.4962               855.1551
 Red. masses --      4.4029                 1.1800                 1.4582
 Frc consts  --      1.5601                 0.4300                 0.6283
 IR Inten    --     18.9395                 0.8151                11.5257

                     31                     32                     33
                      A                      A                      A
 Frequencies --    863.6219               881.8353               913.1855
 Red. masses --      2.4471                 2.1924                 1.9420
 Frc consts  --      1.0754                 1.0045                 0.9542
 IR Inten    --     14.2345                 5.7053                12.6532

                     34                     35                     36
                      A                      A                      A
 Frequencies --    947.7335               949.5826               969.6934
 Red. masses --      4.3434                 2.6532                 2.1072
 Frc consts  --      2.2986                 1.4095                 1.1674
 IR Inten    --     96.4026                 7.0659                 2.8135

                     37                     38                     39
                      A                      A                      A
 Frequencies --    992.7175              1032.0250              1046.0775
 Red. masses --      3.1866                 1.9096                 1.6618
 Frc consts  --      1.8502                 1.1983                 1.0714
 IR Inten    --    106.8845                 9.4893                 8.2703

                     40                     41                     42
                      A                      A                      A
 Frequencies --   1054.7470              1072.0449              1086.0196
 Red. masses --      2.0008                 1.5266                 1.3654
 Frc consts  --      1.3115                 1.0337                 0.9488
 IR Inten    --     33.7862                 9.7125                 3.3924

                     43                     44                     45
                      A                      A                      A
 Frequencies --   1097.0103              1113.7612              1147.5726
 Red. masses --      1.9237                 1.8674                 1.1207
 Frc consts  --      1.3640                 1.3648                 0.8696
 IR Inten    --     10.7543                 5.4302                 6.2002

                     46                     47                     48
                      A                      A                      A
 Frequencies --   1167.3575              1201.2318              1208.9104
 Red. masses --      1.9246                 2.8947                 1.4914
 Frc consts  --      1.5453                 2.4610                 1.2842
 IR Inten    --      1.4311                 2.0018                 4.5272

                     49                     50                     51
                      A                      A                      A
 Frequencies --   1213.7519              1234.9485              1265.3538
 Red. masses --      1.9621                 1.2818                 1.6946
 Frc consts  --      1.7031                 1.1518                 1.5986
 IR Inten    --      5.0951                40.8298                52.0093

                     52                     53                     54
                      A                      A                      A
 Frequencies --   1283.3522              1297.6599              1319.9353
 Red. masses --      2.3167                 1.6247                 1.8748
 Frc consts  --      2.2481                 1.6120                 1.9245
 IR Inten    --     24.4655                21.8862                17.3607

                     55                     56                     57
                      A                      A                      A
 Frequencies --   1339.5102              1368.7540              1374.0609
 Red. masses --      1.5658                 1.4912                 1.4169
 Frc consts  --      1.6553                 1.6461                 1.5762
 IR Inten    --    133.4158               149.5479                 0.7869

                     58                     59                     60
                      A                      A                      A
 Frequencies --   1392.6098              1415.1555              1416.0910
 Red. masses --      1.2952                 1.3862                 1.3713
 Frc consts  --      1.4800                 1.6357                 1.6202
 IR Inten    --     27.1258                11.4477                23.4345

                     61                     62                     63
                      A                      A                      A
 Frequencies --   1437.5181              1443.6622              1457.7973
 Red. masses --      1.4314                 1.2463                 1.5709
 Frc consts  --      1.7427                 1.5305                 1.9669
 IR Inten    --     17.4102                 7.5908               119.8346

                     64                     65                     66
                      A                      A                      A
 Frequencies --   1485.6222              1492.2814              1498.5827
 Red. masses --      1.9262                 1.0962                 1.1026
 Frc consts  --      2.5047                 1.4382                 1.4590
 IR Inten    --    168.1277                 0.8723                 8.2176

                     67                     68                     69
                      A                      A                      A
 Frequencies --   1501.9810              1520.0603              1523.9795
 Red. masses --      1.1078                 1.0617                 1.1591
 Frc consts  --      1.4724                 1.4454                 1.5861
 IR Inten    --     21.2448                18.9128                16.8655

                     70                     71                     72
                      A                      A                      A
 Frequencies --   1530.1215              1532.9980              1742.0042
 Red. masses --      1.0864                 1.3474                 7.4205
 Frc consts  --      1.4987                 1.8656                13.2674
 IR Inten    --      8.6774                19.6257                 9.2970

                     73                     74                     75
                      A                      A                      A
 Frequencies --   1764.1606              3036.5451              3038.7397
 Red. masses --      7.1991                 1.0715                 1.0713
 Frc consts  --     13.2009                 5.8208                 5.8282
 IR Inten    --    334.8668                15.8385                25.1956

                     76                     77                     78
                      A                      A                      A
 Frequencies --   3049.1218              3065.2163              3106.3880
 Red. masses --      1.0695                 1.0356                 1.0851
 Frc consts  --      5.8585                 5.7326                 6.1693
 IR Inten    --     46.3959                21.1509                 4.6702

                     79                     80                     81
                      A                      A                      A
 Frequencies --   3116.1340              3124.4415              3135.0260
 Red. masses --      1.0967                 1.0877                 1.1036
 Frc consts  --      6.2745                 6.2561                 6.3908
 IR Inten    --     19.5880                32.8119                21.8361

                     82                     83                     84
                      A                      A                      A
 Frequencies --   3147.5062              3151.2328              3161.6539
 Red. masses --      1.1007                 1.0535                 1.0929
 Frc consts  --      6.4245                 6.1640                 6.4368
 IR Inten    --     24.5271                15.0098                 3.9488

                     85                     86                     87
                      A                      A                      A
 Frequencies --   3162.9771              3195.5135              3231.7522
 Red. masses --      1.0580                 1.0899                 1.1196
 Frc consts  --      6.2363                 6.5575                 6.8897
 IR Inten    --      6.9598                11.3889                 4.9493

                     88                     89                     90
                      A                      A                      A
 Frequencies --   3250.0679              3586.5742              3764.4462
 Red. masses --      1.1162                 1.0751                 1.0676
 Frc consts  --      6.9464                 8.1485                 8.9142
 IR Inten    --     12.6412                26.0354                72.9108

 - Thermochemistry -
 -------------------
 Temperature   298.150 Kelvin.  Pressure   1.00000 Atm.
 Atom     1 has atomic number  6 and mass  12.00000

 Molecular mass:   211.13208 amu.
 Principal axes and moments of inertia in atomic units:
                           1         2         3
     Eigenvalues --  1329.228225389.031376037.90153
           X            0.99983   0.01816  -0.00270
           Y           -0.01817   0.99983  -0.00132
           Z            0.00268   0.00137   1.00000
 This molecule is an asymmetric top.
 Rotational symmetry number  1.
 Warning -- assumption of classical behavior for rotation
           may cause significant error
 Rotational temperatures (Kelvin)      0.06516     0.01607     0.01435
 Rotational constants (GHZ):           1.35774     0.33489     0.29890
 Zero-point vibrational energy     725491.6 (Joules/Mol)
                                  173.39665 (Kcal/Mol)
 Warning -- explicit consideration of  22 degrees of freedom as
           vibrations may cause significant error
 Vibrational temperatures:     49.19    79.66   104.85   127.33   140.14
          (Kelvin)            178.56   217.32   303.71   322.14   342.98
                              408.86   416.37   503.69   528.73   569.11
                              589.33   597.82   627.54   711.30   766.04
                              823.16   854.55   909.47   998.36  1025.98
                             1037.63  1089.43  1115.77  1131.59  1230.38
                             1242.56  1268.76  1313.87  1363.58  1366.24
                             1395.17  1428.30  1484.85  1505.07  1517.55
                             1542.43  1562.54  1578.35  1602.45  1651.10
                             1679.57  1728.30  1739.35  1746.32  1776.82
                             1820.56  1846.46  1867.04  1899.09  1927.26
                             1969.33  1976.97  2003.65  2036.09  2037.44
                             2068.27  2077.11  2097.45  2137.48  2147.06
                             2156.13  2161.02  2187.03  2192.67  2201.50
                             2205.64  2506.36  2538.23  4368.91  4372.07
                             4387.01  4410.16  4469.40  4483.42  4495.37
                             4510.60  4528.56  4533.92  4548.91  4550.82
                             4597.63  4649.77  4676.12  5160.28  5416.20

 Zero-point correction=                           0.276325 (Hartree/Particle)
 Thermal correction to Energy=                    0.291154
 Thermal correction to Enthalpy=                  0.292098
 Thermal correction to Gibbs Free Energy=         0.234008
 Sum of electronic and zero-point Energies=           -705.711013
 Sum of electronic and thermal Energies=              -705.696185
 Sum of electronic and thermal Enthalpies=            -705.695241
 Sum of electronic and thermal Free Energies=         -705.753330

                     E (Thermal)             CV                S
                      KCal/Mol        Cal/Mol-Kelvin    Cal/Mol-Kelvin
 Total                  182.702             56.749            122.259
 Electronic               0.000              0.000              0.000
 Translational            0.889              2.981             41.946
 Rotational               0.889              2.981             32.136
 Vibrational            180.924             50.787             48.177
 Vibration     1          0.594              1.983              5.570
 Vibration     2          0.596              1.975              4.616
 Vibration     3          0.599              1.967              4.074
 Vibration     4          0.601              1.957              3.693
 Vibration     5          0.603              1.951              3.506
 Vibration     6          0.610              1.929              3.035
 Vibration     7          0.618              1.902              2.659
 Vibration     8          0.643              1.824              2.034
 Vibration     9          0.649              1.805              1.927
 Vibration    10          0.656              1.782              1.815
 Vibration    11          0.683              1.703              1.508
 Vibration    12          0.686              1.693              1.478
 Vibration    13          0.727              1.575              1.166
 Vibration    14          0.740              1.539              1.090
 Vibration    15          0.762              1.480              0.979
 Vibration    16          0.774              1.449              0.928
 Vibration    17          0.779              1.437              0.907
 Vibration    18          0.797              1.391              0.839
 Vibration    19          0.850              1.262              0.672
 Vibration    20          0.887              1.178              0.582
 Vibration    21          0.928              1.092              0.500
 Vibration    22          0.952              1.045              0.460

                           ! Non-Optimized Parameters !
 Normal termination of Gaussian 16 at Thu Dec 10 16:51:47 2020.

 ----------------------------------------------------------------------
 # B3LYP/6-311++G(d,p) empiricaldispersion=gd3bj scf=xqc pop=npa geom=c
 heck
 ----------------------------------------------------------------------

 ---------------------------------------
 CID_104930854_JID_5737_Energie_neutraal
 ---------------------------------------
 Structure from the checkpoint file:  "JID_5737.chk"
 Charge =  0 Multiplicity = 1

 SCF Done:  E(RB3LYP) =  -706.197825781     A.U. after   14 cycles
 Normal termination of Gaussian 16 at Thu Dec 10 16:57:13 2020.

 ----------------------------------------------------------------------
 # B3LYP/6-311++G(d,p) empiricaldispersion=gd3bj scf=xqc pop=npa geom=c
 heck
 ----------------------------------------------------------------------

 -------------------------------------
 CID_104930854_JID_5737_Energie_kation
 -------------------------------------
 Structure from the checkpoint file:  "JID_5737.chk"
 Charge =  1 Multiplicity = 2

 SCF Done:  E(UB3LYP) =  -705.893796619     A.U. after   29 cycles
 Normal termination of Gaussian 16 at Thu Dec 10 17:17:12 2020.
 Gaussian 16:  ES64L-G16RevA.03 25-Dec-2016

 ----------------------------------------------------------------------
 # B3LYP/6-311++G(d,p) empiricaldispersion=gd3bj scf=xqc pop=npa geom=c
 heck
 ----------------------------------------------------------------------

 ------------------------------------
 CID_104930854_JID_5737_Energie_anion
 ------------------------------------
 Structure from the checkpoint file:  "JID_5737.chk"
 Charge = -1 Multiplicity = 2

                         Standard orientation:
 ---------------------------------------------------------------------
 Center     Atomic      Atomic             Coordinates (Angstroms)
 Number     Number       Type             X           Y           Z
 ---------------------------------------------------------------------
      1          6           0        2.044697    1.891272   -0.548521
      2          6           0        2.027191    0.720377    0.450347
      3          6           0        0.684747    0.605571    1.208457
      4          7           0       -0.404480    0.085353    0.385296
      5          6           0       -0.125928   -1.227278   -0.189676
      6          6           0        1.159812   -1.188323   -1.037348
      7          6           0        2.299597   -0.589498   -0.254645
      8          7           0        3.397898   -1.248708   -0.247000
      9          8           0        4.406559   -0.595351    0.501090
     10          6           0       -1.290556    0.995352   -0.159271
     11          8           0       -1.146165    2.211731   -0.053044
     12          7           0       -2.384623    0.476293   -0.850670
     13          6           0       -3.155667   -0.683093   -0.480410
     14          6           0       -3.306117   -1.069341    0.969018
     15          6           0       -4.476839   -0.482936    0.225431
     16          1           0        1.866460    2.835795   -0.026046
     17          1           0        1.262192    1.791889   -1.305258
     18          1           0        3.015800    1.943583   -1.051267
     19          1           0        2.814456    0.882744    1.190973
     20          1           0        0.813476   -0.080898    2.055968
     21          1           0        0.382103    1.581085    1.588630
     22          1           0       -0.962388   -1.555236   -0.801214
     23          1           0       -0.008544   -1.949104    0.629397
     24          1           0        0.962093   -0.571984   -1.924993
     25          1           0        1.433002   -2.191618   -1.377748
     26          1           0        5.143867   -1.218803    0.417883
     27          1           0       -2.927213    1.246474   -1.222398
     28          1           0       -3.121150   -1.502105   -1.198488
     29          1           0       -3.316412   -2.128334    1.209629
     30          1           0       -2.804416   -0.446406    1.701466
     31          1           0       -4.758708    0.538976    0.463603
     32          1           0       -5.304944   -1.130288   -0.048180
 ---------------------------------------------------------------------

 SCF Done:  E(UB3LYP) =  -706.184744675     A.U. after   33 cycles
 SCF Done:  E(UB3LYP) =  -706.184744675     a.u. after    1 cycles

 The electronic state is 2-A.
 Alpha  occ. eigenvalues --  -19.06471 -18.98874 -14.26357 -14.24489 -14.23696
 Alpha  occ. eigenvalues --  -10.20100 -10.12008 -10.11753 -10.11524 -10.11304
 Alpha  occ. eigenvalues --  -10.09328 -10.08634 -10.08412 -10.08240 -10.07195
 Alpha  occ. eigenvalues --   -0.98302  -0.95633  -0.85342  -0.83319  -0.78216
 Alpha  occ. eigenvalues --   -0.74602  -0.69744  -0.67294  -0.60751  -0.56822
 Alpha  occ. eigenvalues --   -0.54051  -0.52507  -0.51706  -0.48479  -0.44883
 Alpha  occ. eigenvalues --   -0.43315  -0.41687  -0.40242  -0.39811  -0.38963
 Alpha  occ. eigenvalues --   -0.37358  -0.36151  -0.35012  -0.34448  -0.32850
 Alpha  occ. eigenvalues --   -0.32198  -0.31488  -0.31019  -0.29440  -0.28780
 Alpha  occ. eigenvalues --   -0.28398  -0.27856  -0.26574  -0.26147  -0.24990
 Alpha  occ. eigenvalues --   -0.23374  -0.21061  -0.18520  -0.17908  -0.16931
 Alpha  occ. eigenvalues --   -0.15636  -0.14508   0.04326
 Alpha virt. eigenvalues --    0.05753   0.07445   0.07558   0.07773   0.08334
 Alpha virt. eigenvalues --    0.09188   0.09299   0.10183   0.10508   0.10958
 Alpha virt. eigenvalues --    0.11590   0.11766   0.12583   0.12833   0.13396

  Beta  occ. eigenvalues --  -19.06435 -18.98873 -14.26327 -14.24487 -14.23691
  Beta  occ. eigenvalues --  -10.20100 -10.11982 -10.11755 -10.11503 -10.11296
  Beta  occ. eigenvalues --  -10.09318 -10.08623 -10.08388 -10.08216 -10.07191
  Beta  occ. eigenvalues --   -0.98230  -0.95630  -0.85333  -0.83297  -0.78162
  Beta  occ. eigenvalues --   -0.74569  -0.69721  -0.67257  -0.60736  -0.56785
  Beta  occ. eigenvalues --   -0.54019  -0.52461  -0.51642  -0.48446  -0.44825
  Beta  occ. eigenvalues --   -0.43274  -0.41638  -0.40201  -0.39739  -0.38935
  Beta  occ. eigenvalues --   -0.37331  -0.36122  -0.34988  -0.34431  -0.32826
  Beta  occ. eigenvalues --   -0.32176  -0.31467  -0.30979  -0.29410  -0.28753
  Beta  occ. eigenvalues --   -0.28377  -0.27819  -0.26548  -0.26122  -0.24969
  Beta  occ. eigenvalues --   -0.23344  -0.21025  -0.18481  -0.17867  -0.16892
  Beta  occ. eigenvalues --   -0.15617  -0.14481
  Beta virt. eigenvalues --    0.06611   0.07108   0.07904   0.07983   0.08175
  Beta virt. eigenvalues --    0.08670   0.09484   0.09520   0.10444   0.10931
  Beta virt. eigenvalues --    0.11174   0.11898   0.11988   0.12714   0.12864

 Mulliken charges and spin densities:
               1          2
     1  C   -0.466752  -0.206480
     2  C    0.244466   0.245242
     3  C    0.027140  -0.554691
     4  N    0.013811   0.061577
     5  C   -0.656673   0.549103
     6  C    1.081456  -1.706290
     7  C   -0.831303   0.593804
     8  N   -0.247979   0.024262
     9  O   -0.071098  -0.010300
    10  C    0.719791  -0.728499
    11  O   -0.368024   0.022722
    12  N   -0.182512  -0.034081
    13  C   -1.402979   1.354392
    14  C    0.556328  -0.801556
    15  C    1.651045  -2.206567
    16  H    0.154989  -0.011814
    17  H    0.163385   0.026366
    18  H    0.036306   0.112659
    19  H    0.229025   0.038971
    20  H   -0.078469   0.237408
    21  H    0.218113  -0.011724
    22  H    0.365493  -0.205076
    23  H   -0.236620   0.411613
    24  H   -0.073174   0.238002
    25  H   -0.123009   0.352871
    26  H   -0.134929   0.409166
    27  H    0.226491   0.070727
    28  H   -1.257585   1.523256
    29  H   -0.463259   0.646670
    30  H    0.166726  -0.003982
    31  H    0.016509   0.124538
    32  H   -0.276708   0.437711
 Sum of Mulliken charges =  -1.00000   1.00000

 Dipole moment (field-independent basis, Debye):
    X=              1.9425    Y=              5.9348    Z=              1.1295  Tot=              6.3460
 Quadrupole moment (field-independent basis, Debye-Ang):
   XX=           -184.7403   YY=           -141.8960   ZZ=           -118.8414
   XY=            -11.7459   XZ=             -4.8899   YZ=             -2.5344

 Summary of Natural Population Analysis:

                                       Natural Population
                Natural  -----------------------------------------------
    Atom  No    Charge         Core      Valence    Rydberg      Total
 -----------------------------------------------------------------------
      C    1   -0.28083      0.99964     2.27598    0.00521     3.28083
      C    2   -0.14439      0.99954     2.13450    0.01034     3.14439
      C    3   -0.08078      0.99960     2.06944    0.01173     3.08078
      N    4   -0.27004      0.99964     2.76004    0.01036     3.77004
      C    5   -0.08069      0.99960     2.06991    0.01119     3.08069
      C    6   -0.21166      0.99957     2.20251    0.00958     3.21166
      C    7    0.12309      0.99956     1.85816    0.01919     2.87691
      N    8   -0.08554      0.99958     2.57179    0.01417     3.58554
      O    9   -0.29316      0.99990     3.28652    0.00674     4.29316
      C   10    0.41377      0.99965     1.56331    0.02327     2.58623
      O   11   -0.34443      0.99988     3.33965    0.00490     4.34443
      N   12   -0.33366      0.99967     2.82359    0.01040     3.83366
      C   13   -0.03007      0.99957     2.01538    0.01512     3.03007
      C   14   -0.19732      0.99961     2.18765    0.01006     3.19732
      C   15   -0.19566      0.99961     2.18672    0.00933     3.19566
      H   16    0.10220      0.00000     0.39704    0.00075     0.39780
      H   17    0.10258      0.00000     0.39642    0.00100     0.39742
      H   18    0.10033      0.00000     0.39884    0.00084     0.39967
      H   19    0.11551      0.00000     0.38297    0.00152     0.38449
      H   20    0.09561      0.00000     0.40326    0.00113     0.40439
      H   21    0.11370      0.00000     0.38529    0.00101     0.38630
      H   22    0.11167      0.00000     0.38619    0.00214     0.38833
      H   23    0.09526      0.00000     0.40297    0.00178     0.40474
      H   24    0.10431      0.00000     0.39427    0.00143     0.39569
      H   25    0.11364      0.00000     0.38467    0.00169     0.38636
      H   26    0.23649      0.00000     0.25481    0.00870     0.26351
      H   27    0.19261      0.00000     0.30508    0.00230     0.30739
      H   28    0.10319      0.00000     0.39231    0.00450     0.39681
      H   29    0.10995      0.00000     0.38771    0.00235     0.39005
      H   30    0.10550      0.00000     0.39318    0.00132     0.39450
      H   31    0.10056      0.00000     0.39850    0.00095     0.39944
      H   32    0.10826      0.00000     0.38979    0.00195     0.39174
 =======================================================================
   * Total *   -0.00000     14.99464    41.79843    0.20693    57.00000

 Normal termination of Gaussian 16 at Thu Dec 10 17:37:47 2020.
