 Gaussian 16, Revision A.03,

 -----------------------------------------------------------
 # opt freq B3LYP/6-31G(d) empiricaldispersion=gd3bj scf=xqc
 -----------------------------------------------------------

 -------------------------------
 CID_130678870_JID_1446_neutraal
 -------------------------------
 Symbolic Z-matrix:
 Charge =  0 Multiplicity = 1

 SCF Done:  E(RB3LYP) =  -532.697229531     A.U. after   15 cycles
 SCF Done:  E(RB3LYP) =  -532.699410730     A.U. after   13 cycles
 SCF Done:  E(RB3LYP) =  -532.695485023     A.U. after   14 cycles
 SCF Done:  E(RB3LYP) =  -532.700300879     A.U. after   13 cycles
 SCF Done:  E(RB3LYP) =  -532.700168333     A.U. after   13 cycles
 SCF Done:  E(RB3LYP) =  -532.700531211     A.U. after   12 cycles
 SCF Done:  E(RB3LYP) =  -532.700309369     A.U. after   12 cycles
 SCF Done:  E(RB3LYP) =  -532.700456578     A.U. after   12 cycles
 SCF Done:  E(RB3LYP) =  -532.700591088     A.U. after    8 cycles
 SCF Done:  E(RB3LYP) =  -532.700641018     A.U. after   11 cycles
 SCF Done:  E(RB3LYP) =  -532.700678140     A.U. after    8 cycles
 SCF Done:  E(RB3LYP) =  -532.700678688     A.U. after    8 cycles
 SCF Done:  E(RB3LYP) =  -532.700679296     A.U. after    9 cycles
 SCF Done:  E(RB3LYP) =  -532.700679640     A.U. after    8 cycles
 SCF Done:  E(RB3LYP) =  -532.700679723     A.U. after    8 cycles
 Optimization completed.
    -- Stationary point found.
 Normal termination of Gaussian 16 at Tue Dec  8 20:05:29 2020.

 --------------------------------------------------------------------
 #N Geom=AllCheck Guess=TCheck SCRF=Check GenChk RB3LYP/6-31G(d) Freq
 --------------------------------------------------------------------

 Structure from the checkpoint file:  "JID_1446.chk"
 -------------------------------
 CID_130678870_JID_1446_neutraal
 -------------------------------
 Charge =  0 Multiplicity = 1

 SCF Done:  E(RB3LYP) =  -532.700679723     A.U. after    1 cycles

  Exact polarizability:  98.984   3.787  94.697  -1.051  14.473  65.845
 Approx polarizability: 131.361   4.745 156.909  -2.692  38.672 102.474

                      1                      2                      3
                      A                      A                      A
 Frequencies --     42.3166                61.2853                68.1285
 Red. masses --      4.1950                 6.5090                 6.8574
 Frc consts  --      0.0044                 0.0144                 0.0188
 IR Inten    --      3.0653                 2.7399                 2.7957

                      4                      5                      6
                      A                      A                      A
 Frequencies --     81.9923               126.0140               170.6313
 Red. masses --      2.5775                 2.3864                 1.5304
 Frc consts  --      0.0102                 0.0223                 0.0263
 IR Inten    --      5.0689                18.8925               181.3935

                      7                      8                      9
                      A                      A                      A
 Frequencies --    180.4761               213.2397               260.1813
 Red. masses --      4.9491                 1.7580                 1.5342
 Frc consts  --      0.0950                 0.0471                 0.0612
 IR Inten    --     10.5235                23.0785                 0.6895

                     10                     11                     12
                      A                      A                      A
 Frequencies --    268.0822               310.8121               329.9496
 Red. masses --      4.8078                 3.6138                 4.5428
 Frc consts  --      0.2036                 0.2057                 0.2914
 IR Inten    --      2.9666                 1.0304                14.1687

                     13                     14                     15
                      A                      A                      A
 Frequencies --    378.1438               402.0190               569.1643
 Red. masses --      3.2492                 5.7482                 2.3612
 Frc consts  --      0.2737                 0.5474                 0.4507
 IR Inten    --      1.7706                 6.2519                19.5568

                     16                     17                     18
                      A                      A                      A
 Frequencies --    592.5160               613.8474               636.8462
 Red. masses --      1.5239                 3.3599                 1.3199
 Frc consts  --      0.3152                 0.7459                 0.3154
 IR Inten    --     15.3663                 7.3517                54.3790

                     19                     20                     21
                      A                      A                      A
 Frequencies --    643.8325               659.3794               659.9584
 Red. masses --      1.2565                 1.5707                 2.8647
 Frc consts  --      0.3069                 0.4024                 0.7351
 IR Inten    --     75.1983                15.4382                 5.0671

                     22                     23                     24
                      A                      A                      A
 Frequencies --    747.9087               750.3640               766.7445
 Red. masses --      4.4362                 4.0662                 1.6917
 Frc consts  --      1.4620                 1.3489                 0.5860
 IR Inten    --     11.9401                46.8942                12.7240

                     25                     26                     27
                      A                      A                      A
 Frequencies --    826.5336               887.4175               925.7663
 Red. masses --      3.6702                 1.8499                 1.8416
 Frc consts  --      1.4773                 0.8583                 0.9299
 IR Inten    --     17.3650                 3.4019                 3.9555

                     28                     29                     30
                      A                      A                      A
 Frequencies --   1047.6908              1093.9938              1124.1176
 Red. masses --      2.5833                 1.7474                 2.1736
 Frc consts  --      1.6707                 1.2322                 1.6183
 IR Inten    --      0.6681                 6.9921                 1.7592

                     31                     32                     33
                      A                      A                      A
 Frequencies --   1129.6650              1183.0303              1271.8858
 Red. masses --      1.8600                 3.3247                 1.4519
 Frc consts  --      1.3985                 2.7415                 1.3839
 IR Inten    --      2.5951                15.9662                15.7243

                     34                     35                     36
                      A                      A                      A
 Frequencies --   1311.5055              1341.9849              1359.9640
 Red. masses --      1.3166                 1.5731                 2.1336
 Frc consts  --      1.3343                 1.6691                 2.3249
 IR Inten    --     18.6794                34.2345               178.5760

                     37                     38                     39
                      A                      A                      A
 Frequencies --   1387.0737              1414.6794              1442.5244
 Red. masses --      1.3996                 2.6023                 1.2406
 Frc consts  --      1.5865                 3.0685                 1.5210
 IR Inten    --     14.2879               194.7053                 2.9525

                     40                     41                     42
                      A                      A                      A
 Frequencies --   1492.7633              1516.8601              1531.9156
 Red. masses --      1.8319                 1.1115                 1.0423
 Frc consts  --      2.4051                 1.5068                 1.4412
 IR Inten    --     33.8912                 7.4707                 3.5881

                     43                     44                     45
                      A                      A                      A
 Frequencies --   1538.9484              1646.3619              1768.6262
 Red. masses --      1.0597                 1.2622                10.1600
 Frc consts  --      1.4787                 2.0158                18.7247
 IR Inten    --      7.2884               114.2720               548.9556

                     46                     47                     48
                      A                      A                      A
 Frequencies --   1805.7573              2223.6460              3044.0903
 Red. masses --      8.5286                 5.9610                 1.0419
 Frc consts  --     16.3849                17.3661                 5.6885
 IR Inten    --    217.7884                30.4304                19.2237

                     49                     50                     51
                      A                      A                      A
 Frequencies --   3061.3313              3070.6600              3100.8131
 Red. masses --      1.0675                 1.0761                 1.0991
 Frc consts  --      5.8942                 5.9784                 6.2266
 IR Inten    --      1.3057                30.8637                 2.7341

                     52                     53                     54
                      A                      A                      A
 Frequencies --   3117.7263              3132.8527              3490.9987
 Red. masses --      1.1010                 1.1027                 1.1602
 Frc consts  --      6.3053                 6.3765                 8.3307
 IR Inten    --     37.3887                27.8922                48.9541

                     55                     56                     57
                      A                      A                      A
 Frequencies --   3574.4465              3594.0718              3723.1576
 Red. masses --      1.0757                 1.0455                 1.1052
 Frc consts  --      8.0979                 7.9571                 9.0264
 IR Inten    --    100.5781                42.3573                35.0892

 - Thermochemistry -
 -------------------
 Temperature   298.150 Kelvin.  Pressure   1.00000 Atm.
 Atom     1 has atomic number  6 and mass  12.00000

 Molecular mass:   154.07423 amu.
 Principal axes and moments of inertia in atomic units:
                           1         2         3
     Eigenvalues --  1185.836182416.848913042.70266
           X            0.99988  -0.01549   0.00059
           Y            0.01550   0.99975  -0.01633
           Z           -0.00033   0.01633   0.99987
 This molecule is an asymmetric top.
 Rotational symmetry number  1.
 Warning -- assumption of classical behavior for rotation
           may cause significant error
 Rotational temperatures (Kelvin)      0.07304     0.03584     0.02847
 Rotational constants (GHZ):           1.52191     0.74673     0.59314
 Zero-point vibrational energy     440923.7 (Joules/Mol)
                                  105.38330 (Kcal/Mol)
 Warning -- explicit consideration of  17 degrees of freedom as
           vibrations may cause significant error
 Vibrational temperatures:     60.88    88.18    98.02   117.97   181.31
          (Kelvin)            245.50   259.66   306.80   374.34   385.71
                              447.19   474.72   544.06   578.42   818.90
                              852.50   883.19   916.28   926.33   948.70
                              949.53  1076.07  1079.61  1103.17  1189.20
                             1276.80  1331.97  1507.39  1574.01  1617.35
                             1625.34  1702.12  1829.96  1886.96  1930.82
                             1956.68  1995.69  2035.41  2075.47  2147.75
                             2182.42  2204.08  2214.20  2368.75  2544.66
                             2598.08  3199.33  4379.77  4404.57  4417.99
                             4461.38  4485.71  4507.48  5022.77  5142.83
                             5171.07  5356.79

 Zero-point correction=                           0.167939 (Hartree/Particle)
 Thermal correction to Energy=                    0.180483
 Thermal correction to Enthalpy=                  0.181427
 Thermal correction to Gibbs Free Energy=         0.128490
 Sum of electronic and zero-point Energies=           -532.532741
 Sum of electronic and thermal Energies=              -532.520197
 Sum of electronic and thermal Enthalpies=            -532.519253
 Sum of electronic and thermal Free Energies=         -532.572190

                     E (Thermal)             CV                S
                      KCal/Mol        Cal/Mol-Kelvin    Cal/Mol-Kelvin
 Total                  113.255             44.287            111.415
 Electronic               0.000              0.000              0.000
 Translational            0.889              2.981             41.006
 Rotational               0.889              2.981             30.545
 Vibrational            111.477             38.326             39.864
 Vibration     1          0.595              1.980              5.148
 Vibration     2          0.597              1.973              4.415
 Vibration     3          0.598              1.969              4.207
 Vibration     4          0.600              1.961              3.843
 Vibration     5          0.611              1.927              3.006
 Vibration     6          0.626              1.879              2.429
 Vibration     7          0.629              1.866              2.323
 Vibration     8          0.644              1.821              2.016
 Vibration     9          0.668              1.746              1.661
 Vibration    10          0.673              1.732              1.609
 Vibration    11          0.700              1.653              1.358
 Vibration    12          0.713              1.616              1.260
 Vibration    13          0.748              1.517              1.047
 Vibration    14          0.768              1.466              0.955
 Vibration    15          0.925              1.098              0.506
 Vibration    16          0.950              1.048              0.463
 Vibration    17          0.973              1.003              0.426

 Optimization completed.
    -- Stationary point found.
 Normal termination of Gaussian 16 at Tue Dec  8 20:09:35 2020.

 ----------------------------------------------------------------------
 # B3LYP/6-311++G(d,p) empiricaldispersion=gd3bj scf=xqc pop=npa geom=c
 heck
 ----------------------------------------------------------------------

 ---------------------------------------
 CID_130678870_JID_1446_Energie_neutraal
 ---------------------------------------
 Structure from the checkpoint file:  "JID_1446.chk"
 Charge =  0 Multiplicity = 1

 SCF Done:  E(RB3LYP) =  -532.871730134     A.U. after   16 cycles
 Normal termination of Gaussian 16 at Tue Dec  8 20:11:52 2020.

 ----------------------------------------------------------------------
 # B3LYP/6-311++G(d,p) empiricaldispersion=gd3bj scf=xqc pop=npa geom=c
 heck
 ----------------------------------------------------------------------

 -------------------------------------
 CID_130678870_JID_1446_Energie_kation
 -------------------------------------
 Structure from the checkpoint file:  "JID_1446.chk"
 Charge =  1 Multiplicity = 2

 SCF Done:  E(UB3LYP) =  -532.532553618     A.U. after   30 cycles
 Normal termination of Gaussian 16 at Tue Dec  8 20:17:26 2020.
 Gaussian 16:  ES64L-G16RevA.03 25-Dec-2016

 ----------------------------------------------------------------------
 # B3LYP/6-311++G(d,p) empiricaldispersion=gd3bj scf=xqc pop=npa geom=c
 heck
 ----------------------------------------------------------------------

 ------------------------------------
 CID_130678870_JID_1446_Energie_anion
 ------------------------------------
 Structure from the checkpoint file:  "JID_1446.chk"
 Charge = -1 Multiplicity = 2

                         Standard orientation:
 ---------------------------------------------------------------------
 Center     Atomic      Atomic             Coordinates (Angstroms)
 Number     Number       Type             X           Y           Z
 ---------------------------------------------------------------------
      1          6           0       -1.670312    2.171402   -0.724081
      2          6           0       -0.660925    1.070983   -1.055452
      3          6           0       -0.436083    0.050573    0.084568
      4          6           0       -1.697374   -0.792795    0.316423
      5          8           0       -1.897972   -1.819002   -0.319197
      6          7           0       -2.571657   -0.306375    1.236450
      7          7           0        0.622579   -0.889764   -0.234591
      8          6           0        1.964019   -0.683323   -0.118734
      9          8           0        2.809150   -1.499080   -0.464274
     10          6           0        2.344774    0.600885    0.471865
     11          6           0        2.718034    1.647638    0.946325
     12          1           0       -2.676350    1.769769   -0.566561
     13          1           0       -1.726606    2.898638   -1.540188
     14          1           0       -1.376098    2.717168    0.182064
     15          1           0       -0.970670    0.516481   -1.948962
     16          1           0        0.315004    1.517407   -1.274313
     17          1           0       -0.166151    0.591844    0.998506
     18          1           0       -2.384724    0.525525    1.774374
     19          1           0       -3.433147   -0.809839    1.397104
     20          1           0        0.326318   -1.764743   -0.655678
     21          1           0        3.073759    2.563200    1.362932
 ---------------------------------------------------------------------

 SCF Done:  E(UB3LYP) =  -532.870560630     A.U. after   33 cycles
 SCF Done:  E(UB3LYP) =  -532.870560630     a.u. after    1 cycles

 The electronic state is 2-A.
 Alpha  occ. eigenvalues --  -18.99528 -18.97429 -14.23337 -14.22548 -10.17915
 Alpha  occ. eigenvalues --  -10.17146 -10.11976 -10.07374 -10.07141 -10.06833
 Alpha  occ. eigenvalues --  -10.06042  -0.94774  -0.92718  -0.82235  -0.80900
 Alpha  occ. eigenvalues --   -0.68719  -0.65852  -0.60917  -0.54279  -0.52242
 Alpha  occ. eigenvalues --   -0.48656  -0.44497  -0.44254  -0.41010  -0.38670
 Alpha  occ. eigenvalues --   -0.36573  -0.35504  -0.33900  -0.31720  -0.30660
 Alpha  occ. eigenvalues --   -0.30120  -0.28921  -0.27180  -0.25364  -0.24652
 Alpha  occ. eigenvalues --   -0.19338  -0.18617  -0.17853  -0.16963  -0.15165
 Alpha  occ. eigenvalues --   -0.14741   0.04107
 Alpha virt. eigenvalues --    0.06135   0.07471   0.08323   0.09234   0.10077
 Alpha virt. eigenvalues --    0.11082   0.11735   0.12164   0.12533   0.12896
 Alpha virt. eigenvalues --    0.13513   0.14008   0.15271   0.16888   0.17335

  Beta  occ. eigenvalues --  -18.99509 -18.97294 -14.23242 -14.22517 -10.17906
  Beta  occ. eigenvalues --  -10.17029 -10.11964 -10.07367 -10.07112 -10.06712
  Beta  occ. eigenvalues --  -10.06000  -0.94734  -0.92482  -0.82124  -0.80770
  Beta  occ. eigenvalues --   -0.68665  -0.65643  -0.60825  -0.53977  -0.52126
  Beta  occ. eigenvalues --   -0.48516  -0.44394  -0.44100  -0.40866  -0.38602
  Beta  occ. eigenvalues --   -0.36499  -0.35404  -0.33791  -0.31510  -0.30524
  Beta  occ. eigenvalues --   -0.29820  -0.28822  -0.27029  -0.25296  -0.24576
  Beta  occ. eigenvalues --   -0.19241  -0.18019  -0.17731  -0.16852  -0.15032
  Beta  occ. eigenvalues --   -0.14370
  Beta virt. eigenvalues --    0.07189   0.07742   0.08168   0.08732   0.10072
  Beta virt. eigenvalues --    0.10293   0.11328   0.12123   0.12425   0.12652
  Beta virt. eigenvalues --    0.13215   0.13799   0.14420   0.15467   0.16949

 Mulliken charges and spin densities:
               1          2
     1  C    0.902346  -1.640409
     2  C   -1.192465   1.223343
     3  C    0.381903  -0.762902
     4  C    0.789043  -0.615155
     5  O   -0.371123   0.003596
     6  N   -0.256712  -0.075064
     7  N   -0.125899   0.024518
     8  C    0.195504   0.073646
     9  O   -0.367817   0.044668
    10  C    2.389353  -0.807591
    11  C   -2.531365   0.665555
    12  H   -0.124062   0.288095
    13  H   -0.142856   0.273345
    14  H   -0.350289   0.513844
    15  H    0.150755  -0.008806
    16  H    0.103072   0.045469
    17  H    0.162302   0.083470
    18  H   -0.483551   0.752552
    19  H   -0.238675   0.561153
    20  H    0.337207  -0.013177
    21  H   -0.226671   0.369850
 Sum of Mulliken charges =  -1.00000   1.00000

 Dipole moment (field-independent basis, Debye):
    X=              1.5397    Y=              0.0224    Z=             -2.6103  Tot=              3.0306
 Quadrupole moment (field-independent basis, Debye-Ang):
   XX=           -125.3507   YY=           -101.9450   ZZ=            -89.8565
   XY=              8.4017   XZ=             12.7659   YZ=             -5.2365

 Summary of Natural Population Analysis:

                                       Natural Population
                Natural  -----------------------------------------------
    Atom  No    Charge         Core      Valence    Rydberg      Total
 -----------------------------------------------------------------------
      C    1   -0.29029      0.99966     2.28542    0.00521     3.29029
      C    2   -0.19118      0.99961     2.18321    0.00836     3.19118
      C    3   -0.05024      0.99955     2.03750    0.01319     3.05024
      C    4    0.34019      0.99967     1.63583    0.02431     2.65981
      O    5   -0.32950      0.99987     3.32387    0.00575     4.32950
      N    6   -0.39249      0.99970     2.88379    0.00900     3.89249
      N    7   -0.30843      0.99967     2.79943    0.00934     3.80843
      C    8    0.31589      0.99959     1.66208    0.02244     2.68411
      O    9   -0.29754      0.99988     3.29238    0.00528     4.29754
      C   10   -0.05221      0.99931     2.04433    0.00856     3.05221
      C   11   -0.07471      0.99930     2.07113    0.00429     3.07471
      H   12    0.10098      0.00000     0.39765    0.00136     0.39902
      H   13    0.09876      0.00000     0.40047    0.00077     0.40124
      H   14    0.10112      0.00000     0.39679    0.00209     0.39888
      H   15    0.09764      0.00000     0.40118    0.00118     0.40236
      H   16    0.10447      0.00000     0.39431    0.00122     0.39553
      H   17    0.10978      0.00000     0.38797    0.00225     0.39022
      H   18    0.20470      0.00000     0.28036    0.01494     0.29530
      H   19    0.19889      0.00000     0.29709    0.00402     0.30111
      H   20    0.20629      0.00000     0.29190    0.00181     0.29371
      H   21    0.10788      0.00000     0.39093    0.00119     0.39212
 =======================================================================
   * Total *   -0.00000     10.99582    29.85761    0.14657    41.00000

 Normal termination of Gaussian 16 at Tue Dec  8 20:23:12 2020.
