 Gaussian 16, Revision A.03,

 -----------------------------------------------------------
 # opt freq B3LYP/6-31G(d) empiricaldispersion=gd3bj scf=xqc
 -----------------------------------------------------------

 --------------------------------
 CID_129781179_JID_10924_neutraal
 --------------------------------
 Symbolic Z-matrix:
 Charge =  0 Multiplicity = 1

 SCF Done:  E(RB3LYP) =  -1254.30819319     A.U. after   16 cycles
 SCF Done:  E(RB3LYP) =  -1254.31606802     A.U. after   13 cycles
 SCF Done:  E(RB3LYP) =  -1254.31693681     A.U. after   12 cycles
 SCF Done:  E(RB3LYP) =  -1254.31711368     A.U. after   12 cycles
 SCF Done:  E(RB3LYP) =  -1254.31719839     A.U. after   12 cycles
 SCF Done:  E(RB3LYP) =  -1254.31723218     A.U. after   10 cycles
 SCF Done:  E(RB3LYP) =  -1254.31725387     A.U. after   10 cycles
 SCF Done:  E(RB3LYP) =  -1254.31726614     A.U. after   10 cycles
 SCF Done:  E(RB3LYP) =  -1254.31728053     A.U. after   11 cycles
 SCF Done:  E(RB3LYP) =  -1254.31730038     A.U. after   12 cycles
 SCF Done:  E(RB3LYP) =  -1254.32181723     A.U. after    8 cycles
 SCF Done:  E(RB3LYP) =  -1254.32181763     A.U. after    8 cycles
 SCF Done:  E(RB3LYP) =  -1254.32181788     A.U. after    7 cycles
 SCF Done:  E(RB3LYP) =  -1254.32181799     A.U. after    7 cycles
 SCF Done:  E(RB3LYP) =  -1254.32181803     A.U. after    7 cycles
 Optimization completed.
    -- Stationary point found.
 Normal termination of Gaussian 16 at Sat Dec 12 17:16:40 2020.

 --------------------------------------------------------------------
 #N Geom=AllCheck Guess=TCheck SCRF=Check GenChk RB3LYP/6-31G(d) Freq
 --------------------------------------------------------------------

 Structure from the checkpoint file:  "JID_10924.chk"
 --------------------------------
 CID_129781179_JID_10924_neutraal
 --------------------------------
 Charge =  0 Multiplicity = 1

 SCF Done:  E(RB3LYP) =  -1254.32181803     A.U. after    1 cycles

  Exact polarizability: 250.900   3.127 177.693 -12.522  10.123 117.558
 Approx polarizability: 326.837   4.903 358.644 -23.363  30.228 184.030

                      1                      2                      3
                      A                      A                      A
 Frequencies --     23.1173                37.7747                57.5705
 Red. masses --      4.0903                 5.1761                 5.3410
 Frc consts  --      0.0013                 0.0044                 0.0104
 IR Inten    --      0.1614                 0.2630                 6.4838

                      4                      5                      6
                      A                      A                      A
 Frequencies --     69.2976                84.4329               113.5725
 Red. masses --      5.8897                 6.1237                 4.8136
 Frc consts  --      0.0167                 0.0257                 0.0366
 IR Inten    --      0.6853                 0.6489                 3.8064

                      7                      8                      9
                      A                      A                      A
 Frequencies --    132.7713               146.1196               209.3503
 Red. masses --      5.9818                 1.0920                 6.9740
 Frc consts  --      0.0621                 0.0137                 0.1801
 IR Inten    --      2.6957                 0.0412                 2.4450

                     10                     11                     12
                      A                      A                      A
 Frequencies --    223.9045               234.5544               260.0768
 Red. masses --      5.1643                 7.4411                 4.3699
 Frc consts  --      0.1525                 0.2412                 0.1742
 IR Inten    --      0.9627                 2.3342                 2.2768

                     13                     14                     15
                      A                      A                      A
 Frequencies --    283.8987               298.3490               321.6682
 Red. masses --      3.7038                 4.6094                 4.2395
 Frc consts  --      0.1759                 0.2417                 0.2585
 IR Inten    --      7.6051                 2.7547                 0.4189

                     16                     17                     18
                      A                      A                      A
 Frequencies --    340.8715               357.0035               387.8521
 Red. masses --      3.2041                 5.3623                 1.2624
 Frc consts  --      0.2194                 0.4027                 0.1119
 IR Inten    --      0.3781                 6.8418               231.8303

                     19                     20                     21
                      A                      A                      A
 Frequencies --    409.9975               414.6575               436.0715
 Red. masses --     10.2035                 2.9929                 5.6073
 Frc consts  --      1.0106                 0.3032                 0.6282
 IR Inten    --      0.7965                 0.6309                 6.7563

                     22                     23                     24
                      A                      A                      A
 Frequencies --    450.1366               488.0344               522.3893
 Red. masses --      3.7369                 4.0516                 5.4620
 Frc consts  --      0.4461                 0.5686                 0.8782
 IR Inten    --      4.5730                 1.0121                 0.3624

                     25                     26                     27
                      A                      A                      A
 Frequencies --    533.4922               584.5997               589.3398
 Red. masses --      2.2916                 2.9902                 2.6057
 Frc consts  --      0.3843                 0.6021                 0.5332
 IR Inten    --      3.0389                 8.5109                21.4616

                     28                     29                     30
                      A                      A                      A
 Frequencies --    635.5188               639.6340               668.5819
 Red. masses --      6.0152                 3.2981                 9.6585
 Frc consts  --      1.4314                 0.7950                 2.5437
 IR Inten    --      0.0465                11.1972                 0.9591

                     31                     32                     33
                      A                      A                      A
 Frequencies --    679.1017               687.4225               712.3379
 Red. masses --      6.9408                 4.1287                 2.0249
 Frc consts  --      1.8859                 1.1495                 0.6054
 IR Inten    --     23.0652                 8.3260                24.6462

                     34                     35                     36
                      A                      A                      A
 Frequencies --    739.6100               746.9879               769.1271
 Red. masses --      4.3515                 4.3561                 7.3938
 Frc consts  --      1.4025                 1.4321                 2.5770
 IR Inten    --     15.9021                 9.5322                13.9188

                     37                     38                     39
                      A                      A                      A
 Frequencies --    778.4919               828.0626               861.1789
 Red. masses --      2.1984                 2.7337                 1.2484
 Frc consts  --      0.7850                 1.1044                 0.5455
 IR Inten    --     17.5398                 2.1440                 0.3082

                     40                     41                     42
                      A                      A                      A
 Frequencies --    933.0399               938.5489               949.0539
 Red. masses --      1.7046                 4.0333                 4.9986
 Frc consts  --      0.8743                 2.0933                 2.6527
 IR Inten    --      0.1382                10.9799                13.5704

                     43                     44                     45
                      A                      A                      A
 Frequencies --    950.6559               978.5294              1001.4129
 Red. masses --      1.3773                 1.3502                 2.4491
 Frc consts  --      0.7334                 0.7617                 1.4470
 IR Inten    --      5.9640                 0.8171                 1.6079

                     46                     47                     48
                      A                      A                      A
 Frequencies --   1004.5051              1022.2270              1062.1053
 Red. masses --      1.2752                 5.9538                 2.3672
 Frc consts  --      0.7581                 3.6655                 1.5734
 IR Inten    --      0.7245                 1.4091                 2.9527

                     49                     50                     51
                      A                      A                      A
 Frequencies --   1070.7024              1078.8680              1081.1420
 Red. masses --      2.0778                 1.4776                 2.8817
 Frc consts  --      1.4034                 1.0133                 1.9846
 IR Inten    --      9.3215                 1.9980                 8.7307

                     52                     53                     54
                      A                      A                      A
 Frequencies --   1102.6331              1120.9865              1132.8942
 Red. masses --      3.4211                 1.7931                 1.8520
 Frc consts  --      2.4506                 1.3276                 1.4005
 IR Inten    --      7.1128                 3.7772                 0.6058

                     55                     56                     57
                      A                      A                      A
 Frequencies --   1189.6601              1197.7584              1221.4178
 Red. masses --      4.5450                 1.0967                 2.4990
 Frc consts  --      3.7899                 0.9270                 2.1965
 IR Inten    --      1.4165                 0.1047                93.2356

                     58                     59                     60
                      A                      A                      A
 Frequencies --   1230.6206              1232.7503              1279.0842
 Red. masses --      1.2938                 2.6251                 2.2705
 Frc consts  --      1.1544                 2.3504                 2.1886
 IR Inten    --      5.2523                48.6052                 2.9976

                     61                     62                     63
                      A                      A                      A
 Frequencies --   1297.4406              1322.2604              1346.8162
 Red. masses --      1.9623                 2.3991                 3.9531
 Frc consts  --      1.9462                 2.4714                 4.2248
 IR Inten    --     10.6242                12.0198                 2.4860

                     64                     65                     66
                      A                      A                      A
 Frequencies --   1369.6536              1377.0534              1405.2044
 Red. masses --      3.4720                 1.5489                 2.2818
 Frc consts  --      3.8375                 1.7305                 2.6547
 IR Inten    --    133.0137                 4.6130                25.6260

                     67                     68                     69
                      A                      A                      A
 Frequencies --   1425.6415              1446.5420              1495.6893
 Red. masses --      2.1212                 1.3136                 2.2482
 Frc consts  --      2.5401                 1.6195                 2.9632
 IR Inten    --     30.0520                 4.0373                11.6560

                     70                     71                     72
                      A                      A                      A
 Frequencies --   1500.0659              1516.3277              1522.6110
 Red. masses --      1.0438                 1.1079                 1.1202
 Frc consts  --      1.3838                 1.5008                 1.5302
 IR Inten    --      6.1662                30.2140                52.6915

                     73                     74                     75
                      A                      A                      A
 Frequencies --   1546.9864              1588.5688              1635.4289
 Red. masses --      2.1245                 6.6210                 1.3276
 Frc consts  --      2.9956                 9.8443                 2.0921
 IR Inten    --     20.2639               468.4564               131.3163

                     76                     77                     78
                      A                      A                      A
 Frequencies --   1642.7275              1659.1713              1664.6731
 Red. masses --      5.1899                 5.9049                 5.3632
 Frc consts  --      8.2516                 9.5773                 8.7565
 IR Inten    --      4.4560               117.8663                 3.4691

                     79                     80                     81
                      A                      A                      A
 Frequencies --   1776.1113              1795.1194              3052.8883
 Red. masses --     12.0646                 8.7081                 1.0356
 Frc consts  --     22.4235                16.5333                 5.6866
 IR Inten    --    262.5936               274.2614                25.7813

                     82                     83                     84
                      A                      A                      A
 Frequencies --   3093.9264              3107.0202              3136.2590
 Red. masses --      1.0673                 1.1004                 1.1033
 Frc consts  --      6.0194                 6.2590                 6.3941
 IR Inten    --     12.4846                11.5957                15.3010

                     85                     86                     87
                      A                      A                      A
 Frequencies --   3185.5585              3186.4604              3189.0441
 Red. masses --      1.0984                 1.0913                 1.0854
 Frc consts  --      6.5669                 6.5285                 6.5036
 IR Inten    --      2.0067                39.4693                 0.2471

                     88                     89                     90
                      A                      A                      A
 Frequencies --   3198.5724              3208.7965              3216.4630
 Red. masses --      1.0889                 1.0923                 1.0959
 Frc consts  --      6.5639                 6.6263                 6.6798
 IR Inten    --     12.6605                29.0391                10.6406

                     91                     92                     93
                      A                      A                      A
 Frequencies --   3227.6017              3585.8172              3707.3126
 Red. masses --      1.0936                 1.0450                 1.1048
 Frc consts  --      6.7122                 7.9165                 8.9464
 IR Inten    --      3.5863                38.3519                60.7611

 - Thermochemistry -
 -------------------
 Temperature   298.150 Kelvin.  Pressure   1.00000 Atm.
 Atom     1 has atomic number  6 and mass  12.00000

 Molecular mass:   287.07285 amu.
 Principal axes and moments of inertia in atomic units:
                           1         2         3
     Eigenvalues --  2678.119359105.409729519.91325
           X            0.99999  -0.00254  -0.00255
           Y            0.00244   0.99928  -0.03797
           Z            0.00265   0.03797   0.99928
 This molecule is an asymmetric top.
 Rotational symmetry number  1.
 Warning -- assumption of classical behavior for rotation
           may cause significant error
 Rotational temperatures (Kelvin)      0.03234     0.00951     0.00910
 Rotational constants (GHZ):           0.67388     0.19821     0.18958
 Zero-point vibrational energy     669701.6 (Joules/Mol)
                                  160.06253 (Kcal/Mol)
 Warning -- explicit consideration of  27 degrees of freedom as
           vibrations may cause significant error
 Vibrational temperatures:     33.26    54.35    82.83    99.70   121.48
          (Kelvin)            163.41   191.03   210.23   301.21   322.15
                              337.47   374.19   408.47   429.26   462.81
                              490.44   513.65   558.03   589.89   596.60
                              627.41   647.65   702.17   751.60   767.58
                              841.11   847.93   914.37   920.29   961.94
                              977.08   989.05  1024.90  1064.13  1074.75
                             1106.60  1120.08  1191.40  1239.04  1342.44
                             1350.36  1365.48  1367.78  1407.89  1440.81
                             1445.26  1470.76  1528.13  1540.50  1552.25
                             1555.52  1586.44  1612.85  1629.98  1711.66
                             1723.31  1757.35  1770.59  1773.65  1840.32
                             1866.73  1902.44  1937.77  1970.63  1981.27
                             2021.78  2051.18  2081.25  2151.96  2158.26
                             2181.66  2190.70  2225.77  2285.60  2353.02
                             2363.52  2387.18  2395.09  2555.43  2582.78
                             4392.43  4451.47  4470.31  4512.38  4583.31
                             4584.61  4588.32  4602.03  4616.74  4627.77
                             4643.80  5159.19  5334.00

 Zero-point correction=                           0.255076 (Hartree/Particle)
 Thermal correction to Energy=                    0.272501
 Thermal correction to Enthalpy=                  0.273445
 Thermal correction to Gibbs Free Energy=         0.208707
 Sum of electronic and zero-point Energies=          -1254.066742
 Sum of electronic and thermal Energies=             -1254.049317
 Sum of electronic and thermal Enthalpies=           -1254.048373
 Sum of electronic and thermal Free Energies=        -1254.113111

                     E (Thermal)             CV                S
                      KCal/Mol        Cal/Mol-Kelvin    Cal/Mol-Kelvin
 Total                  170.997             67.212            136.252
 Electronic               0.000              0.000              0.000
 Translational            0.889              2.981             42.861
 Rotational               0.889              2.981             33.806
 Vibrational            169.219             61.251             59.585
 Vibration     1          0.593              1.985              6.347
 Vibration     2          0.594              1.982              5.373
 Vibration     3          0.596              1.974              4.539
 Vibration     4          0.598              1.969              4.173
 Vibration     5          0.601              1.960              3.785
 Vibration     6          0.607              1.938              3.207
 Vibration     7          0.613              1.921              2.906
 Vibration     8          0.617              1.907              2.722
 Vibration     9          0.642              1.826              2.049
 Vibration    10          0.649              1.805              1.927
 Vibration    11          0.654              1.788              1.844
 Vibration    12          0.668              1.746              1.661
 Vibration    13          0.682              1.704              1.510
 Vibration    14          0.691              1.677              1.426
 Vibration    15          0.707              1.632              1.302
 Vibration    16          0.720              1.594              1.208
 Vibration    17          0.732              1.561              1.135
 Vibration    18          0.756              1.496              1.008
 Vibration    19          0.774              1.449              0.927
 Vibration    20          0.778              1.438              0.910
 Vibration    21          0.797              1.392              0.839
 Vibration    22          0.809              1.361              0.795
 Vibration    23          0.844              1.277              0.689
 Vibration    24          0.877              1.200              0.604
 Vibration    25          0.888              1.176              0.579
 Vibration    26          0.942              1.065              0.477
 Vibration    27          0.947              1.055              0.468

 Optimization completed.
    -- Stationary point found.
 Normal termination of Gaussian 16 at Sat Dec 12 17:32:59 2020.

 ----------------------------------------------------------------------
 # B3LYP/6-311++G(d,p) empiricaldispersion=gd3bj scf=xqc pop=npa geom=c
 heck
 ----------------------------------------------------------------------

 ----------------------------------------
 CID_129781179_JID_10924_Energie_neutraal
 ----------------------------------------
 Structure from the checkpoint file:  "JID_10924.chk"
 Charge =  0 Multiplicity = 1

 SCF Done:  E(RB3LYP) =  -1254.58483992     A.U. after   16 cycles
 Normal termination of Gaussian 16 at Sat Dec 12 17:39:13 2020.

 ----------------------------------------------------------------------
 # B3LYP/6-311++G(d,p) empiricaldispersion=gd3bj scf=xqc pop=npa geom=c
 heck
 ----------------------------------------------------------------------

 --------------------------------------
 CID_129781179_JID_10924_Energie_kation
 --------------------------------------
 Structure from the checkpoint file:  "JID_10924.chk"
 Charge =  1 Multiplicity = 2

 SCF Done:  E(UB3LYP) =  -1254.28567564     A.U. after   29 cycles
 Normal termination of Gaussian 16 at Sat Dec 12 17:54:25 2020.
 Gaussian 16:  ES64L-G16RevA.03 25-Dec-2016

 ----------------------------------------------------------------------
 # B3LYP/6-311++G(d,p) empiricaldispersion=gd3bj scf=xqc pop=npa geom=c
 heck
 ----------------------------------------------------------------------

 -------------------------------------
 CID_129781179_JID_10924_Energie_anion
 -------------------------------------
 Structure from the checkpoint file:  "JID_10924.chk"
 Charge = -1 Multiplicity = 2

                         Standard orientation:
 ---------------------------------------------------------------------
 Center     Atomic      Atomic             Coordinates (Angstroms)
 Number     Number       Type             X           Y           Z
 ---------------------------------------------------------------------
      1          6           0       -5.166681    1.013357   -0.446078
      2          6           0       -3.870356    0.263563   -0.384521
      3          6           0       -3.778934   -1.098280   -0.333839
      4          7           0       -2.606432   -1.816679   -0.271860
      5          6           0       -1.526937   -1.103083   -0.272453
      6          7           0       -1.478893    0.259664   -0.315704
      7          6           0       -2.647067    1.054043   -0.402247
      8          8           0       -2.562459    2.272512   -0.489338
      9          6           0       -0.146887    0.856399   -0.373514
     10          6           0        0.813729   -0.161224    0.271025
     11         16           0        0.102717   -1.807457   -0.244867
     12          6           0        2.249729    0.049888   -0.199743
     13          6           0        2.933465   -0.875305   -0.994140
     14          6           0        4.238169   -0.618164   -1.417671
     15          6           0        4.874241    0.567649   -1.055749
     16          6           0        4.197599    1.495588   -0.262734
     17          6           0        2.897044    1.240293    0.165815
     18          6           0        0.763448    0.025080    1.819695
     19          8           0        0.650376    1.147285    2.292368
     20          7           0        0.941779   -1.086437    2.574000
     21          1           0       -5.220494    1.622051   -1.355988
     22          1           0       -5.252558    1.709073    0.396578
     23          1           0       -6.020100    0.329347   -0.427763
     24          1           0       -4.681943   -1.704666   -0.335657
     25          1           0        0.130829    1.043092   -1.415212
     26          1           0       -0.147775    1.793779    0.180544
     27          1           0        2.450285   -1.796918   -1.300915
     28          1           0        4.753237   -1.349691   -2.033510
     29          1           0        5.889055    0.767300   -1.387231
     30          1           0        4.682775    2.422891    0.027688
     31          1           0        2.383367    1.954436    0.799832
     32          1           0        0.824658   -2.008720    2.180416
     33          1           0        0.883306   -0.975710    3.576739
 ---------------------------------------------------------------------

 SCF Done:  E(UB3LYP) =  -1254.58666566     A.U. after   33 cycles
 SCF Done:  E(UB3LYP) =  -1254.58677108     a.u. after    8 cycles

 The electronic state is 2-A.
 Alpha  occ. eigenvalues --  -88.75557 -18.99701 -18.95973 -14.23845 -14.23838
 Alpha  occ. eigenvalues --  -14.18124 -10.18337 -10.14182 -10.13625 -10.13522
 Alpha  occ. eigenvalues --  -10.10773 -10.10000 -10.08820 -10.08725 -10.08417
 Alpha  occ. eigenvalues --  -10.08253 -10.08210 -10.06882 -10.05222 -10.03931
 Alpha  occ. eigenvalues --   -7.84225  -5.80570  -5.80248  -5.79627  -0.94953
 Alpha  occ. eigenvalues --   -0.92092  -0.86900  -0.81593  -0.79207  -0.77267
 Alpha  occ. eigenvalues --   -0.72127  -0.67956  -0.66005  -0.65018  -0.62907
 Alpha  occ. eigenvalues --   -0.57826  -0.55585  -0.52098  -0.51759  -0.50983
 Alpha  occ. eigenvalues --   -0.48803  -0.47487  -0.44963  -0.42553  -0.41136
 Alpha  occ. eigenvalues --   -0.39448  -0.37637  -0.37093  -0.35832  -0.35192
 Alpha  occ. eigenvalues --   -0.34286  -0.34170  -0.33277  -0.32278  -0.30540
 Alpha  occ. eigenvalues --   -0.29968  -0.29493  -0.29179  -0.28245  -0.27525
 Alpha  occ. eigenvalues --   -0.27257  -0.26401  -0.25885  -0.25450  -0.24866
 Alpha  occ. eigenvalues --   -0.23509  -0.19315  -0.18252  -0.17636  -0.16875
 Alpha  occ. eigenvalues --   -0.16016  -0.15481  -0.14437  -0.13687  -0.10362
 Alpha  occ. eigenvalues --    0.04324
 Alpha virt. eigenvalues --    0.06113   0.06559   0.06769   0.07083   0.07930
 Alpha virt. eigenvalues --    0.08441   0.08990   0.09628   0.10229   0.10570
 Alpha virt. eigenvalues --    0.10907   0.11311   0.11981   0.12378   0.12732

  Beta  occ. eigenvalues --  -88.75556 -18.99662 -18.95927 -14.23810 -14.23597
  Beta  occ. eigenvalues --  -14.18244 -10.18314 -10.14153 -10.13490 -10.13255
  Beta  occ. eigenvalues --  -10.10784 -10.09976 -10.08815 -10.08712 -10.08351
  Beta  occ. eigenvalues --  -10.08214 -10.08192 -10.06626 -10.05238 -10.03734
  Beta  occ. eigenvalues --   -7.84221  -5.80571  -5.80255  -5.79620  -0.94884
  Beta  occ. eigenvalues --   -0.91878  -0.86605  -0.81523  -0.79038  -0.77160
  Beta  occ. eigenvalues --   -0.71981  -0.67611  -0.65902  -0.64860  -0.62723
  Beta  occ. eigenvalues --   -0.57717  -0.55351  -0.52028  -0.51590  -0.50777
  Beta  occ. eigenvalues --   -0.48499  -0.47360  -0.44896  -0.42466  -0.40960
  Beta  occ. eigenvalues --   -0.39281  -0.37495  -0.36943  -0.35542  -0.35034
  Beta  occ. eigenvalues --   -0.34142  -0.34085  -0.33167  -0.31972  -0.30355
  Beta  occ. eigenvalues --   -0.29807  -0.29373  -0.28964  -0.27972  -0.27325
  Beta  occ. eigenvalues --   -0.27080  -0.26340  -0.25771  -0.25345  -0.24443
  Beta  occ. eigenvalues --   -0.23356  -0.19050  -0.17992  -0.16998  -0.16588
  Beta  occ. eigenvalues --   -0.15668  -0.15441  -0.14045  -0.13565  -0.09467
  Beta virt. eigenvalues --    0.06137   0.06826   0.07325   0.07447   0.07883
  Beta virt. eigenvalues --    0.08371   0.08888   0.09393   0.09998   0.10430
  Beta virt. eigenvalues --    0.10671   0.10906   0.11561   0.12158   0.12418

 Mulliken charges and spin densities:
               1          2
     1  C   -0.653404  -0.003051
     2  C    0.642120   0.097521
     3  C   -0.578009   0.235835
     4  N   -0.013859  -0.068788
     5  C   -1.376509   0.500044
     6  N    0.175973   0.063950
     7  C   -0.040881   0.025203
     8  O   -0.378575   0.019168
     9  C   -0.811404  -0.160357
    10  C    1.427640  -0.194488
    11  S    0.931091  -0.674808
    12  C    1.022271  -0.175883
    13  C   -0.223433   0.149110
    14  C   -0.625519   0.180047
    15  C   -0.197482  -0.117968
    16  C   -0.350474   0.142905
    17  C   -0.395392   0.116008
    18  C   -0.505487   0.033574
    19  O   -0.277445   0.013722
    20  N   -0.265582  -0.063762
    21  H    0.150211   0.006880
    22  H    0.145727   0.012576
    23  H    0.105646  -0.000320
    24  H    0.141393  -0.007185
    25  H    0.191238   0.047941
    26  H    0.285767  -0.013589
    27  H    0.101665   0.014046
    28  H    0.079032   0.083224
    29  H    0.064677   0.056437
    30  H    0.091940   0.059749
    31  H    0.176566   0.036333
    32  H   -0.068428   0.312736
    33  H    0.028925   0.273190
 Sum of Mulliken charges =  -1.00000   1.00000

 Dipole moment (field-independent basis, Debye):
    X=              4.2786    Y=             -1.0057    Z=             -1.5924  Tot=              4.6748
 Quadrupole moment (field-independent basis, Debye-Ang):
   XX=           -172.6408   YY=           -156.5823   ZZ=           -145.3750
   XY=              4.3305   XZ=             -5.8990   YZ=              1.0241

 Summary of Natural Population Analysis:

                                       Natural Population
                Natural  -----------------------------------------------
    Atom  No    Charge         Core      Valence    Rydberg      Total
 -----------------------------------------------------------------------
      C    1   -0.28919      0.99965     2.28453    0.00501     3.28919
      C    2   -0.05844      0.99948     2.05079    0.00817     3.05844
      C    3    0.07315      0.99950     1.91393    0.01342     2.92685
      N    4   -0.29509      0.99964     2.78354    0.01191     3.79509
      C    5    0.22213      0.99955     1.75714    0.02118     2.77787
      N    6   -0.21134      0.99957     2.70275    0.00902     3.71134
      C    7    0.33167      0.99958     1.64670    0.02204     2.66833
      O    8   -0.33192      0.99988     3.32639    0.00565     4.33192
      C    9   -0.08493      0.99958     2.07338    0.01197     3.08493
      C   10   -0.11683      0.99946     2.10014    0.01723     3.11683
      S   11    0.11890      4.99954     2.86250    0.01907     7.88110
      C   12   -0.01784      0.99947     2.00601    0.01236     3.01784
      C   13   -0.09119      0.99951     2.08337    0.00831     3.09119
      C   14   -0.10074      0.99957     2.09147    0.00971     3.10074
      C   15   -0.10654      0.99957     2.09713    0.00985     3.10654
      C   16   -0.08956      0.99957     2.08012    0.00987     3.08956
      C   17   -0.09953      0.99951     2.09203    0.00799     3.09953
      C   18    0.34267      0.99961     1.63091    0.02680     2.65733
      O   19   -0.31812      0.99987     3.31234    0.00591     4.31812
      N   20   -0.39866      0.99969     2.89047    0.00851     3.89866
      H   21    0.10223      0.00000     0.39655    0.00121     0.39777
      H   22    0.10286      0.00000     0.39595    0.00119     0.39714
      H   23    0.09296      0.00000     0.40615    0.00089     0.40704
      H   24    0.08023      0.00000     0.41868    0.00109     0.41977
      H   25    0.10275      0.00000     0.39610    0.00114     0.39725
      H   26    0.12761      0.00000     0.37083    0.00156     0.37239
      H   27    0.10701      0.00000     0.39161    0.00138     0.39299
      H   28    0.09798      0.00000     0.40124    0.00078     0.40202
      H   29    0.09715      0.00000     0.40210    0.00075     0.40285
      H   30    0.09813      0.00000     0.40109    0.00078     0.40187
      H   31    0.11412      0.00000     0.38438    0.00150     0.38588
      H   32    0.20285      0.00000     0.29432    0.00284     0.29715
      H   33    0.19552      0.00000     0.30189    0.00259     0.30448
 =======================================================================
   * Total *    0.00000     23.99180    50.74652    0.26168    75.00000

 Normal termination of Gaussian 16 at Sat Dec 12 20:16:19 2020.
