 Gaussian 16, Revision A.03,

 -----------------------------------------------------------
 # opt freq B3LYP/6-31G(d) empiricaldispersion=gd3bj scf=xqc
 -----------------------------------------------------------

 -------------------------------
 CID_129767947_JID_2816_neutraal
 -------------------------------
 Symbolic Z-matrix:
 Charge =  0 Multiplicity = 1

 SCF Done:  E(RB3LYP) =  -578.301708477     A.U. after   14 cycles
 SCF Done:  E(RB3LYP) =  -578.306789984     A.U. after   12 cycles
 SCF Done:  E(RB3LYP) =  -578.307089817     A.U. after   12 cycles
 SCF Done:  E(RB3LYP) =  -578.307500961     A.U. after   12 cycles
 SCF Done:  E(RB3LYP) =  -578.307730535     A.U. after   12 cycles
 SCF Done:  E(RB3LYP) =  -578.308078084     A.U. after   11 cycles
 SCF Done:  E(RB3LYP) =  -578.308299236     A.U. after   11 cycles
 SCF Done:  E(RB3LYP) =  -578.308470726     A.U. after   12 cycles
 SCF Done:  E(RB3LYP) =  -578.308551764     A.U. after   12 cycles
 SCF Done:  E(RB3LYP) =  -578.308677869     A.U. after   10 cycles
 SCF Done:  E(RB3LYP) =  -578.308910755     A.U. after   10 cycles
 SCF Done:  E(RB3LYP) =  -578.308915531     A.U. after   10 cycles
 SCF Done:  E(RB3LYP) =  -578.308915870     A.U. after    8 cycles
 SCF Done:  E(RB3LYP) =  -578.308915906     A.U. after    7 cycles
 SCF Done:  E(RB3LYP) =  -578.308915926     A.U. after    7 cycles
 Optimization completed.
    -- Stationary point found.

 1\1\GINC-NODE108\FOpt\RB3LYP\6-31G(d)\C9H16O3\VSC10255\09-Dec-2020\0\\
 # opt freq B3LYP/6-31G(d) empiricaldispersion=gd3bj scf=xqc\\CID_12976
 7947_JID_2816_neutraal\\0,1\C,0.8776024066,0.0040462161,0.1434649095\C
 ,0.474923597,-0.9754840103,-0.9694592857\C,1.5829877257,-1.1479394531,
 -2.0270755587\C,2.7529256541,-2.0027946385,-1.5227612155\C,2.260034887
 6,-3.3888140628,-1.0802085931\C,1.188376152,-3.2517340095,0.0384271901
 \C,0.0391176361,-2.3582651471,-0.4407082116\O,1.8238013525,-2.74838621
 67,1.2190793281\C,3.4074468444,-4.3062432617,-0.6079013348\O,3.4030657

 Normal termination of Gaussian 16 at Wed Dec  9 18:08:07 2020.

 --------------------------------------------------------------------
 #N Geom=AllCheck Guess=TCheck SCRF=Check GenChk RB3LYP/6-31G(d) Freq
 --------------------------------------------------------------------

 Structure from the checkpoint file:  "JID_2816.chk"
 -------------------------------
 CID_129767947_JID_2816_neutraal
 -------------------------------
 Charge =  0 Multiplicity = 1

 SCF Done:  E(RB3LYP) =  -578.308915926     A.U. after    1 cycles

  Exact polarizability: 112.858  -1.427  93.269   0.505  -2.778  90.754
 Approx polarizability: 148.574  -7.059 141.468   4.462  -7.702 132.327

                      1                      2                      3
                      A                      A                      A
 Frequencies --     57.9449                88.5170               144.9805
 Red. masses --      4.7054                 3.8667                 1.2403
 Frc consts  --      0.0093                 0.0179                 0.0154
 IR Inten    --      0.7554                 1.4814                 1.1818

                      4                      5                      6
                      A                      A                      A
 Frequencies --    159.6220               183.2181               217.0936
 Red. masses --      2.3660                 2.5156                 3.4062
 Frc consts  --      0.0355                 0.0498                 0.0946
 IR Inten    --      1.1402                 1.2322                 3.0662

                      7                      8                      9
                      A                      A                      A
 Frequencies --    248.2246               262.3096               271.3814
 Red. masses --      1.3446                 3.3104                 2.9958
 Frc consts  --      0.0488                 0.1342                 0.1300
 IR Inten    --     27.5641                 2.2105                 5.5376

                     10                     11                     12
                      A                      A                      A
 Frequencies --    283.3304               337.3736               372.2222
 Red. masses --      1.1422                 3.2102                 2.2499
 Frc consts  --      0.0540                 0.2153                 0.1837
 IR Inten    --    111.6436                 8.8843                 1.2751

                     13                     14                     15
                      A                      A                      A
 Frequencies --    388.8749               411.9409               421.8552
 Red. masses --      2.1857                 6.4558                 3.0597
 Frc consts  --      0.1947                 0.6455                 0.3208
 IR Inten    --      0.9714                11.9293                 4.3023

                     16                     17                     18
                      A                      A                      A
 Frequencies --    437.3942               495.8245               520.6009
 Red. masses --      2.2290                 2.5859                 1.3779
 Frc consts  --      0.2512                 0.3746                 0.2200
 IR Inten    --      7.1129                19.4390                41.6419

                     19                     20                     21
                      A                      A                      A
 Frequencies --    567.5352               606.2228               630.4822
 Red. masses --      3.4363                 2.6403                 3.0245
 Frc consts  --      0.6521                 0.5717                 0.7084
 IR Inten    --      4.4123                28.4504                 5.0942

                     22                     23                     24
                      A                      A                      A
 Frequencies --    672.3998               752.1967               763.6980
 Red. masses --      3.3371                 2.1843                 2.9173
 Frc consts  --      0.8889                 0.7282                 1.0025
 IR Inten    --      4.4289                 5.1449                 1.8646

                     25                     26                     27
                      A                      A                      A
 Frequencies --    849.2252               904.1183               924.4500
 Red. masses --      2.2933                 2.1411                 2.3322
 Frc consts  --      0.9745                 1.0312                 1.1743
 IR Inten    --      5.4982                 1.1237                 6.8619

                     28                     29                     30
                      A                      A                      A
 Frequencies --    953.7912               981.5856               990.8826
 Red. masses --      2.0981                 1.8764                 2.0516
 Frc consts  --      1.1246                 1.0652                 1.1868
 IR Inten    --      9.9454                 0.7634                13.0031

                     31                     32                     33
                      A                      A                      A
 Frequencies --   1019.0162              1025.3986              1046.8554
 Red. masses --      2.4208                 1.7434                 1.9200
 Frc consts  --      1.4811                 1.0800                 1.2397
 IR Inten    --      9.6509                 6.1524                 1.3851

                     34                     35                     36
                      A                      A                      A
 Frequencies --   1074.7320              1084.7683              1091.0433
 Red. masses --      2.3197                 1.7417                 1.8236
 Frc consts  --      1.5786                 1.2076                 1.2790
 IR Inten    --     56.2401                 2.9989                13.2334

                     37                     38                     39
                      A                      A                      A
 Frequencies --   1126.6022              1167.3204              1185.3133
 Red. masses --      1.9627                 2.0349                 2.4888
 Frc consts  --      1.4677                 1.6337                 2.0602
 IR Inten    --     70.3886                 4.3532                18.5752

                     40                     41                     42
                      A                      A                      A
 Frequencies --   1211.5056              1245.6848              1261.3933
 Red. masses --      1.2366                 1.9218                 1.6034
 Frc consts  --      1.0694                 1.7571                 1.5031
 IR Inten    --     45.4884                52.8807                 7.1349

                     43                     44                     45
                      A                      A                      A
 Frequencies --   1295.6635              1300.8724              1342.4200
 Red. masses --      1.6378                 1.2491                 1.5361
 Frc consts  --      1.6200                 1.2454                 1.6310
 IR Inten    --     19.5497                 6.8499                31.3793

                     46                     47                     48
                      A                      A                      A
 Frequencies --   1370.3321              1384.8764              1398.1227
 Red. masses --      1.3123                 1.5756                 1.3998
 Frc consts  --      1.4519                 1.7804                 1.6121
 IR Inten    --     10.1608                 4.1786                 0.5820

                     49                     50                     51
                      A                      A                      A
 Frequencies --   1401.3433              1407.9146              1414.4028
 Red. masses --      1.3358                 1.3172                 1.3335
 Frc consts  --      1.5455                 1.5383                 1.5718
 IR Inten    --     12.2407                 6.3637                41.6617

                     52                     53                     54
                      A                      A                      A
 Frequencies --   1424.4740              1442.2277              1462.6282
 Red. masses --      1.4810                 1.2746                 1.5552
 Frc consts  --      1.7706                 1.5620                 1.9602
 IR Inten    --     85.7131                 8.6933                31.0413

                     55                     56                     57
                      A                      A                      A
 Frequencies --   1493.2776              1504.3688              1506.2289
 Red. masses --      1.0582                 1.0816                 1.0703
 Frc consts  --      1.3903                 1.4422                 1.4307
 IR Inten    --      5.3250                 5.4270                12.9906

                     58                     59                     60
                      A                      A                      A
 Frequencies --   1509.4957              1523.0365              1532.8601
 Red. masses --      1.0700                 1.0843                 1.0618
 Frc consts  --      1.4365                 1.4819                 1.4700
 IR Inten    --      5.7438                 1.6447                 6.8944

                     61                     62                     63
                      A                      A                      A
 Frequencies --   1547.7921              1784.9918              3005.6894
 Red. masses --      1.0529                10.0535                 1.0809
 Frc consts  --      1.4862                18.8730                 5.7536
 IR Inten    --      4.1008               136.9830                34.8796

                     64                     65                     66
                      A                      A                      A
 Frequencies --   3019.1397              3027.4089              3043.7453
 Red. masses --      1.0768                 1.0812                 1.0425
 Frc consts  --      5.7832                 5.8383                 5.6906
 IR Inten    --     53.9009                44.7669                38.4374

                     67                     68                     69
                      A                      A                      A
 Frequencies --   3052.2732              3061.2488              3065.7292
 Red. masses --      1.0639                 1.0448                 1.0591
 Frc consts  --      5.8396                 5.7690                 5.8646
 IR Inten    --     46.0379                 2.6608                30.3974

                     70                     71                     72
                      A                      A                      A
 Frequencies --   3094.9251              3099.5881              3103.7070
 Red. masses --      1.1012                 1.1005                 1.0912
 Frc consts  --      6.2146                 6.2293                 6.1930
 IR Inten    --      3.4819                46.3854                11.6480

                     73                     74                     75
                      A                      A                      A
 Frequencies --   3115.7869              3136.2252              3145.2876
 Red. masses --      1.1001                 1.0914                 1.0978
 Frc consts  --      6.2926                 6.3251                 6.3986
 IR Inten    --     31.9129                 8.5029                23.7627

                     76                     77                     78
                      A                      A                      A
 Frequencies --   3177.9879              3575.7295              3751.8722
 Red. masses --      1.1058                 1.0641                 1.0663
 Frc consts  --      6.5803                 8.0158                 8.8439
 IR Inten    --      5.3135               110.4157                12.9588

 - Thermochemistry -
 -------------------
 Temperature   298.150 Kelvin.  Pressure   1.00000 Atm.
 Atom     1 has atomic number  6 and mass  12.00000

 Molecular mass:   172.10994 amu.
 Principal axes and moments of inertia in atomic units:
                           1         2         3
     Eigenvalues --  1156.940332511.829722726.68891
           X            0.99990   0.01099  -0.00862
           Y           -0.01128   0.99937  -0.03351
           Z            0.00825   0.03360   0.99940
 This molecule is an asymmetric top.
 Rotational symmetry number  1.
 Warning -- assumption of classical behavior for rotation
           may cause significant error
 Rotational temperatures (Kelvin)      0.07486     0.03448     0.03177
 Rotational constants (GHZ):           1.55993     0.71850     0.66188
 Zero-point vibrational energy     645759.8 (Joules/Mol)
                                  154.34029 (Kcal/Mol)
 Warning -- explicit consideration of  20 degrees of freedom as
           vibrations may cause significant error
 Vibrational temperatures:     83.37   127.36   208.59   229.66   263.61
          (Kelvin)            312.35   357.14   377.41   390.46   407.65
                              485.41   535.54   559.50   592.69   606.96
                              629.31   713.38   749.03   816.56   872.22
                              907.12   967.43  1082.24  1098.79  1221.85
                             1300.82  1330.08  1372.29  1412.28  1425.66
                             1466.14  1475.32  1506.19  1546.30  1560.74
                             1569.77  1620.93  1679.51  1705.40  1743.09
                             1792.26  1814.86  1864.17  1871.67  1931.44
                             1971.60  1992.53  2011.59  2016.22  2025.68
                             2035.01  2049.50  2075.04  2104.40  2148.49
                             2164.45  2167.13  2171.83  2191.31  2205.44
                             2226.93  2568.21  4324.52  4343.87  4355.77
                             4379.27  4391.54  4404.45  4410.90  4452.91
                             4459.62  4465.54  4482.92  4512.33  4525.37
                             4572.42  5144.68  5398.11

 Zero-point correction=                           0.245957 (Hartree/Particle)
 Thermal correction to Energy=                    0.258440
 Thermal correction to Enthalpy=                  0.259384
 Thermal correction to Gibbs Free Energy=         0.208440
 Sum of electronic and zero-point Energies=           -578.062959
 Sum of electronic and thermal Energies=              -578.050476
 Sum of electronic and thermal Enthalpies=            -578.049532
 Sum of electronic and thermal Free Energies=         -578.100476

                     E (Thermal)             CV                S
                      KCal/Mol        Cal/Mol-Kelvin    Cal/Mol-Kelvin
 Total                  162.173             48.849            107.220
 Electronic               0.000              0.000              0.000
 Translational            0.889              2.981             41.336
 Rotational               0.889              2.981             30.450
 Vibrational            160.396             42.888             35.433
 Vibration     1          0.596              1.974              4.526
 Vibration     2          0.601              1.957              3.693
 Vibration     3          0.616              1.908              2.737
 Vibration     4          0.621              1.892              2.554
 Vibration     5          0.631              1.863              2.295
 Vibration     6          0.646              1.815              1.983
 Vibration     7          0.662              1.766              1.743
 Vibration     8          0.670              1.742              1.646
 Vibration     9          0.675              1.726              1.587
 Vibration    10          0.682              1.705              1.513
 Vibration    11          0.718              1.601              1.225
 Vibration    12          0.744              1.529              1.071
 Vibration    13          0.757              1.494              1.004
 Vibration    14          0.776              1.444              0.920
 Vibration    15          0.784              1.423              0.886
 Vibration    16          0.798              1.389              0.835
 Vibration    17          0.851              1.259              0.669
 Vibration    18          0.876              1.204              0.609
 Vibration    19          0.923              1.101              0.509
 Vibration    20          0.965              1.019              0.439

 Optimization completed.
    -- Stationary point found.

 1\1\GINC-NODE108\Freq\RB3LYP\6-31G(d)\C9H16O3\VSC10255\09-Dec-2020\0\\
 #N Geom=AllCheck Guess=TCheck SCRF=Check GenChk RB3LYP/6-31G(d) Freq\\
 CID_129767947_JID_2816_neutraal\\0,1\C,0.8776024066,0.0040462161,0.143
 4649095\C,0.474923597,-0.9754840103,-0.9694592857\C,1.5829877257,-1.14
 79394531,-2.0270755587\C,2.7529256541,-2.0027946385,-1.5227612155\C,2.
 2600348876,-3.3888140628,-1.0802085931\C,1.188376152,-3.2517340095,0.0
 384271901\C,0.0391176361,-2.3582651471,-0.4407082116\O,1.8238013525,-2
 .7483862167,1.2190793281\C,3.4074468444,-4.3062432617,-0.6079013348\O,

 Normal termination of Gaussian 16 at Wed Dec  9 18:16:39 2020.

 ----------------------------------------------------------------------
 # B3LYP/6-311++G(d,p) empiricaldispersion=gd3bj scf=xqc pop=npa geom=c
 heck
 ----------------------------------------------------------------------

 ---------------------------------------
 CID_129767947_JID_2816_Energie_neutraal
 ---------------------------------------
 Structure from the checkpoint file:  "JID_2816.chk"
 Charge =  0 Multiplicity = 1

 SCF Done:  E(RB3LYP) =  -578.492667981     A.U. after   14 cycles
 Normal termination of Gaussian 16 at Wed Dec  9 18:20:36 2020.

 ----------------------------------------------------------------------
 # B3LYP/6-311++G(d,p) empiricaldispersion=gd3bj scf=xqc pop=npa geom=c
 heck
 ----------------------------------------------------------------------

 -------------------------------------
 CID_129767947_JID_2816_Energie_kation
 -------------------------------------
 Structure from the checkpoint file:  "JID_2816.chk"
 Charge =  1 Multiplicity = 2

 SCF Done:  E(UB3LYP) =  -578.154925202     A.U. after   26 cycles
 Normal termination of Gaussian 16 at Wed Dec  9 18:29:28 2020.
 Gaussian 16:  ES64L-G16RevA.03 25-Dec-2016

 ------------------------------------
 CID_129767947_JID_2816_Energie_anion
 ------------------------------------
 Structure from the checkpoint file:  "JID_2816.chk"
 Charge = -1 Multiplicity = 2

                         Standard orientation:
 ---------------------------------------------------------------------
 Center     Atomic      Atomic             Coordinates (Angstroms)
 Number     Number       Type             X           Y           Z
 ---------------------------------------------------------------------
      1          6           0       -2.870234    0.962863   -0.493609
      2          6           0       -2.317643   -0.385925   -0.008178
      3          6           0       -1.488796   -1.103455   -1.091812
      4          6           0       -0.107966   -0.467065   -1.297187
      5          6           0        0.685234   -0.457196    0.018328
      6          6           0       -0.094474    0.321058    1.116037
      7          6           0       -1.493840   -0.278393    1.292351
      8          8           0       -0.128736    1.706555    0.755083
      9          6           0        2.102621    0.130681   -0.145125
     10          8           0        3.024847   -0.469013    0.388874
     11          6           0        2.324411    1.385780   -0.944440
     12          8           0        0.825538   -1.788444    0.484962
     13          1           0       -3.468386    1.443355    0.291182
     14          1           0       -3.521709    0.820531   -1.363864
     15          1           0       -2.072192    1.654886   -0.773372
     16          1           0       -3.183253   -1.023099    0.219140
     17          1           0       -1.342687   -2.149454   -0.801482
     18          1           0       -2.039027   -1.104486   -2.040967
     19          1           0       -0.210277    0.559055   -1.663643
     20          1           0        0.458931   -1.033534   -2.045143
     21          1           0        0.471527    0.196667    2.051608
     22          1           0       -2.041055    0.311364    2.043545
     23          1           0       -1.358370   -1.278960    1.715481
     24          1           0       -0.772161    2.143749    1.333033
     25          1           0        2.106724    1.191369   -2.001878
     26          1           0        1.640025    2.168622   -0.608709
     27          1           0        3.364464    1.701678   -0.843578
     28          1           0        1.758377   -1.844619    0.779102
 ---------------------------------------------------------------------

 SCF Done:  E(UB3LYP) =  -578.481103761     A.U. after   33 cycles
 SCF Done:  E(UB3LYP) =  -578.481103761     a.u. after    1 cycles

 The electronic state is 2-A.
 Alpha  occ. eigenvalues --  -19.01490 -19.00929 -19.00908 -10.14489 -10.12321
 Alpha  occ. eigenvalues --  -10.11483 -10.06514 -10.06179 -10.06139 -10.05441
 Alpha  occ. eigenvalues --  -10.05224 -10.03966  -0.95417  -0.91937  -0.90620
 Alpha  occ. eigenvalues --   -0.71875  -0.66566  -0.63220  -0.62625  -0.57090
 Alpha  occ. eigenvalues --   -0.51564  -0.50136  -0.45164  -0.44155  -0.39262
 Alpha  occ. eigenvalues --   -0.38461  -0.37717  -0.35994  -0.34431  -0.33007
 Alpha  occ. eigenvalues --   -0.32777  -0.31168  -0.30809  -0.29935  -0.28793
 Alpha  occ. eigenvalues --   -0.27518  -0.26811  -0.26399  -0.24772  -0.23621
 Alpha  occ. eigenvalues --   -0.23072  -0.22139  -0.20788  -0.20419  -0.17402
 Alpha  occ. eigenvalues --   -0.16154  -0.14999   0.04778
 Alpha virt. eigenvalues --    0.06790   0.07754   0.07936   0.08971   0.09656
 Alpha virt. eigenvalues --    0.10714   0.10824   0.11062   0.11359   0.12514
 Alpha virt. eigenvalues --    0.13333   0.13799   0.13940   0.14257   0.14632

  Beta  occ. eigenvalues --  -19.01453 -19.00906 -19.00801 -10.14302 -10.12334
  Beta  occ. eigenvalues --  -10.11468 -10.06517 -10.06171 -10.06112 -10.05429
  Beta  occ. eigenvalues --  -10.05191 -10.03927  -0.95224  -0.91846  -0.90550
  Beta  occ. eigenvalues --   -0.71830  -0.66439  -0.63162  -0.62550  -0.57018
  Beta  occ. eigenvalues --   -0.51486  -0.49997  -0.45098  -0.44007  -0.39123
  Beta  occ. eigenvalues --   -0.38399  -0.37641  -0.35822  -0.34291  -0.32936
  Beta  occ. eigenvalues --   -0.32614  -0.31133  -0.30764  -0.29867  -0.28747
  Beta  occ. eigenvalues --   -0.27414  -0.26658  -0.26184  -0.24721  -0.23364
  Beta  occ. eigenvalues --   -0.23026  -0.22088  -0.20744  -0.20374  -0.17350
  Beta  occ. eigenvalues --   -0.16105  -0.14913
  Beta virt. eigenvalues --    0.07152   0.08152   0.08456   0.09029   0.09347
  Beta virt. eigenvalues --    0.10110   0.11084   0.11174   0.11504   0.11675
  Beta virt. eigenvalues --    0.12914   0.13585   0.14032   0.14300   0.14548

 Mulliken charges and spin densities:
               1          2
     1  C    1.936121  -2.697194
     2  C   -1.274382   1.726061
     3  C    0.369223  -0.941213
     4  C   -0.555357   0.387329
     5  C   -0.404049   0.014947
     6  C    0.412542  -0.310754
     7  C    0.461941  -1.147038
     8  O   -0.235795   0.029940
     9  C    0.152437   0.189056
    10  O   -0.304106   0.029210
    11  C    0.186985  -0.786775
    12  O   -0.230222   0.054971
    13  H   -0.488912   0.643388
    14  H   -0.162678   0.285751
    15  H    0.064082   0.091955
    16  H   -0.403820   0.600811
    17  H    0.122429   0.041690
    18  H   -0.274797   0.441261
    19  H    0.075563   0.063338
    20  H    0.091757   0.098029
    21  H   -0.004368   0.233520
    22  H   -0.834628   1.024116
    23  H    0.154943   0.010010
    24  H   -0.148871   0.421374
    25  H    0.059303   0.091975
    26  H   -0.029051   0.244968
    27  H    0.050843   0.109246
    28  H    0.212867   0.050027
 Sum of Mulliken charges =  -1.00000   1.00000

 Dipole moment (field-independent basis, Debye):
    X=              4.5068    Y=             -2.4234    Z=             -3.2421  Tot=              6.0576
 Quadrupole moment (field-independent basis, Debye-Ang):
   XX=           -134.3130   YY=           -110.1721   ZZ=           -105.9022
   XY=              7.4655   XZ=              3.0431   YZ=             -5.8898

 Summary of Natural Population Analysis:

                                       Natural Population
                Natural  -----------------------------------------------
    Atom  No    Charge         Core      Valence    Rydberg      Total
 -----------------------------------------------------------------------
      C    1   -0.28887      0.99964     2.28259    0.00663     3.28887
      C    2   -0.11179      0.99960     2.10101    0.01118     3.11179
      C    3   -0.18820      0.99961     2.17948    0.00911     3.18820
      C    4   -0.19911      0.99958     2.18899    0.01054     3.19911
      C    5    0.09038      0.99946     1.89331    0.01684     2.90962
      C    6    0.06464      0.99949     1.91961    0.01627     2.93536
      C    7   -0.20307      0.99959     2.19284    0.01064     3.20307
      O    8   -0.38297      0.99989     3.37590    0.00718     4.38297
      C    9    0.32074      0.99963     1.65884    0.02079     2.67926
      O   10   -0.29718      0.99987     3.29051    0.00680     4.29718
      C   11   -0.33836      0.99961     2.33388    0.00487     3.33836
      O   12   -0.38480      0.99989     3.37821    0.00670     4.38480
      H   13    0.10166      0.00000     0.39631    0.00203     0.39834
      H   14    0.09495      0.00000     0.40385    0.00121     0.40505
      H   15    0.10251      0.00000     0.39603    0.00146     0.39749
      H   16    0.09616      0.00000     0.40210    0.00174     0.40384
      H   17    0.10296      0.00000     0.39566    0.00139     0.39704
      H   18    0.09690      0.00000     0.40219    0.00091     0.40310
      H   19    0.10496      0.00000     0.39360    0.00145     0.39504
      H   20    0.10075      0.00000     0.39828    0.00097     0.39925
      H   21    0.08225      0.00000     0.41571    0.00204     0.41775
      H   22    0.10399      0.00000     0.39281    0.00321     0.39601
      H   23    0.11003      0.00000     0.38857    0.00140     0.38997
      H   24    0.23834      0.00000     0.25352    0.00814     0.26166
      H   25    0.10851      0.00000     0.39047    0.00102     0.39149
      H   26    0.12897      0.00000     0.36921    0.00183     0.37103
      H   27    0.10514      0.00000     0.39365    0.00121     0.39486
      H   28    0.24053      0.00000     0.25624    0.00323     0.25947
 =======================================================================
   * Total *    0.00000     11.99587    34.84334    0.16079    47.00000

 Normal termination of Gaussian 16 at Wed Dec  9 18:40:27 2020.
