 Gaussian 16, Revision A.03,

 -----------------------------------------------------------
 # opt freq B3LYP/6-31G(d) empiricaldispersion=gd3bj scf=xqc
 -----------------------------------------------------------

 -------------------------------
 CID_117290269_JID_5190_neutraal
 -------------------------------
 Symbolic Z-matrix:
 Charge =  0 Multiplicity = 1

 SCF Done:  E(RB3LYP) =  -630.614866373     A.U. after   14 cycles
 SCF Done:  E(RB3LYP) =  -630.617694178     A.U. after   12 cycles
 SCF Done:  E(RB3LYP) =  -630.618413307     A.U. after   12 cycles
 SCF Done:  E(RB3LYP) =  -630.619270874     A.U. after   14 cycles
 SCF Done:  E(RB3LYP) =  -630.619528789     A.U. after   12 cycles
 SCF Done:  E(RB3LYP) =  -630.619680859     A.U. after   11 cycles
 SCF Done:  E(RB3LYP) =  -630.619731060     A.U. after   11 cycles
 SCF Done:  E(RB3LYP) =  -630.619743051     A.U. after   10 cycles
 SCF Done:  E(RB3LYP) =  -630.619766449     A.U. after   10 cycles
 SCF Done:  E(RB3LYP) =  -630.619780199     A.U. after   11 cycles
 SCF Done:  E(RB3LYP) =  -630.619791464     A.U. after   10 cycles
 SCF Done:  E(RB3LYP) =  -630.619793985     A.U. after   10 cycles
 SCF Done:  E(RB3LYP) =  -630.619795042     A.U. after   10 cycles
 SCF Done:  E(RB3LYP) =  -630.619795346     A.U. after    9 cycles
 SCF Done:  E(RB3LYP) =  -630.619795416     A.U. after    7 cycles
 Optimization completed.
    -- Stationary point found.
 Normal termination of Gaussian 16 at Thu Dec 10 14:54:47 2020.

 --------------------------------------------------------------------
 #N Geom=AllCheck Guess=TCheck SCRF=Check GenChk RB3LYP/6-31G(d) Freq
 --------------------------------------------------------------------

 Structure from the checkpoint file:  "JID_5190.chk"
 -------------------------------
 CID_117290269_JID_5190_neutraal
 -------------------------------
 Charge =  0 Multiplicity = 1

 SCF Done:  E(RB3LYP) =  -630.619795416     A.U. after    1 cycles

  Exact polarizability: 239.573  -5.419 134.951   2.250  10.423  76.418
 Approx polarizability: 319.018  -7.457 240.744   4.043  27.084 114.625

                      1                      2                      3
                      A                      A                      A
 Frequencies --     13.2543                28.4971                56.5791
 Red. masses --      4.0760                 3.5336                 3.9513
 Frc consts  --      0.0004                 0.0017                 0.0075
 IR Inten    --      9.3936                 0.3819                 0.6392

                      4                      5                      6
                      A                      A                      A
 Frequencies --    105.5441               140.5433               144.5245
 Red. masses --      4.5169                 4.1786                 2.8352
 Frc consts  --      0.0296                 0.0486                 0.0349
 IR Inten    --      2.0298                 2.0211                 2.5092

                      7                      8                      9
                      A                      A                      A
 Frequencies --    205.2210               231.7253               251.4221
 Red. masses --      3.2315                 1.0740                 3.7878
 Frc consts  --      0.0802                 0.0340                 0.1411
 IR Inten    --      5.9218                28.4650                 3.0014

                     10                     11                     12
                      A                      A                      A
 Frequencies --    268.9688               289.4767               312.9049
 Red. masses --      3.3809                 1.2926                 2.7811
 Frc consts  --      0.1441                 0.0638                 0.1604
 IR Inten    --      2.9381                 9.1977                 9.9142

                     13                     14                     15
                      A                      A                      A
 Frequencies --    377.4317               409.7522               420.9413
 Red. masses --      3.4424                 3.1323                 4.2259
 Frc consts  --      0.2889                 0.3099                 0.4412
 IR Inten    --      0.4456                 2.7280                 4.2244

                     16                     17                     18
                      A                      A                      A
 Frequencies --    459.0101               494.1295               563.8368
 Red. masses --      4.5542                 1.4064                 2.7747
 Frc consts  --      0.5653                 0.2023                 0.5197
 IR Inten    --      2.1995                57.0394                19.1951

                     19                     20                     21
                      A                      A                      A
 Frequencies --    579.3978               636.5366               648.6191
 Red. masses --      2.8837                 3.3381                 5.1014
 Frc consts  --      0.5704                 0.7969                 1.2645
 IR Inten    --     17.2050                 6.2401                 0.7122

                     22                     23                     24
                      A                      A                      A
 Frequencies --    675.2725               709.5830               727.0090
 Red. masses --      3.1867                 1.3230                 3.4635
 Frc consts  --      0.8561                 0.3925                 1.0786
 IR Inten    --      5.7689                40.1810                 0.5615

                     25                     26                     27
                      A                      A                      A
 Frequencies --    761.7061               775.1084               825.1883
 Red. masses --      4.4113                 4.2974                 1.4968
 Frc consts  --      1.5080                 1.5212                 0.6005
 IR Inten    --      0.9265                 1.6135                15.3457

                     28                     29                     30
                      A                      A                      A
 Frequencies --    851.0238               860.8572               878.6523
 Red. masses --      1.2762                 1.2938                 2.1244
 Frc consts  --      0.5446                 0.5649                 0.9663
 IR Inten    --     10.9576                87.3684                 4.9779

                     31                     32                     33
                      A                      A                      A
 Frequencies --    885.8873               932.8284               933.6724
 Red. masses --      1.5701                 5.1790                 1.3654
 Frc consts  --      0.7260                 2.6552                 0.7013
 IR Inten    --     18.2917                 4.1898                 0.5456

                     34                     35                     36
                      A                      A                      A
 Frequencies --    957.8888               964.1888              1005.7962
 Red. masses --      1.8275                 4.5382                 1.3172
 Frc consts  --      0.9880                 2.4857                 0.7851
 IR Inten    --     19.8660                11.3903                 2.0052

                     37                     38                     39
                      A                      A                      A
 Frequencies --   1029.9263              1039.9574              1049.5865
 Red. masses --      1.6108                 2.6855                 1.7749
 Frc consts  --      1.0067                 1.7112                 1.1520
 IR Inten    --      6.0596                 7.1334                 4.2235

                     40                     41                     42
                      A                      A                      A
 Frequencies --   1077.3295              1091.6086              1114.2182
 Red. masses --      1.7893                 1.9268                 1.4211
 Frc consts  --      1.2236                 1.3528                 1.0395
 IR Inten    --     10.2638                 1.2262                40.8197

                     43                     44                     45
                      A                      A                      A
 Frequencies --   1150.2276              1150.6442              1165.5076
 Red. masses --      2.3513                 1.4729                 2.6928
 Frc consts  --      1.8329                 1.1489                 2.1552
 IR Inten    --      0.3298                11.7641                10.0702

                     46                     47                     48
                      A                      A                      A
 Frequencies --   1204.0609              1208.5914              1226.3513
 Red. masses --      2.0706                 1.6144                 1.1577
 Frc consts  --      1.7687                 1.3894                 1.0259
 IR Inten    --      2.8120                 4.9003                 2.0350

                     49                     50                     51
                      A                      A                      A
 Frequencies --   1260.5268              1310.4279              1315.3768
 Red. masses --      1.7026                 2.1109                 2.5325
 Frc consts  --      1.5939                 2.1357                 2.5816
 IR Inten    --      2.2184                 0.0968                 8.3085

                     52                     53                     54
                      A                      A                      A
 Frequencies --   1345.7107              1359.0759              1365.2798
 Red. masses --      1.9606                 1.5172                 1.4098
 Frc consts  --      2.0919                 1.6511                 1.5482
 IR Inten    --      0.7441                16.3561                 7.6694

                     55                     56                     57
                      A                      A                      A
 Frequencies --   1406.6095              1417.4826              1424.6064
 Red. masses --      2.1009                 2.4420                 1.2595
 Frc consts  --      2.4491                 2.8909                 1.5060
 IR Inten    --      3.6149                 3.6425                 6.4892

                     58                     59                     60
                      A                      A                      A
 Frequencies --   1440.6575              1446.0290              1484.6847
 Red. masses --      2.1837                 1.4000                 3.0609
 Frc consts  --      2.6703                 1.7247                 3.9753
 IR Inten    --      1.4029                23.2249                23.8278

                     61                     62                     63
                      A                      A                      A
 Frequencies --   1506.3867              1523.6532              1529.1638
 Red. masses --      4.0313                 1.0563                 1.0739
 Frc consts  --      5.3898                 1.4448                 1.4795
 IR Inten    --      7.3733                 7.2198                 0.3111

                     64                     65                     66
                      A                      A                      A
 Frequencies --   1539.8575              1556.9520              1600.3796
 Red. masses --      1.1013                 2.4139                 4.2969
 Frc consts  --      1.5386                 3.4476                 6.4841
 IR Inten    --      3.5817                79.2167                 3.4105

                     67                     68                     69
                      A                      A                      A
 Frequencies --   1630.7498              1676.6256              1697.5563
 Red. masses --      5.5837                 5.6559                 1.0889
 Frc consts  --      8.7488                 9.3675                 1.8487
 IR Inten    --      1.1231                 0.0159                31.2483

                     70                     71                     72
                      A                      A                      A
 Frequencies --   2951.9010              3030.6705              3042.3889
 Red. masses --      1.0737                 1.0832                 1.0401
 Frc consts  --      5.5126                 5.8621                 5.6721
 IR Inten    --    110.0971                33.3545                51.2189

                     73                     74                     75
                      A                      A                      A
 Frequencies --   3087.7339              3111.6696              3130.5897
 Red. masses --      1.0891                 1.0972                 1.1026
 Frc consts  --      6.1181                 6.2592                 6.3670
 IR Inten    --     29.9713                38.7612                21.9300

                     76                     77                     78
                      A                      A                      A
 Frequencies --   3163.3686              3183.2742              3219.5604
 Red. masses --      1.0858                 1.0938                 1.0883
 Frc consts  --      6.4016                 6.5301                 6.6464
 IR Inten    --     24.0519                31.8163                 0.3572

                     79                     80                     81
                      A                      A                      A
 Frequencies --   3233.0023              3260.6551              3293.6086
 Red. masses --      1.0940                 1.0925                 1.1030
 Frc consts  --      6.7371                 6.8433                 7.0499
 IR Inten    --      1.2872                13.9672                 5.3937

                     82                     83                     84
                      A                      A                      A
 Frequencies --   3480.8360              3563.8270              3662.4361
 Red. masses --      1.0498                 1.0928                 1.0802
 Frc consts  --      7.4942                 8.1772                 8.5366
 IR Inten    --      0.5777                 0.0776                30.2831

 - Thermochemistry -
 -------------------
 Temperature   298.150 Kelvin.  Pressure   1.00000 Atm.
 Atom     1 has atomic number  6 and mass  12.00000

 Molecular mass:   201.12660 amu.
 Principal axes and moments of inertia in atomic units:
                           1         2         3
     Eigenvalues --   956.080317038.512947550.57998
           X            0.99999   0.00408   0.00231
           Y           -0.00408   0.99999   0.00160
           Z           -0.00230  -0.00161   1.00000
 This molecule is an asymmetric top.
 Rotational symmetry number  1.
 Warning -- assumption of classical behavior for rotation
           may cause significant error
 Rotational temperatures (Kelvin)      0.09059     0.01231     0.01147
 Rotational constants (GHZ):           1.88765     0.25641     0.23902
 Zero-point vibrational energy     670771.9 (Joules/Mol)
                                  160.31833 (Kcal/Mol)
 Warning -- explicit consideration of  19 degrees of freedom as
           vibrations may cause significant error
 Vibrational temperatures:     19.07    41.00    81.40   151.85   202.21
          (Kelvin)            207.94   295.27   333.40   361.74   386.99
                              416.49   450.20   543.04   589.54   605.64
                              660.41   710.94   811.24   833.62   915.83
                              933.22   971.57  1020.93  1046.00  1095.93
                             1115.21  1187.26  1224.43  1238.58  1264.18
                             1274.59  1342.13  1343.35  1378.19  1387.25
                             1447.12  1481.83  1496.27  1510.12  1550.04
                             1570.58  1603.11  1654.92  1655.52  1676.91
                             1732.38  1738.89  1764.45  1813.62  1885.41
                             1892.53  1936.18  1955.41  1964.33  2023.80
                             2039.44  2049.69  2072.78  2080.51  2136.13
                             2167.35  2192.20  2200.13  2215.51  2240.11
                             2302.59  2346.29  2412.29  2442.40  4247.13
                             4360.46  4377.32  4442.56  4477.00  4504.22
                             4551.38  4580.02  4632.23  4651.57  4691.36
                             4738.77  5008.15  5127.55  5269.43

 Zero-point correction=                           0.255484 (Hartree/Particle)
 Thermal correction to Energy=                    0.269304
 Thermal correction to Enthalpy=                  0.270249
 Thermal correction to Gibbs Free Energy=         0.212813
 Sum of electronic and zero-point Energies=           -630.364312
 Sum of electronic and thermal Energies=              -630.350491
 Sum of electronic and thermal Enthalpies=            -630.349547
 Sum of electronic and thermal Free Energies=         -630.406982

                     E (Thermal)             CV                S
                      KCal/Mol        Cal/Mol-Kelvin    Cal/Mol-Kelvin
 Total                  168.991             53.042            120.883
 Electronic               0.000              0.000              0.000
 Translational            0.889              2.981             41.801
 Rotational               0.889              2.981             32.297
 Vibrational            167.214             47.081             46.785
 Vibration     1          0.593              1.987              7.451
 Vibration     2          0.593              1.984              5.931
 Vibration     3          0.596              1.975              4.573
 Vibration     4          0.605              1.945              3.349
 Vibration     5          0.615              1.913              2.796
 Vibration     6          0.616              1.909              2.743
 Vibration     7          0.640              1.832              2.086
 Vibration     8          0.653              1.792              1.866
 Vibration     9          0.663              1.760              1.721
 Vibration    10          0.673              1.730              1.603
 Vibration    11          0.686              1.693              1.477
 Vibration    12          0.701              1.649              1.347
 Vibration    13          0.748              1.518              1.049
 Vibration    14          0.774              1.449              0.927
 Vibration    15          0.783              1.425              0.889
 Vibration    16          0.817              1.341              0.769
 Vibration    17          0.850              1.263              0.673
 Vibration    18          0.920              1.110              0.516
 Vibration    19          0.936              1.076              0.486

                           ! Non-Optimized Parameters !
 Normal termination of Gaussian 16 at Thu Dec 10 15:03:00 2020.

 ----------------------------------------------------------------------
 # B3LYP/6-311++G(d,p) empiricaldispersion=gd3bj scf=xqc pop=npa geom=c
 heck
 ----------------------------------------------------------------------

 ---------------------------------------
 CID_117290269_JID_5190_Energie_neutraal
 ---------------------------------------
 Structure from the checkpoint file:  "JID_5190.chk"
 Charge =  0 Multiplicity = 1

 SCF Done:  E(RB3LYP) =  -630.796153138     A.U. after   15 cycles
 Normal termination of Gaussian 16 at Thu Dec 10 15:06:57 2020.

 ----------------------------------------------------------------------
 # B3LYP/6-311++G(d,p) empiricaldispersion=gd3bj scf=xqc pop=npa geom=c
 heck
 ----------------------------------------------------------------------

 -------------------------------------
 CID_117290269_JID_5190_Energie_kation
 -------------------------------------
 Structure from the checkpoint file:  "JID_5190.chk"
 Charge =  1 Multiplicity = 2

 SCF Done:  E(UB3LYP) =  -630.525839437     A.U. after   25 cycles
 Normal termination of Gaussian 16 at Thu Dec 10 15:16:48 2020.
 Gaussian 16:  ES64L-G16RevA.03 25-Dec-2016

 ----------------------------------------------------------------------
 # B3LYP/6-311++G(d,p) empiricaldispersion=gd3bj scf=xqc pop=npa geom=c
 heck
 ----------------------------------------------------------------------

 ------------------------------------
 CID_117290269_JID_5190_Energie_anion
 ------------------------------------
 Structure from the checkpoint file:  "JID_5190.chk"
 Charge = -1 Multiplicity = 2

                         Standard orientation:
 ---------------------------------------------------------------------
 Center     Atomic      Atomic             Coordinates (Angstroms)
 Number     Number       Type             X           Y           Z
 ---------------------------------------------------------------------
      1          6           0       -3.704288    0.613585   -1.432317
      2          6           0       -3.136817    0.698652   -0.004522
      3          6           0       -3.910436   -0.221050    0.966411
      4          7           0       -3.997064   -1.605290    0.486382
      5          6           0       -1.635961    0.473085    0.009919
      6          6           0       -0.773178    1.541155    0.280145
      7          6           0        0.609490    1.375078    0.280098
      8          6           0        1.176430    0.122502    0.007654
      9          6           0        0.314155   -0.953606   -0.260245
     10          6           0       -1.064247   -0.780817   -0.262635
     11          6           0        2.620953   -0.103809   -0.006004
     12          7           0        3.217504   -1.270664   -0.212058
     13          6           0        4.566696   -1.027942   -0.141802
     14          6           0        4.807837    0.301299    0.109827
     15          7           0        3.559182    0.880548    0.195086
     16          1           0       -3.531495   -0.378080   -1.862738
     17          1           0       -3.218384    1.345602   -2.084970
     18          1           0       -4.783853    0.812877   -1.440292
     19          1           0       -3.310207    1.721298    0.357625
     20          1           0       -3.385219   -0.233411    1.927628
     21          1           0       -4.900161    0.236417    1.146861
     22          1           0       -4.315510   -2.211164    1.239291
     23          1           0       -4.697339   -1.673163   -0.249187
     24          1           0       -1.189888    2.522548    0.495551
     25          1           0        1.237924    2.234650    0.501779
     26          1           0        0.753470   -1.923722   -0.465830
     27          1           0       -1.718828   -1.624223   -0.450665
     28          1           0        5.289052   -1.821594   -0.275239
     29          1           0        5.714821    0.873369    0.232316
     30          1           0        3.374461    1.857655    0.362821
 ---------------------------------------------------------------------

 SCF Done:  E(UB3LYP) =  -630.788517038     A.U. after   33 cycles
 SCF Done:  E(UB3LYP) =  -630.788517038     a.u. after    1 cycles

 The electronic state is 2-A.
 Alpha  occ. eigenvalues --  -14.26933 -14.20172 -14.19709 -10.13552 -10.10665
 Alpha  occ. eigenvalues --  -10.10026 -10.09221 -10.08978 -10.08532 -10.08084
 Alpha  occ. eigenvalues --  -10.07942 -10.07597 -10.07308 -10.06825 -10.06818
 Alpha  occ. eigenvalues --   -0.92069  -0.79534  -0.77659  -0.76403  -0.70616
 Alpha  occ. eigenvalues --   -0.66567  -0.64882  -0.61982  -0.58028  -0.53720
 Alpha  occ. eigenvalues --   -0.52149  -0.51067  -0.48654  -0.46942  -0.45425
 Alpha  occ. eigenvalues --   -0.40887  -0.39798  -0.37141  -0.35974  -0.35479
 Alpha  occ. eigenvalues --   -0.34413  -0.34327  -0.33142  -0.32695  -0.32367
 Alpha  occ. eigenvalues --   -0.31936  -0.31016  -0.29084  -0.26914  -0.25732
 Alpha  occ. eigenvalues --   -0.24843  -0.24089  -0.23592  -0.19412  -0.18131
 Alpha  occ. eigenvalues --   -0.17704  -0.15854  -0.15162  -0.11504   0.03686
 Alpha virt. eigenvalues --    0.04963   0.05870   0.06974   0.07525   0.07877
 Alpha virt. eigenvalues --    0.08344   0.08547   0.09367   0.10004   0.10816
 Alpha virt. eigenvalues --    0.11289   0.11585   0.12313   0.12541   0.13193

  Beta  occ. eigenvalues --  -14.26881 -14.20137 -14.19697 -10.13548 -10.10643
  Beta  occ. eigenvalues --  -10.10005 -10.09224 -10.08967 -10.08530 -10.08066
  Beta  occ. eigenvalues --  -10.07907 -10.07594 -10.07305 -10.06813 -10.06795
  Beta  occ. eigenvalues --   -0.92024  -0.79476  -0.77593  -0.76368  -0.70575
  Beta  occ. eigenvalues --   -0.66530  -0.64848  -0.61939  -0.57966  -0.53647
  Beta  occ. eigenvalues --   -0.52127  -0.50985  -0.48618  -0.46893  -0.45383
  Beta  occ. eigenvalues --   -0.40848  -0.39748  -0.37097  -0.35933  -0.35417
  Beta  occ. eigenvalues --   -0.34352  -0.34287  -0.33101  -0.32659  -0.32331
  Beta  occ. eigenvalues --   -0.31911  -0.30986  -0.29056  -0.26861  -0.25701
  Beta  occ. eigenvalues --   -0.24810  -0.24061  -0.23564  -0.19340  -0.18105
  Beta  occ. eigenvalues --   -0.17645  -0.15807  -0.15120  -0.11442
  Beta virt. eigenvalues --    0.05905   0.06049   0.06622   0.07502   0.08109
  Beta virt. eigenvalues --    0.08230   0.08406   0.08844   0.09873   0.10317
  Beta virt. eigenvalues --    0.10804   0.11453   0.11840   0.12581   0.12770

 Mulliken charges and spin densities:
               1          2
     1  C    0.239668  -0.965894
     2  C   -1.722616   1.993854
     3  C    0.695118  -1.417928
     4  N   -0.412632   0.030315
     5  C    1.823733  -1.117350
     6  C   -0.002061  -0.621537
     7  C    0.740483  -1.240979
     8  C    1.179286  -0.326065
     9  C   -0.851464   0.361943
    10  C   -1.472166   0.754551
    11  C    0.733132  -0.967272
    12  N   -0.090413   0.011197
    13  C    0.413585  -0.407130
    14  C   -0.271211   0.243520
    15  N   -0.167502   0.110660
    16  H    0.121293   0.027730
    17  H    0.082906   0.054001
    18  H   -0.374424   0.530739
    19  H    0.078051   0.107414
    20  H    0.022800   0.138145
    21  H   -0.340049   0.490339
    22  H    0.024742   0.215465
    23  H   -0.038072   0.262111
    24  H   -0.249544   0.402366
    25  H   -0.396101   0.500158
    26  H    0.155825   0.029637
    27  H    0.209365   0.039327
    28  H    0.111322   0.038987
    29  H   -0.860819   1.029499
    30  H   -0.382237   0.692198
 Sum of Mulliken charges =  -1.00000   1.00000

 Dipole moment (field-independent basis, Debye):
    X=             -0.1883    Y=             -2.3398    Z=             -0.7458  Tot=              2.4631
 Quadrupole moment (field-independent basis, Debye-Ang):
   XX=           -196.2693   YY=           -131.0099   ZZ=           -115.4028
   XY=            -14.8783   XZ=             -2.1424   YZ=             -1.7117

 Summary of Natural Population Analysis:

                                       Natural Population
                Natural  -----------------------------------------------
    Atom  No    Charge         Core      Valence    Rydberg      Total
 -----------------------------------------------------------------------
      C    1   -0.28454      0.99965     2.27890    0.00599     3.28454
      C    2   -0.12173      0.99957     2.11010    0.01207     3.12173
      C    3   -0.08187      0.99961     2.07048    0.01178     3.08187
      N    4   -0.42736      0.99977     2.91653    0.01105     3.92736
      C    5   -0.00762      0.99949     1.99699    0.01113     3.00762
      C    6   -0.10001      0.99951     2.09110    0.00939     3.10001
      C    7   -0.08872      0.99954     2.08005    0.00913     3.08872
      C    8   -0.05076      0.99948     2.04150    0.00978     3.05076
      C    9   -0.08146      0.99954     2.07399    0.00794     3.08146
      C   10   -0.10170      0.99951     2.09441    0.00778     3.10170
      C   11    0.18219      0.99958     1.80013    0.01810     2.81781
      N   12   -0.25491      0.99970     2.74668    0.00853     3.75491
      C   13   -0.03723      0.99959     2.02398    0.01366     3.03723
      C   14   -0.03663      0.99957     2.02376    0.01330     3.03663
      N   15   -0.26509      0.99966     2.75488    0.01055     3.76509
      H   16    0.09975      0.00000     0.39921    0.00104     0.40025
      H   17    0.10177      0.00000     0.39748    0.00075     0.39823
      H   18    0.09869      0.00000     0.40018    0.00113     0.40131
      H   19    0.09811      0.00000     0.39983    0.00207     0.40189
      H   20    0.09302      0.00000     0.40586    0.00112     0.40698
      H   21    0.08103      0.00000     0.41719    0.00178     0.41897
      H   22    0.17754      0.00000     0.32077    0.00169     0.32246
      H   23    0.17517      0.00000     0.32271    0.00212     0.32483
      H   24    0.09902      0.00000     0.39948    0.00150     0.40098
      H   25    0.09854      0.00000     0.39933    0.00212     0.40146
      H   26    0.11035      0.00000     0.38844    0.00121     0.38965
      H   27    0.11482      0.00000     0.38382    0.00136     0.38518
      H   28    0.09428      0.00000     0.40485    0.00086     0.40572
      H   29    0.10488      0.00000     0.39363    0.00150     0.39512
      H   30    0.21047      0.00000     0.27900    0.01053     0.28953
 =======================================================================
   * Total *   -0.00000     14.99377    38.81528    0.19096    54.00000

 Normal termination of Gaussian 16 at Thu Dec 10 15:31:24 2020.
