 Gaussian 16, Revision A.03,

 -----------------------------------------------------------
 # opt freq B3LYP/6-31G(d) empiricaldispersion=gd3bj scf=xqc
 -----------------------------------------------------------

 ------------------------------
 CID_62911475_JID_6852_neutraal
 ------------------------------
 Symbolic Z-matrix:
 Charge =  0 Multiplicity = 1

 SCF Done:  E(RB3LYP) =  -701.994097613     A.U. after   14 cycles
 SCF Done:  E(RB3LYP) =  -702.000244007     A.U. after   13 cycles
 SCF Done:  E(RB3LYP) =  -702.001061401     A.U. after   12 cycles
 SCF Done:  E(RB3LYP) =  -702.001492779     A.U. after   12 cycles
 SCF Done:  E(RB3LYP) =  -702.001591669     A.U. after   11 cycles
 SCF Done:  E(RB3LYP) =  -702.001628618     A.U. after   11 cycles
 SCF Done:  E(RB3LYP) =  -702.001650945     A.U. after   10 cycles
 SCF Done:  E(RB3LYP) =  -702.001667762     A.U. after   10 cycles
 SCF Done:  E(RB3LYP) =  -702.001686124     A.U. after   11 cycles
 SCF Done:  E(RB3LYP) =  -702.001696572     A.U. after   11 cycles
 SCF Done:  E(RB3LYP) =  -702.001803122     A.U. after   11 cycles
 SCF Done:  E(RB3LYP) =  -702.001804311     A.U. after    9 cycles
 SCF Done:  E(RB3LYP) =  -702.001804434     A.U. after    7 cycles
 SCF Done:  E(RB3LYP) =  -702.001804483     A.U. after    7 cycles
 SCF Done:  E(RB3LYP) =  -702.001804505     A.U. after    6 cycles
 Optimization completed.
    -- Stationary point found.
 Normal termination of Gaussian 16 at Fri Dec 11 00:09:38 2020.

 --------------------------------------------------------------------
 #N Geom=AllCheck Guess=TCheck SCRF=Check GenChk RB3LYP/6-31G(d) Freq
 --------------------------------------------------------------------

 Structure from the checkpoint file:  "JID_6852.chk"
 ------------------------------
 CID_62911475_JID_6852_neutraal
 ------------------------------
 Charge =  0 Multiplicity = 1

 SCF Done:  E(RB3LYP) =  -702.001804505     A.U. after    1 cycles

  Exact polarizability: 172.923  -5.467 157.971  -6.575  -2.227  97.681
 Approx polarizability: 229.241 -10.800 276.193 -11.850 -12.690 155.691

                      1                      2                      3
                      A                      A                      A
 Frequencies --     27.8819                40.4728                60.2915
 Red. masses --      4.1447                 4.5498                 3.8172
 Frc consts  --      0.0019                 0.0044                 0.0082
 IR Inten    --      2.2414                 4.1913                 5.8104

                      4                      5                      6
                      A                      A                      A
 Frequencies --     76.2215               112.7839               160.7714
 Red. masses --      1.1534                 3.7163                 4.6059
 Frc consts  --      0.0039                 0.0279                 0.0701
 IR Inten    --      2.3228                 5.0921                 2.0209

                      7                      8                      9
                      A                      A                      A
 Frequencies --    181.9027               193.2790               210.8980
 Red. masses --      1.1366                 3.0049                 3.7777
 Frc consts  --      0.0222                 0.0661                 0.0990
 IR Inten    --      3.4952                 4.9835                 0.8039

                     10                     11                     12
                      A                      A                      A
 Frequencies --    239.1954               270.8264               285.0153
 Red. masses --      3.3591                 3.6847                 2.4103
 Frc consts  --      0.1132                 0.1592                 0.1154
 IR Inten    --      6.0314                 0.4383                 5.3503

                     13                     14                     15
                      A                      A                      A
 Frequencies --    310.5665               326.9066               362.3254
 Red. masses --      3.0359                 1.8409                 1.5226
 Frc consts  --      0.1725                 0.1159                 0.1178
 IR Inten    --      0.0207                11.2490                17.0517

                     16                     17                     18
                      A                      A                      A
 Frequencies --    404.5092               444.3683               457.1285
 Red. masses --      2.7418                 3.6428                 2.8153
 Frc consts  --      0.2643                 0.4238                 0.3466
 IR Inten    --      5.0131                 7.0388                35.6605

                     19                     20                     21
                      A                      A                      A
 Frequencies --    475.2963               517.5650               562.8120
 Red. masses --      4.1815                 2.0979                 4.4146
 Frc consts  --      0.5566                 0.3311                 0.8239
 IR Inten    --     15.1558                58.4103                 4.6322

                     22                     23                     24
                      A                      A                      A
 Frequencies --    612.7170               619.3244               653.1010
 Red. masses --      1.8505                 2.6248                 3.4623
 Frc consts  --      0.4093                 0.5932                 0.8701
 IR Inten    --    132.9596                63.2092                62.0280

                     25                     26                     27
                      A                      A                      A
 Frequencies --    665.5076               687.5235               716.2286
 Red. masses --      2.5075                 7.4636                 4.5831
 Frc consts  --      0.6543                 2.0786                 1.3852
 IR Inten    --     96.1402                 6.9811                 6.6257

                     28                     29                     30
                      A                      A                      A
 Frequencies --    725.9223               743.8158               777.6085
 Red. masses --      3.4104                 3.7642                 4.0064
 Frc consts  --      1.0588                 1.2270                 1.4273
 IR Inten    --     14.0467                15.5107                 3.0105

                     31                     32                     33
                      A                      A                      A
 Frequencies --    782.0403               806.5584               815.6765
 Red. masses --      1.6714                 2.1921                 1.6678
 Frc consts  --      0.6023                 0.8402                 0.6538
 IR Inten    --      7.9907                50.3243                 9.6650

                     34                     35                     36
                      A                      A                      A
 Frequencies --    867.7512               921.8283               959.2153
 Red. masses --      1.4753                 1.2572                 2.5613
 Frc consts  --      0.6545                 0.6295                 1.3885
 IR Inten    --     44.6843                 0.6704                 0.7851

                     37                     38                     39
                      A                      A                      A
 Frequencies --    977.6046              1021.5829              1033.7389
 Red. masses --      5.7176                 1.5566                 2.3357
 Frc consts  --      3.2195                 0.9571                 1.4706
 IR Inten    --      2.7571                 5.7265                 4.8397

                     40                     41                     42
                      A                      A                      A
 Frequencies --   1055.0854              1073.9331              1087.7150
 Red. masses --      6.7376                 1.4518                 1.6097
 Frc consts  --      4.4191                 0.9865                 1.1221
 IR Inten    --      8.2492                 1.4645                12.5649

                     43                     44                     45
                      A                      A                      A
 Frequencies --   1105.3462              1125.8249              1167.4086
 Red. masses --      3.1281                 1.6704                 1.3040
 Frc consts  --      2.2518                 1.2474                 1.0471
 IR Inten    --      8.0244                24.9497                 3.8790

                     46                     47                     48
                      A                      A                      A
 Frequencies --   1184.9163              1227.2906              1230.8996
 Red. masses --      1.2308                 2.6067                 1.7583
 Frc consts  --      1.0181                 2.3133                 1.5696
 IR Inten    --      9.0207                16.8286                14.4431

                     49                     50                     51
                      A                      A                      A
 Frequencies --   1246.0215              1268.5432              1287.2348
 Red. masses --      2.7506                 2.1707                 1.3014
 Frc consts  --      2.5161                 2.0581                 1.2705
 IR Inten    --      5.1525                60.4421                12.8126

                     52                     53                     54
                      A                      A                      A
 Frequencies --   1334.2904              1343.2076              1378.4284
 Red. masses --      2.9612                 1.3934                 2.5881
 Frc consts  --      3.1061                 1.4812                 2.8973
 IR Inten    --     18.5486                20.0195                63.5066

                     55                     56                     57
                      A                      A                      A
 Frequencies --   1389.4087              1396.3066              1435.0289
 Red. masses --      4.2977                 2.0276                 3.4816
 Frc consts  --      4.8882                 2.3291                 4.2242
 IR Inten    --     13.9761                18.4149                16.6265

                     58                     59                     60
                      A                      A                      A
 Frequencies --   1442.7800              1470.5701              1484.2053
 Red. masses --      1.3644                 1.4741                 2.1672
 Frc consts  --      1.6733                 1.8783                 2.8128
 IR Inten    --      1.9640                 2.8800                 8.4631

                     61                     62                     63
                      A                      A                      A
 Frequencies --   1508.7250              1511.0775              1514.1051
 Red. masses --      1.1153                 1.2096                 1.0457
 Frc consts  --      1.4958                 1.6272                 1.4125
 IR Inten    --      8.7141                16.6788                 7.3789

                     64                     65                     66
                      A                      A                      A
 Frequencies --   1518.3406              1538.8198              1546.5583
 Red. masses --      1.2662                 1.3547                 1.2575
 Frc consts  --      1.7198                 1.8900                 1.7722
 IR Inten    --     12.2865                10.2051                17.7691

                     67                     68                     69
                      A                      A                      A
 Frequencies --   1562.4244              1571.0066              1578.4869
 Red. masses --      3.1683                 2.9930                 2.9810
 Frc consts  --      4.5569                 4.3522                 4.3762
 IR Inten    --     61.8534                41.4364                80.3662

                     70                     71                     72
                      A                      A                      A
 Frequencies --   1645.2729              1680.6436              1699.6790
 Red. masses --      5.0530                 3.1662                 1.3756
 Frc consts  --      8.0589                 5.2691                 2.3413
 IR Inten    --     40.9106                94.9480               129.9966

                     73                     74                     75
                      A                      A                      A
 Frequencies --   3009.6458              3029.0239              3062.1292
 Red. masses --      1.0484                 1.0622                 1.0908
 Frc consts  --      5.5952                 5.7419                 6.0264
 IR Inten    --     59.2654                38.6147                29.8125

                     76                     77                     78
                      A                      A                      A
 Frequencies --   3065.3783              3078.4331              3122.8840
 Red. masses --      1.0387                 1.1010                 1.0975
 Frc consts  --      5.7504                 6.1478                 6.3064
 IR Inten    --     38.7087                16.6083                16.5476

                     79                     80                     81
                      A                      A                      A
 Frequencies --   3140.5002              3168.1305              3176.6037
 Red. masses --      1.0982                 1.0862                 1.1058
 Frc consts  --      6.3815                 6.4234                 6.5746
 IR Inten    --     12.6425                17.5552                 0.9665

                     82                     83                     84
                      A                      A                      A
 Frequencies --   3186.3635              3217.6965              3273.6269
 Red. masses --      1.0944                 1.0903                 1.0980
 Frc consts  --      6.5464                 6.6509                 6.9330
 IR Inten    --     28.0983                 2.2612                 1.5533

                     85                     86                     87
                      A                      A                      A
 Frequencies --   3550.8898              3577.2126              3650.3267
 Red. masses --      1.0478                 1.0758                 1.0981
 Frc consts  --      7.7840                 8.1106                 8.6213
 IR Inten    --      9.5060                 6.4982                 9.6600

 - Thermochemistry -
 -------------------
 Temperature   298.150 Kelvin.  Pressure   1.00000 Atm.
 Atom     1 has atomic number  6 and mass  12.00000

 Molecular mass:   217.13275 amu.
 Principal axes and moments of inertia in atomic units:
                           1         2         3
     Eigenvalues --  1812.088565755.728476700.89831
           X            0.99970  -0.02449  -0.00054
           Y            0.02449   0.99970   0.00304
           Z            0.00046  -0.00305   1.00000
 This molecule is an asymmetric top.
 Rotational symmetry number  1.
 Warning -- assumption of classical behavior for rotation
           may cause significant error
 Rotational temperatures (Kelvin)      0.04780     0.01505     0.01293
 Rotational constants (GHZ):           0.99595     0.31356     0.26933
 Zero-point vibrational energy     682034.1 (Joules/Mol)
                                  163.01005 (Kcal/Mol)
 Warning -- explicit consideration of  23 degrees of freedom as
           vibrations may cause significant error
 Vibrational temperatures:     40.12    58.23    86.75   109.67   162.27
          (Kelvin)            231.31   261.72   278.09   303.44   344.15
                              389.66   410.07   446.84   470.35   521.31
                              582.00   639.35   657.71   683.85   744.66
                              809.76   881.56   891.07   939.67   957.52
                              989.19  1030.49  1044.44  1070.18  1118.81
                             1125.18  1160.46  1173.58  1248.50  1326.31
                             1380.10  1406.56  1469.83  1487.32  1518.03
                             1545.15  1564.98  1590.35  1619.81  1679.64
                             1704.83  1765.80  1770.99  1792.75  1825.15
                             1852.04  1919.75  1932.58  1983.25  1999.05
                             2008.97  2064.69  2075.84  2115.82  2135.44
                             2170.72  2174.10  2178.46  2184.55  2214.02
                             2225.15  2247.98  2260.33  2271.09  2367.18
                             2418.07  2445.46  4330.21  4358.09  4405.72
                             4410.40  4429.18  4493.13  4518.48  4558.23
                             4570.42  4584.47  4629.55  4710.02  5108.94
                             5146.81  5252.01

 Zero-point correction=                           0.259773 (Hartree/Particle)
 Thermal correction to Energy=                    0.274899
 Thermal correction to Enthalpy=                  0.275843
 Thermal correction to Gibbs Free Energy=         0.216594
 Sum of electronic and zero-point Energies=           -701.742031
 Sum of electronic and thermal Energies=              -701.726906
 Sum of electronic and thermal Enthalpies=            -701.725962
 Sum of electronic and thermal Free Energies=         -701.785210

                     E (Thermal)             CV                S
                      KCal/Mol        Cal/Mol-Kelvin    Cal/Mol-Kelvin
 Total                  172.501             57.650            124.700
 Electronic               0.000              0.000              0.000
 Translational            0.889              2.981             42.029
 Rotational               0.889              2.981             32.613
 Vibrational            170.724             51.688             50.057
 Vibration     1          0.593              1.984              5.975
 Vibration     2          0.594              1.981              5.236
 Vibration     3          0.597              1.973              4.448
 Vibration     4          0.599              1.965              3.986
 Vibration     5          0.607              1.939              3.220
 Vibration     6          0.622              1.890              2.541
 Vibration     7          0.630              1.864              2.309
 Vibration     8          0.635              1.849              2.196
 Vibration     9          0.643              1.824              2.036
 Vibration    10          0.657              1.781              1.809
 Vibration    11          0.675              1.727              1.591
 Vibration    12          0.683              1.701              1.503
 Vibration    13          0.699              1.654              1.359
 Vibration    14          0.711              1.622              1.275
 Vibration    15          0.736              1.550              1.112
 Vibration    16          0.770              1.460              0.946
 Vibration    17          0.804              1.373              0.813
 Vibration    18          0.815              1.345              0.775
 Vibration    19          0.832              1.305              0.723
 Vibration    20          0.873              1.211              0.616
 Vibration    21          0.919              1.112              0.518
 Vibration    22          0.972              1.005              0.428
 Vibration    23          0.979              0.991              0.418

 Optimization completed.
    -- Stationary point found.
 Normal termination of Gaussian 16 at Fri Dec 11 00:19:00 2020.

 ----------------------------------------------------------------------
 # B3LYP/6-311++G(d,p) empiricaldispersion=gd3bj scf=xqc pop=npa geom=c
 heck
 ----------------------------------------------------------------------

 --------------------------------------
 CID_62911475_JID_6852_Energie_neutraal
 --------------------------------------
 Structure from the checkpoint file:  "JID_6852.chk"
 Charge =  0 Multiplicity = 1

 SCF Done:  E(RB3LYP) =  -702.197164758     A.U. after   15 cycles
 Normal termination of Gaussian 16 at Fri Dec 11 00:22:43 2020.

 ----------------------------------------------------------------------
 # B3LYP/6-311++G(d,p) empiricaldispersion=gd3bj scf=xqc pop=npa geom=c
 heck
 ----------------------------------------------------------------------

 ------------------------------------
 CID_62911475_JID_6852_Energie_kation
 ------------------------------------
 Structure from the checkpoint file:  "JID_6852.chk"
 Charge =  1 Multiplicity = 2

 SCF Done:  E(UB3LYP) =  -701.936588712     A.U. after   23 cycles
 Normal termination of Gaussian 16 at Fri Dec 11 00:30:39 2020.
 Gaussian 16:  ES64L-G16RevA.03 25-Dec-2016

 ----------------------------------------------------------------------
 # B3LYP/6-311++G(d,p) empiricaldispersion=gd3bj scf=xqc pop=npa geom=c
 heck
 ----------------------------------------------------------------------

 -----------------------------------
 CID_62911475_JID_6852_Energie_anion
 -----------------------------------
 Structure from the checkpoint file:  "JID_6852.chk"
 Charge = -1 Multiplicity = 2

                         Standard orientation:
 ---------------------------------------------------------------------
 Center     Atomic      Atomic             Coordinates (Angstroms)
 Number     Number       Type             X           Y           Z
 ---------------------------------------------------------------------
      1          6           0       -4.572475    0.604977    0.656146
      2          6           0       -3.229563    0.019448    0.305837
      3          6           0       -2.177029    0.851070   -0.128990
      4          6           0       -0.931401    0.304436   -0.472571
      5          6           0       -0.711187   -1.072890   -0.383733
      6          6           0       -1.751558   -1.908114    0.052492
      7          6           0       -2.982561   -1.352532    0.383609
      8          7           0        0.541045   -1.651707   -0.678918
      9          6           0        1.542279   -0.898291   -1.426496
     10          6           0        2.246687    0.121874   -0.584153
     11          7           0        2.322218    1.406341   -0.862444
     12          7           0        3.034397    2.018111    0.152592
     13          6           0        3.358684    1.078241    1.006936
     14          7           0        2.888878   -0.141745    0.599772
     15          6           0        3.054495   -1.424926    1.265598
     16          7           0       -2.387355    2.224439   -0.282625
     17          1           0       -4.518744    1.288154    1.517958
     18          1           0       -4.993600    1.179647   -0.179613
     19          1           0       -5.286732   -0.182010    0.916008
     20          1           0       -0.144336    0.974041   -0.799929
     21          1           0       -1.590300   -2.980223    0.133990
     22          1           0       -3.785471   -2.007298    0.715197
     23          1           0        0.446869   -2.602457   -1.013589
     24          1           0        2.268718   -1.623994   -1.811337
     25          1           0        1.125365   -0.359580   -2.289483
     26          1           0        3.914684    1.216263    1.924027
     27          1           0        2.105437   -1.962409    1.240250
     28          1           0        3.826100   -2.023545    0.769250
     29          1           0        3.355195   -1.249251    2.300417
     30          1           0       -1.537523    2.773856   -0.326641
     31          1           0       -3.058164    2.630967    0.356803
 ---------------------------------------------------------------------

 SCF Done:  E(UB3LYP) =  -702.190899024     A.U. after   33 cycles
 SCF Done:  E(UB3LYP) =  -702.190899023     a.u. after    1 cycles

 The electronic state is 2-A.
 Alpha  occ. eigenvalues --  -14.28567 -14.23172 -14.22725 -14.22589 -14.22373
 Alpha  occ. eigenvalues --  -10.13765 -10.13439 -10.12227 -10.11824 -10.11541
 Alpha  occ. eigenvalues --  -10.11372 -10.08604 -10.07780 -10.07654 -10.06430
 Alpha  occ. eigenvalues --  -10.06396  -0.96619  -0.84367  -0.83187  -0.82708
 Alpha  occ. eigenvalues --   -0.74246  -0.72170  -0.67560  -0.63851  -0.63485
 Alpha  occ. eigenvalues --   -0.61829  -0.57594  -0.53283  -0.51814  -0.50046
 Alpha  occ. eigenvalues --   -0.47916  -0.44316  -0.43147  -0.41989  -0.40044
 Alpha  occ. eigenvalues --   -0.38527  -0.37509  -0.37193  -0.35754  -0.34396
 Alpha  occ. eigenvalues --   -0.33888  -0.33539  -0.33251  -0.32100  -0.31370
 Alpha  occ. eigenvalues --   -0.30325  -0.29982  -0.28231  -0.26597  -0.25406
 Alpha  occ. eigenvalues --   -0.23862  -0.21888  -0.19271  -0.18938  -0.16655
 Alpha  occ. eigenvalues --   -0.16414  -0.12879  -0.10402   0.03865
 Alpha virt. eigenvalues --    0.05371   0.06528   0.07308   0.08108   0.08674
 Alpha virt. eigenvalues --    0.08849   0.08908   0.09699   0.10079   0.10461
 Alpha virt. eigenvalues --    0.10939   0.11410   0.11834   0.12001   0.12719

  Beta  occ. eigenvalues --  -14.28561 -14.23163 -14.22688 -14.22589 -14.22366
  Beta  occ. eigenvalues --  -10.13762 -10.13427 -10.12199 -10.11822 -10.11543
  Beta  occ. eigenvalues --  -10.11303 -10.08592 -10.07776 -10.07654 -10.06417
  Beta  occ. eigenvalues --  -10.06389  -0.96606  -0.84324  -0.83170  -0.82685
  Beta  occ. eigenvalues --   -0.74229  -0.72150  -0.67541  -0.63820  -0.63417
  Beta  occ. eigenvalues --   -0.61786  -0.57551  -0.53263  -0.51794  -0.50010
  Beta  occ. eigenvalues --   -0.47874  -0.44261  -0.43107  -0.41934  -0.39993
  Beta  occ. eigenvalues --   -0.38492  -0.37472  -0.37155  -0.35728  -0.34364
  Beta  occ. eigenvalues --   -0.33869  -0.33506  -0.33220  -0.32048  -0.31326
  Beta  occ. eigenvalues --   -0.30274  -0.29958  -0.28214  -0.26572  -0.25390
  Beta  occ. eigenvalues --   -0.23845  -0.21875  -0.19235  -0.18918  -0.16646
  Beta  occ. eigenvalues --   -0.16387  -0.12864  -0.10384
  Beta virt. eigenvalues --    0.05457   0.06950   0.07206   0.07981   0.08522
  Beta virt. eigenvalues --    0.08793   0.09163   0.09370   0.09794   0.10305
  Beta virt. eigenvalues --    0.10654   0.11207   0.11667   0.11960   0.12281

 Mulliken charges and spin densities:
               1          2
     1  C    0.733562  -1.268596
     2  C    0.825421   0.495288
     3  C   -0.009504  -0.324261
     4  C   -0.087277  -0.282674
     5  C   -0.245007  -0.138542
     6  C   -0.172630  -0.186909
     7  C   -0.744776   0.128048
     8  N   -0.029647   0.073433
     9  C    0.667055  -1.498206
    10  C   -1.154889   0.971166
    11  N   -0.055678   0.054190
    12  N   -0.103562  -0.071293
    13  C    0.124106   0.037725
    14  N   -0.113103   0.170194
    15  C    1.590106  -1.893254
    16  N   -0.306855   0.018103
    17  H    0.020854   0.120310
    18  H    0.092355   0.066586
    19  H    0.047680   0.096122
    20  H    0.219969  -0.071823
    21  H   -0.456247   0.603206
    22  H    0.014404   0.093245
    23  H   -0.133373   0.409447
    24  H   -0.841478   1.071127
    25  H    0.213581  -0.005200
    26  H   -0.311214   0.494992
    27  H   -0.061366   0.279627
    28  H   -0.590073   0.791332
    29  H   -0.510080   0.649813
    30  H    0.211722   0.037241
    31  H    0.165943   0.079561
 Sum of Mulliken charges =  -1.00000   1.00000

 Dipole moment (field-independent basis, Debye):
    X=             -6.7348    Y=              4.6542    Z=              0.3552  Tot=              8.1942
 Quadrupole moment (field-independent basis, Debye-Ang):
   XX=           -164.0720   YY=           -151.5223   ZZ=           -130.5361
   XY=              7.6676   XZ=             -3.5082   YZ=              1.6541

 Summary of Natural Population Analysis:

                                       Natural Population
                Natural  -----------------------------------------------
    Atom  No    Charge         Core      Valence    Rydberg      Total
 -----------------------------------------------------------------------
      C    1   -0.29333      0.99965     2.28892    0.00476     3.29333
      C    2   -0.06228      0.99948     2.05455    0.00825     3.06228
      C    3    0.09521      0.99946     1.89547    0.00985     2.90479
      C    4   -0.15480      0.99948     2.14826    0.00707     3.15480
      C    5    0.09617      0.99948     1.89289    0.01146     2.90383
      C    6   -0.13468      0.99952     2.12463    0.01053     3.13468
      C    7   -0.08485      0.99953     2.07666    0.00865     3.08485
      N    8   -0.31930      0.99968     2.80629    0.01332     3.81930
      C    9   -0.11167      0.99957     2.09915    0.01295     3.11167
      C   10    0.18441      0.99959     1.79747    0.01853     2.81559
      N   11   -0.17051      0.99968     2.65903    0.01179     3.67051
      N   12   -0.16604      0.99973     2.65293    0.01339     3.66604
      C   13    0.09804      0.99963     1.88547    0.01686     2.90196
      N   14   -0.20726      0.99961     2.69668    0.01097     3.70726
      C   15   -0.17774      0.99963     2.17018    0.00793     3.17774
      N   16   -0.39879      0.99971     2.88972    0.00936     3.89879
      H   17    0.09532      0.00000     0.40283    0.00184     0.40468
      H   18    0.10074      0.00000     0.39757    0.00169     0.39926
      H   19    0.10246      0.00000     0.39660    0.00094     0.39754
      H   20    0.11057      0.00000     0.38693    0.00250     0.38943
      H   21    0.10177      0.00000     0.39673    0.00149     0.39823
      H   22    0.09577      0.00000     0.40337    0.00086     0.40423
      H   23    0.19274      0.00000     0.29997    0.00728     0.30726
      H   24    0.11405      0.00000     0.38334    0.00261     0.38595
      H   25    0.10250      0.00000     0.39578    0.00172     0.39750
      H   26    0.09770      0.00000     0.40086    0.00144     0.40230
      H   27    0.11625      0.00000     0.38135    0.00240     0.38375
      H   28    0.10377      0.00000     0.39279    0.00344     0.39623
      H   29    0.10324      0.00000     0.39438    0.00238     0.39676
      H   30    0.18683      0.00000     0.31170    0.00148     0.31317
      H   31    0.18369      0.00000     0.31459    0.00172     0.31631
 =======================================================================
   * Total *    0.00000     15.99343    41.79710    0.20947    58.00000

 Normal termination of Gaussian 16 at Fri Dec 11 00:42:00 2020.
