 Gaussian 16, Revision A.03,

 -----------------------------------------------------------
 # opt freq B3LYP/6-31G(d) empiricaldispersion=gd3bj scf=xqc
 -----------------------------------------------------------

 ------------------------------
 CID_55128386_JID_9594_neutraal
 ------------------------------
 Symbolic Z-matrix:
 Charge =  0 Multiplicity = 1

 SCF Done:  E(RB3LYP) =  -838.334469689     A.U. after   14 cycles
 SCF Done:  E(RB3LYP) =  -838.347550052     A.U. after   13 cycles
 SCF Done:  E(RB3LYP) =  -838.350959028     A.U. after   13 cycles
 SCF Done:  E(RB3LYP) =  -838.352387011     A.U. after   13 cycles
 SCF Done:  E(RB3LYP) =  -838.353141104     A.U. after   12 cycles
 SCF Done:  E(RB3LYP) =  -838.353509929     A.U. after   12 cycles
 SCF Done:  E(RB3LYP) =  -838.353744895     A.U. after   12 cycles
 SCF Done:  E(RB3LYP) =  -838.353938347     A.U. after   12 cycles
 SCF Done:  E(RB3LYP) =  -838.354352602     A.U. after   12 cycles
 SCF Done:  E(RB3LYP) =  -838.354602465     A.U. after   13 cycles
 SCF Done:  E(RB3LYP) =  -838.354863922     A.U. after    8 cycles
 SCF Done:  E(RB3LYP) =  -838.354864149     A.U. after    8 cycles
 SCF Done:  E(RB3LYP) =  -838.354864236     A.U. after    7 cycles
 SCF Done:  E(RB3LYP) =  -838.354864335     A.U. after    8 cycles
 SCF Done:  E(RB3LYP) =  -838.354864365     A.U. after    7 cycles
 Optimization completed.
    -- Stationary point found.
 Normal termination of Gaussian 16 at Mon Dec 14 16:57:28 2020.

 --------------------------------------------------------------------
 #N Geom=AllCheck Guess=TCheck SCRF=Check GenChk RB3LYP/6-31G(d) Freq
 --------------------------------------------------------------------

 Structure from the checkpoint file:  "JID_9594.chk"
 ------------------------------
 CID_55128386_JID_9594_neutraal
 ------------------------------
 Charge =  0 Multiplicity = 1

 SCF Done:  E(RB3LYP) =  -838.354864366     A.U. after    1 cycles

  Exact polarizability: 263.787  -7.567 153.922  -2.968  -7.988 133.603
 Approx polarizability: 316.181  -7.889 253.569  -4.670 -26.233 207.306

                      1                      2                      3
                      A                      A                      A
 Frequencies --     17.4744                24.8830                37.1405
 Red. masses --      4.3440                 3.7133                 3.1948
 Frc consts  --      0.0008                 0.0014                 0.0026
 IR Inten    --      0.0115                 1.2679                 0.6618

                      4                      5                      6
                      A                      A                      A
 Frequencies --     49.9803                53.4694                77.5140
 Red. masses --      3.5183                 3.2031                 3.4506
 Frc consts  --      0.0052                 0.0054                 0.0122
 IR Inten    --      1.6775                 0.0996                 5.8411

                      7                      8                      9
                      A                      A                      A
 Frequencies --     98.6267               123.7162               175.1353
 Red. masses --      4.1933                 3.1838                 3.6624
 Frc consts  --      0.0240                 0.0287                 0.0662
 IR Inten    --      2.8167                 3.6790                 5.5041

                     10                     11                     12
                      A                      A                      A
 Frequencies --    196.7005               206.1648               247.2993
 Red. masses --      2.7774                 3.5428                 1.8190
 Frc consts  --      0.0633                 0.0887                 0.0655
 IR Inten    --      3.8946                 0.5303                 4.7485

                     13                     14                     15
                      A                      A                      A
 Frequencies --    250.2128               265.1416               272.2578
 Red. masses --      1.2995                 1.6875                 1.2489
 Frc consts  --      0.0479                 0.0699                 0.0545
 IR Inten    --      1.6830                16.8104                 5.5186

                     16                     17                     18
                      A                      A                      A
 Frequencies --    280.7389               291.2954               316.9521
 Red. masses --      1.5729                 3.0581                 2.0523
 Frc consts  --      0.0730                 0.1529                 0.1215
 IR Inten    --     22.8885                14.8927                 8.0300

                     19                     20                     21
                      A                      A                      A
 Frequencies --    346.1280               353.0998               403.5027
 Red. masses --      2.4260                 2.6148                 2.7002
 Frc consts  --      0.1712                 0.1921                 0.2590
 IR Inten    --     34.8280                 1.2815                 0.9534

                     22                     23                     24
                      A                      A                      A
 Frequencies --    409.5033               430.7321               441.1818
 Red. masses --      2.7834                 2.0805                 2.0044
 Frc consts  --      0.2750                 0.2274                 0.2299
 IR Inten    --      1.6427                 2.3660                 0.7669

                     25                     26                     27
                      A                      A                      A
 Frequencies --    451.0941               487.2838               496.7083
 Red. masses --      4.2070                 4.2144                 2.7561
 Frc consts  --      0.5044                 0.5896                 0.4006
 IR Inten    --      0.4812                 8.5104                 0.3579

                     28                     29                     30
                      A                      A                      A
 Frequencies --    521.8228               553.2229               583.9912
 Red. masses --      4.1789                 2.9822                 2.5012
 Frc consts  --      0.6704                 0.5378                 0.5026
 IR Inten    --      1.0605                 3.7907                14.8998

                     31                     32                     33
                      A                      A                      A
 Frequencies --    636.1695               661.7785               721.7294
 Red. masses --      2.7069                 7.0879                 3.4018
 Frc consts  --      0.6455                 1.8289                 1.0440
 IR Inten    --     15.9628                 0.4128                 1.1011

                     34                     35                     36
                      A                      A                      A
 Frequencies --    771.0878               786.3060               790.5645
 Red. masses --      4.8757                 2.8522                 2.6527
 Frc consts  --      1.7080                 1.0390                 0.9768
 IR Inten    --      3.3865                12.1688                 4.8626

                     37                     38                     39
                      A                      A                      A
 Frequencies --    827.1640               838.0017               872.1763
 Red. masses --      4.6975                 1.6701                 1.5613
 Frc consts  --      1.8937                 0.6910                 0.6997
 IR Inten    --     11.0314                37.5378                 0.3704

                     40                     41                     42
                      A                      A                      A
 Frequencies --    887.5178               924.1487               938.4198
 Red. masses --      1.3362                 2.8572                 2.1978
 Frc consts  --      0.6201                 1.4377                 1.1403
 IR Inten    --     94.0913                 7.7591                 6.8122

                     43                     44                     45
                      A                      A                      A
 Frequencies --    966.6409               979.3933               991.8775
 Red. masses --      2.5405                 2.5574                 1.2891
 Frc consts  --      1.3986                 1.4453                 0.7472
 IR Inten    --     30.9775                46.8140                 1.7785

                     46                     47                     48
                      A                      A                      A
 Frequencies --   1009.4800              1039.2185              1047.4653
 Red. masses --      1.7036                 2.3777                 3.5023
 Frc consts  --      1.0229                 1.5129                 2.2640
 IR Inten    --     23.5039                40.6003                 9.7170

                     49                     50                     51
                      A                      A                      A
 Frequencies --   1068.7120              1078.6110              1084.0993
 Red. masses --      2.9261                 2.1013                 2.1473
 Frc consts  --      1.9691                 1.4403                 1.4869
 IR Inten    --     15.0591                 4.8837                 9.4172

                     52                     53                     54
                      A                      A                      A
 Frequencies --   1086.3242              1096.5248              1098.7307
 Red. masses --      1.5246                 2.0479                 1.8153
 Frc consts  --      1.0600                 1.4508                 1.2912
 IR Inten    --      7.0045                27.8888                 0.7053

                     55                     56                     57
                      A                      A                      A
 Frequencies --   1130.1142              1135.7206              1162.9972
 Red. masses --      1.2620                 2.1658                 1.5510
 Frc consts  --      0.9496                 1.6459                 1.2360
 IR Inten    --      9.6959                21.8809                 8.3722

                     58                     59                     60
                      A                      A                      A
 Frequencies --   1168.9144              1180.0749              1184.0620
 Red. masses --      2.3162                 2.5702                 1.2411
 Frc consts  --      1.8647                 2.1088                 1.0252
 IR Inten    --     34.4507                55.3316                 9.5070

                     61                     62                     63
                      A                      A                      A
 Frequencies --   1198.2689              1208.0169              1232.7261
 Red. masses --      1.4584                 2.2771                 4.4635
 Frc consts  --      1.2337                 1.9579                 3.9963
 IR Inten    --      3.6933                 5.6958                22.0867

                     64                     65                     66
                      A                      A                      A
 Frequencies --   1247.0699              1256.3954              1277.7725
 Red. masses --      1.1877                 2.1661                 2.2767
 Frc consts  --      1.0883                 2.0146                 2.1900
 IR Inten    --      3.4597                 9.9616                80.6932

                     67                     68                     69
                      A                      A                      A
 Frequencies --   1290.8066              1297.4399              1315.5913
 Red. masses --      1.2782                 1.7401                 1.3774
 Frc consts  --      1.2548                 1.7258                 1.4046
 IR Inten    --    106.9892                36.9315                52.8784

                     70                     71                     72
                      A                      A                      A
 Frequencies --   1330.1586              1341.5590              1351.3351
 Red. masses --      1.7090                 1.7620                 1.3874
 Frc consts  --      1.7815                 1.8684                 1.4927
 IR Inten    --     12.3135                31.3739                14.5529

                     73                     74                     75
                      A                      A                      A
 Frequencies --   1376.1462              1380.8029              1394.2328
 Red. masses --      1.5734                 1.4269                 1.7662
 Frc consts  --      1.7555                 1.6029                 2.0229
 IR Inten    --     16.5131                43.3151                 7.5963

                     76                     77                     78
                      A                      A                      A
 Frequencies --   1410.0983              1411.5852              1427.2353
 Red. masses --      1.4866                 1.3238                 2.0039
 Frc consts  --      1.7416                 1.5541                 2.4050
 IR Inten    --     14.1330                42.7640                 2.4402

                     79                     80                     81
                      A                      A                      A
 Frequencies --   1435.1603              1437.5601              1441.8451
 Red. masses --      1.4541                 1.4772                 1.9928
 Frc consts  --      1.7646                 1.7987                 2.4408
 IR Inten    --      0.3280                49.5014               106.0421

                     82                     83                     84
                      A                      A                      A
 Frequencies --   1453.1601              1463.4154              1491.0933
 Red. masses --      1.5039                 1.1558                 1.1370
 Frc consts  --      1.8711                 1.4583                 1.4895
 IR Inten    --      0.2834                 2.4888                 2.1801

                     85                     86                     87
                      A                      A                      A
 Frequencies --   1501.8110              1504.5305              1507.4676
 Red. masses --      2.6793                 1.0771                 1.0924
 Frc consts  --      3.5605                 1.4365                 1.4625
 IR Inten    --    309.7649                11.2468                16.1303

                     88                     89                     90
                      A                      A                      A
 Frequencies --   1513.4167              1515.6962              1517.3547
 Red. masses --      1.0930                 1.1642                 1.0894
 Frc consts  --      1.4750                 1.5758                 1.4778
 IR Inten    --      1.3808                 6.1372                 1.6455

                     91                     92                     93
                      A                      A                      A
 Frequencies --   1522.1362              1529.3603              1531.9433
 Red. masses --      1.0780                 1.1583                 1.0824
 Frc consts  --      1.4716                 1.5962                 1.4966
 IR Inten    --      3.3808                 7.6585                 4.1933

                     94                     95                     96
                      A                      A                      A
 Frequencies --   1537.9560              1545.2985              1555.5858
 Red. masses --      1.1039                 1.0687                 1.0559
 Frc consts  --      1.5383                 1.5036                 1.5054
 IR Inten    --      1.4423                10.4202                 9.3528

                     97                     98                     99
                      A                      A                      A
 Frequencies --   1598.8269              1651.5528              1695.6676
 Red. masses --      4.8732                 6.0567                 1.0968
 Frc consts  --      7.3395                 9.7335                 1.8580
 IR Inten    --     79.6974               142.0853                26.1569

                    100                    101                    102
                      A                      A                      A
 Frequencies --   2907.9498              2923.7623              2937.1600
 Red. masses --      1.0740                 1.0736                 1.0722
 Frc consts  --      5.3510                 5.4071                 5.4500
 IR Inten    --     51.0978                41.3454               114.8119

                    103                    104                    105
                      A                      A                      A
 Frequencies --   2951.3328              2988.1622              3000.5616
 Red. masses --      1.0597                 1.0723                 1.0720
 Frc consts  --      5.4382                 5.6414                 5.6868
 IR Inten    --     69.6372                55.4382                72.1635

                    106                    107                    108
                      A                      A                      A
 Frequencies --   3003.2718              3012.1342              3026.0813
 Red. masses --      1.0448                 1.0611                 1.0677
 Frc consts  --      5.5525                 5.6720                 5.7605
 IR Inten    --     81.4216                50.7330                46.6566

                    109                    110                    111
                      A                      A                      A
 Frequencies --   3050.2187              3063.6177              3067.0813
 Red. masses --      1.1015                 1.0717                 1.0919
 Frc consts  --      6.0382                 5.9263                 6.0520
 IR Inten    --     30.1707                57.8435                57.0046

                    112                    113                    114
                      A                      A                      A
 Frequencies --   3069.9931              3084.3526              3090.0944
 Red. masses --      1.0900                 1.0913                 1.0902
 Frc consts  --      6.0525                 6.1170                 6.1331
 IR Inten    --      1.6489                 1.6245                73.5445

                    115                    116                    117
                      A                      A                      A
 Frequencies --   3101.6091              3107.7031              3112.8253
 Red. masses --      1.1009                 1.1034                 1.0881
 Frc consts  --      6.2397                 6.2787                 6.2121
 IR Inten    --     49.0623                41.8486                40.3814

                    118                    119                    120
                      A                      A                      A
 Frequencies --   3132.1034              3178.4193              3218.8115
 Red. masses --      1.0893                 1.0895                 1.0883
 Frc consts  --      6.2959                 6.4849                 6.6431
 IR Inten    --     21.8783                 4.8724                 5.6809

                    121                    122                    123
                      A                      A                      A
 Frequencies --   3235.8241              3466.0579              3553.6158
 Red. masses --      1.0944                 1.0499                 1.0926
 Frc consts  --      6.7516                 7.4316                 8.1292
 IR Inten    --     12.3875                 3.3721                 0.9671

 - Thermochemistry -
 -------------------
 Temperature   298.150 Kelvin.  Pressure   1.00000 Atm.
 Atom     1 has atomic number  6 and mass  12.00000

 Molecular mass:   264.20624 amu.
 Principal axes and moments of inertia in atomic units:
                           1         2         3
     Eigenvalues --  1470.26345********************
           X            0.99999  -0.00327   0.00148
           Y            0.00326   0.99999   0.00341
           Z           -0.00149  -0.00340   0.99999
 This molecule is an asymmetric top.
 Rotational symmetry number  1.
 Warning -- assumption of classical behavior for rotation
           may cause significant error
 Rotational temperatures (Kelvin)      0.05891     0.00609     0.00595
 Rotational constants (GHZ):           1.22750     0.12697     0.12399
 Zero-point vibrational energy    1002517.4 (Joules/Mol)
                                  239.60741 (Kcal/Mol)
 Warning -- explicit consideration of  30 degrees of freedom as
           vibrations may cause significant error
 Vibrational temperatures:     25.14    35.80    53.44    71.91    76.93
          (Kelvin)            111.53   141.90   178.00   251.98   283.01
                              296.63   355.81   360.00   381.48   391.72
                              403.92   419.11   456.02   498.00   508.03
                              580.55   589.18   619.73   634.76   649.02
                              701.09   714.65   750.79   795.96   840.23
                              915.31   952.15  1038.41  1109.42  1131.32
                             1137.45  1190.10  1205.70  1254.87  1276.94
                             1329.64  1350.18  1390.78  1409.13  1427.09
                             1452.42  1495.20  1507.07  1537.64  1551.88
                             1559.78  1562.98  1577.65  1580.83  1625.98
                             1634.05  1673.29  1681.81  1697.86  1703.60
                             1724.04  1738.07  1773.62  1794.26  1807.67
                             1838.43  1857.18  1866.73  1892.84  1913.80
                             1930.20  1944.27  1979.97  1986.67  2005.99
                             2028.82  2030.96  2053.47  2064.88  2068.33
                             2074.49  2090.77  2105.53  2145.35  2160.77
                             2164.68  2168.91  2177.47  2180.75  2183.13
                             2190.01  2200.41  2204.12  2212.78  2223.34
                             2238.14  2300.36  2376.22  2439.69  4183.89
                             4206.64  4225.92  4246.31  4299.30  4317.14
                             4321.04  4333.79  4353.86  4388.58  4407.86
                             4412.85  4417.04  4437.70  4445.96  4462.52
                             4471.29  4478.66  4506.40  4573.04  4631.15
                             4655.63  4986.88  5112.86

 Zero-point correction=                           0.381839 (Hartree/Particle)
 Thermal correction to Energy=                    0.401019
 Thermal correction to Enthalpy=                  0.401963
 Thermal correction to Gibbs Free Energy=         0.332105
 Sum of electronic and zero-point Energies=           -837.973026
 Sum of electronic and thermal Energies=              -837.953846
 Sum of electronic and thermal Enthalpies=            -837.952901
 Sum of electronic and thermal Free Energies=         -838.022759

                     E (Thermal)             CV                S
                      KCal/Mol        Cal/Mol-Kelvin    Cal/Mol-Kelvin
 Total                  251.643             72.736            147.028
 Electronic               0.000              0.000              0.000
 Translational            0.889              2.981             42.614
 Rotational               0.889              2.981             34.075
 Vibrational            249.866             66.775             70.339
 Vibration     1          0.593              1.986              6.902
 Vibration     2          0.593              1.985              6.201
 Vibration     3          0.594              1.982              5.406
 Vibration     4          0.595              1.978              4.818
 Vibration     5          0.596              1.976              4.685
 Vibration     6          0.599              1.964              3.953
 Vibration     7          0.604              1.950              3.481
 Vibration     8          0.610              1.929              3.041
 Vibration     9          0.627              1.873              2.380
 Vibration    10          0.636              1.844              2.164
 Vibration    11          0.641              1.831              2.077
 Vibration    12          0.661              1.767              1.750
 Vibration    13          0.663              1.762              1.729
 Vibration    14          0.671              1.737              1.628
 Vibration    15          0.675              1.724              1.582
 Vibration    16          0.680              1.709              1.529
 Vibration    17          0.687              1.690              1.466
 Vibration    18          0.704              1.641              1.326
 Vibration    19          0.724              1.583              1.184
 Vibration    20          0.729              1.569              1.152
 Vibration    21          0.769              1.463              0.950
 Vibration    22          0.774              1.450              0.928
 Vibration    23          0.792              1.403              0.856
 Vibration    24          0.801              1.380              0.823
 Vibration    25          0.810              1.358              0.792
 Vibration    26          0.843              1.278              0.691
 Vibration    27          0.852              1.257              0.666
 Vibration    28          0.877              1.202              0.606
 Vibration    29          0.909              1.133              0.538
 Vibration    30          0.941              1.066              0.478

 Optimization completed.
    -- Stationary point found.
 Normal termination of Gaussian 16 at Mon Dec 14 17:16:13 2020.

 ----------------------------------------------------------------------
 # B3LYP/6-311++G(d,p) empiricaldispersion=gd3bj scf=xqc pop=npa geom=c
 heck
 ----------------------------------------------------------------------

 --------------------------------------
 CID_55128386_JID_9594_Energie_neutraal
 --------------------------------------
 Structure from the checkpoint file:  "JID_9594.chk"
 Charge =  0 Multiplicity = 1

 SCF Done:  E(RB3LYP) =  -838.586459644     A.U. after   14 cycles
 Normal termination of Gaussian 16 at Mon Dec 14 17:25:25 2020.

 ----------------------------------------------------------------------
 # B3LYP/6-311++G(d,p) empiricaldispersion=gd3bj scf=xqc pop=npa geom=c
 heck
 ----------------------------------------------------------------------

 ------------------------------------
 CID_55128386_JID_9594_Energie_kation
 ------------------------------------
 Structure from the checkpoint file:  "JID_9594.chk"
 Charge =  1 Multiplicity = 2

 SCF Done:  E(UB3LYP) =  -838.324911297     A.U. after   28 cycles
 Normal termination of Gaussian 16 at Mon Dec 14 17:52:42 2020.
 Gaussian 16:  ES64L-G16RevA.03 25-Dec-2016

 ----------------------------------------------------------------------
 # B3LYP/6-311++G(d,p) empiricaldispersion=gd3bj scf=xqc pop=npa geom=c
 heck
 ----------------------------------------------------------------------

 -----------------------------------
 CID_55128386_JID_9594_Energie_anion
 -----------------------------------
 Structure from the checkpoint file:  "JID_9594.chk"
 Charge = -1 Multiplicity = 2

                         Standard orientation:
 ---------------------------------------------------------------------
 Center     Atomic      Atomic             Coordinates (Angstroms)
 Number     Number       Type             X           Y           Z
 ---------------------------------------------------------------------
      1          6           0        4.101633    1.700518    1.113911
      2          7           0        5.082483    0.783574    0.551361
      3          6           0        5.472943   -0.247870    1.494063
      4          6           0        4.778940    0.283232   -0.782808
      5          6           0        3.729179   -0.835437   -0.911495
      6          7           0        2.404491   -0.485176   -0.406964
      7          6           0        1.559320   -1.660973   -0.218708
      8          6           0        0.245221   -1.279031    0.447457
      9          7           0       -0.445100   -0.246621   -0.329389
     10          6           0        0.388763    0.907670   -0.635634
     11          6           0        1.711160    0.469766   -1.260485
     12          6           0       -1.815889   -0.117380   -0.189907
     13          7           0       -2.454333   -1.157203    0.381803
     14          7           0       -3.779111   -1.163484    0.499021
     15          6           0       -4.505306   -0.135561    0.061182
     16          6           0       -3.901758    1.001961   -0.501796
     17          6           0       -2.533394    1.023270   -0.630256
     18          6           0       -6.002992   -0.251549    0.209803
     19          7           0       -6.576865    1.016076    0.682828
     20          1           0        4.535148    2.189289    1.995399
     21          1           0        3.158172    1.214787    1.408603
     22          1           0        3.871625    2.481785    0.380394
     23          1           0        4.640280   -0.899690    1.819078
     24          1           0        6.248711   -0.881756    1.048636
     25          1           0        5.894071    0.221133    2.391040
     26          1           0        4.499770    1.143011   -1.403118
     27          1           0        5.709134   -0.113931   -1.214729
     28          1           0        3.691053   -1.158467   -1.972799
     29          1           0        4.072807   -1.704256   -0.339191
     30          1           0        1.350059   -2.169000   -1.180766
     31          1           0        2.086747   -2.372321    0.426339
     32          1           0        0.448593   -0.909176    1.465483
     33          1           0       -0.413637   -2.141272    0.528610
     34          1           0        0.591471    1.498253    0.273605
     35          1           0       -0.120066    1.553566   -1.352939
     36          1           0        2.334131    1.357769   -1.398408
     37          1           0        1.511939    0.040263   -2.262982
     38          1           0       -4.519279    1.842527   -0.800020
     39          1           0       -2.036033    1.891277   -1.044495
     40          1           0       -6.449916   -0.460000   -0.772230
     41          1           0       -6.203378   -1.127257    0.845332
     42          1           0       -7.593065    0.950281    0.686226
     43          1           0       -6.296215    1.171314    1.650342
 ---------------------------------------------------------------------

 SCF Done:  E(UB3LYP) =  -838.581474746     A.U. after   33 cycles
 SCF Done:  E(UB3LYP) =  -838.581474747     a.u. after    1 cycles

 The electronic state is 2-A.
 Alpha  occ. eigenvalues --  -14.22699 -14.21765 -14.21401 -14.20300 -14.19786
 Alpha  occ. eigenvalues --  -14.19467 -10.12533 -10.10897 -10.10507 -10.10487
 Alpha  occ. eigenvalues --  -10.10420 -10.10285 -10.09787 -10.09535 -10.09449
 Alpha  occ. eigenvalues --  -10.09261 -10.07931 -10.05973 -10.05764  -0.88953
 Alpha  occ. eigenvalues --   -0.86012  -0.83545  -0.81944  -0.79068  -0.70015
 Alpha  occ. eigenvalues --   -0.69015  -0.67644  -0.66063  -0.61707  -0.60897
 Alpha  occ. eigenvalues --   -0.58015  -0.55870  -0.54872  -0.52089  -0.49953
 Alpha  occ. eigenvalues --   -0.48347  -0.46465  -0.43499  -0.40559  -0.40482
 Alpha  occ. eigenvalues --   -0.39721  -0.39274  -0.38061  -0.37337  -0.36812
 Alpha  occ. eigenvalues --   -0.35931  -0.35295  -0.34446  -0.34198  -0.33368
 Alpha  occ. eigenvalues --   -0.31643  -0.31029  -0.30425  -0.30062  -0.29578
 Alpha  occ. eigenvalues --   -0.28863  -0.28142  -0.27788  -0.27507  -0.27207
 Alpha  occ. eigenvalues --   -0.26808  -0.26504  -0.24721  -0.24523  -0.20127
 Alpha  occ. eigenvalues --   -0.18857  -0.17892  -0.15365  -0.14378  -0.11645
 Alpha  occ. eigenvalues --   -0.10405  -0.10210   0.03985
 Alpha virt. eigenvalues --    0.05170   0.05890   0.06528   0.06947   0.07807
 Alpha virt. eigenvalues --    0.08687   0.08946   0.09128   0.09334   0.09990
 Alpha virt. eigenvalues --    0.10210   0.10505   0.10873   0.11092   0.11730

  Beta  occ. eigenvalues --  -14.22708 -14.21759 -14.21401 -14.20278 -14.19418
  Beta  occ. eigenvalues --  -14.19268 -10.12578 -10.10890 -10.10492 -10.10470
  Beta  occ. eigenvalues --  -10.10410 -10.10282 -10.09761 -10.09534 -10.09447
  Beta  occ. eigenvalues --  -10.09247 -10.07979 -10.05848 -10.05564  -0.88626
  Beta  occ. eigenvalues --   -0.85893  -0.83502  -0.81902  -0.79025  -0.69798
  Beta  occ. eigenvalues --   -0.68709  -0.67588  -0.65973  -0.61671  -0.60849
  Beta  occ. eigenvalues --   -0.57873  -0.55817  -0.54778  -0.51798  -0.49815
  Beta  occ. eigenvalues --   -0.48299  -0.46409  -0.43440  -0.40495  -0.40397
  Beta  occ. eigenvalues --   -0.39682  -0.39243  -0.38036  -0.37309  -0.36780
  Beta  occ. eigenvalues --   -0.35893  -0.35255  -0.34353  -0.34130  -0.33288
  Beta  occ. eigenvalues --   -0.31581  -0.30793  -0.30269  -0.29967  -0.29546
  Beta  occ. eigenvalues --   -0.28813  -0.27877  -0.27721  -0.27348  -0.27104
  Beta  occ. eigenvalues --   -0.26775  -0.26467  -0.24683  -0.24499  -0.19637
  Beta  occ. eigenvalues --   -0.18463  -0.16709  -0.15242  -0.14341  -0.11621
  Beta  occ. eigenvalues --   -0.09933  -0.09788
  Beta virt. eigenvalues --    0.05757   0.06085   0.06958   0.07169   0.07933
  Beta virt. eigenvalues --    0.08347   0.08814   0.08947   0.09309   0.09468
  Beta virt. eigenvalues --    0.10111   0.10161   0.10484   0.10910   0.11296

 Mulliken charges and spin densities:
               1          2
     1  C   -0.187245  -0.305631
     2  N   -0.039673   0.147651
     3  C    0.360936  -0.693253
     4  C    0.198413  -0.754192
     5  C   -0.526938   0.421600
     6  N    0.306143   0.031018
     7  C    0.001702  -0.147406
     8  C   -0.563755  -0.028369
     9  N    0.177756   0.037718
    10  C   -0.183429  -0.094781
    11  C   -0.149743  -0.588085
    12  C    0.080990  -0.216535
    13  N   -0.357668   0.061691
    14  N    0.137051   0.195745
    15  C   -0.109510  -0.047448
    16  C   -0.273999   0.248129
    17  C    0.027762   0.216633
    18  C   -0.459840  -0.177538
    19  N   -0.325506  -0.028167
    20  H    0.019109   0.114381
    21  H    0.155401   0.017103
    22  H   -0.041581   0.176085
    23  H    0.022792   0.091533
    24  H   -0.262335   0.403256
    25  H    0.004999   0.130348
    26  H   -0.133900   0.269617
    27  H   -0.213659   0.395536
    28  H   -0.076252   0.166701
    29  H    0.004208   0.143686
    30  H    0.143396  -0.021415
    31  H    0.073023   0.072822
    32  H    0.147075  -0.001543
    33  H    0.224488   0.001638
    34  H    0.153944   0.004100
    35  H   -0.042863   0.179151
    36  H    0.125256   0.029298
    37  H    0.014678   0.125732
    38  H    0.185681   0.009037
    39  H    0.013568   0.068629
    40  H    0.098664   0.051559
    41  H    0.116539   0.023653
    42  H    0.017701   0.206152
    43  H    0.136622   0.064162
 Sum of Mulliken charges =  -1.00000   1.00000

 Dipole moment (field-independent basis, Debye):
    X=              0.6546    Y=              0.7013    Z=             -0.2212  Tot=              0.9845
 Quadrupole moment (field-independent basis, Debye-Ang):
   XX=           -249.7123   YY=           -145.9665   ZZ=           -141.7789
   XY=             -3.3648   XZ=              2.4548   YZ=              2.8581

 Summary of Natural Population Analysis:

                                       Natural Population
                Natural  -----------------------------------------------
    Atom  No    Charge         Core      Valence    Rydberg      Total
 -----------------------------------------------------------------------
      C    1   -0.17601      0.99964     2.16936    0.00702     3.17601
      N    2   -0.28169      0.99974     2.76739    0.01456     3.78169
      C    3   -0.17932      0.99964     2.17029    0.00938     3.17932
      C    4   -0.08483      0.99960     2.07255    0.01268     3.08483
      C    5   -0.09328      0.99961     2.08204    0.01163     3.09328
      N    6   -0.28876      0.99970     2.77685    0.01221     3.78876
      C    7   -0.08465      0.99961     2.07612    0.00891     3.08465
      C    8   -0.09004      0.99961     2.08004    0.01039     3.09004
      N    9   -0.25794      0.99964     2.74811    0.01019     3.75794
      C   10   -0.08436      0.99961     2.07316    0.01159     3.08436
      C   11   -0.08940      0.99961     2.07684    0.01295     3.08940
      C   12    0.18459      0.99953     1.80061    0.01527     2.81541
      N   13   -0.13750      0.99968     2.62503    0.01278     3.63750
      N   14   -0.07854      0.99968     2.56450    0.01437     3.57854
      C   15    0.05199      0.99954     1.93423    0.01424     2.94801
      C   16   -0.07621      0.99952     2.06791    0.00878     3.07621
      C   17   -0.09475      0.99953     2.08779    0.00743     3.09475
      C   18   -0.10375      0.99960     2.08908    0.01507     3.10375
      N   19   -0.42254      0.99978     2.91253    0.01023     3.92254
      H   20    0.08939      0.00000     0.40954    0.00108     0.41061
      H   21    0.09024      0.00000     0.40770    0.00205     0.40976
      H   22    0.09260      0.00000     0.40626    0.00114     0.40740
      H   23    0.08153      0.00000     0.41703    0.00144     0.41847
      H   24    0.09510      0.00000     0.40386    0.00104     0.40490
      H   25    0.09371      0.00000     0.40529    0.00100     0.40629
      H   26    0.09429      0.00000     0.40444    0.00127     0.40571
      H   27    0.09574      0.00000     0.40309    0.00117     0.40426
      H   28    0.08304      0.00000     0.41524    0.00172     0.41696
      H   29    0.09557      0.00000     0.40306    0.00137     0.40443
      H   30    0.08149      0.00000     0.41689    0.00162     0.41851
      H   31    0.09625      0.00000     0.40259    0.00116     0.40375
      H   32    0.08599      0.00000     0.41203    0.00198     0.41401
      H   33    0.12023      0.00000     0.37792    0.00185     0.37977
      H   34    0.08668      0.00000     0.41185    0.00147     0.41332
      H   35    0.10155      0.00000     0.39699    0.00146     0.39845
      H   36    0.09851      0.00000     0.40014    0.00136     0.40149
      H   37    0.08241      0.00000     0.41570    0.00189     0.41759
      H   38    0.10480      0.00000     0.39396    0.00125     0.39520
      H   39    0.09645      0.00000     0.40234    0.00121     0.40355
      H   40    0.08906      0.00000     0.40978    0.00116     0.41094
      H   41    0.08876      0.00000     0.40865    0.00259     0.41124
      H   42    0.17153      0.00000     0.32631    0.00216     0.32847
      H   43    0.17210      0.00000     0.32636    0.00154     0.32790
 =======================================================================
   * Total *    0.00000     18.99287    52.75147    0.25567    72.00000

 Normal termination of Gaussian 16 at Mon Dec 14 18:22:57 2020.
