 Gaussian 16, Revision A.03,

 -----------------------------------------------------------
 # opt freq B3LYP/6-31G(d) empiricaldispersion=gd3bj scf=xqc
 -----------------------------------------------------------

 ------------------------------
 CID_79478013_JID_8899_neutraal
 ------------------------------
 Symbolic Z-matrix:
 Charge =  0 Multiplicity = 1

 SCF Done:  E(RB3LYP) =  -1182.82137045     A.U. after   15 cycles
 SCF Done:  E(RB3LYP) =  -1182.83173306     A.U. after   13 cycles
 SCF Done:  E(RB3LYP) =  -1182.83534285     A.U. after   12 cycles
 SCF Done:  E(RB3LYP) =  -1182.83817007     A.U. after   13 cycles
 SCF Done:  E(RB3LYP) =  -1182.84026546     A.U. after   12 cycles
 SCF Done:  E(RB3LYP) =  -1182.84234012     A.U. after   12 cycles
 SCF Done:  E(RB3LYP) =  -1182.84329675     A.U. after   12 cycles
 SCF Done:  E(RB3LYP) =  -1182.84382996     A.U. after   12 cycles
 SCF Done:  E(RB3LYP) =  -1182.84408994     A.U. after   12 cycles
 SCF Done:  E(RB3LYP) =  -1182.84432371     A.U. after   10 cycles
 SCF Done:  E(RB3LYP) =  -1182.84446157     A.U. after    9 cycles
 SCF Done:  E(RB3LYP) =  -1182.84446197     A.U. after    8 cycles
 SCF Done:  E(RB3LYP) =  -1182.84446221     A.U. after    8 cycles
 SCF Done:  E(RB3LYP) =  -1182.84446227     A.U. after    7 cycles
 SCF Done:  E(RB3LYP) =  -1182.84446229     A.U. after    7 cycles
 SCF Done:  E(RB3LYP) =  -1182.84446230     A.U. after    8 cycles
 Optimization completed.
    -- Stationary point found.
 Normal termination of Gaussian 16 at Fri Dec 11 23:02:56 2020.

 --------------------------------------------------------------------
 #N Geom=AllCheck Guess=TCheck SCRF=Check GenChk RB3LYP/6-31G(d) Freq
 --------------------------------------------------------------------

 Structure from the checkpoint file:  "JID_8899.chk"
 ------------------------------
 CID_79478013_JID_8899_neutraal
 ------------------------------
 Charge =  0 Multiplicity = 1

 SCF Done:  E(RB3LYP) =  -1182.84446230     A.U. after    1 cycles

  Exact polarizability: 204.427   2.318 169.129 -19.536   2.832 124.433
 Approx polarizability: 282.856  15.550 268.959 -36.512   9.235 200.788

                      1                      2                      3
                      A                      A                      A
 Frequencies --     15.4136                46.7016                53.1445
 Red. masses --      4.6209                 3.3404                 2.8360
 Frc consts  --      0.0006                 0.0043                 0.0047
 IR Inten    --      0.2844                 0.6676                 0.0801

                      4                      5                      6
                      A                      A                      A
 Frequencies --     62.9578                66.3477                91.2033
 Red. masses --      4.5588                 4.1763                 1.8955
 Frc consts  --      0.0106                 0.0108                 0.0093
 IR Inten    --      1.1130                 0.2729                 0.2120

                      7                      8                      9
                      A                      A                      A
 Frequencies --    108.4062               129.1429               166.3398
 Red. masses --      2.8145                 3.1147                 4.3190
 Frc consts  --      0.0195                 0.0306                 0.0704
 IR Inten    --      0.6964                 1.0034                 2.4793

                     10                     11                     12
                      A                      A                      A
 Frequencies --    200.7042               214.2340               214.9762
 Red. masses --      2.0412                 4.5277                 2.6703
 Frc consts  --      0.0484                 0.1224                 0.0727
 IR Inten    --      1.2555                 2.0740                 0.6914

                     13                     14                     15
                      A                      A                      A
 Frequencies --    227.7294               234.1227               263.7110
 Red. masses --      1.0998                 1.7418                 1.8414
 Frc consts  --      0.0336                 0.0563                 0.0755
 IR Inten    --      0.1607                 1.8436                 0.9521

                     16                     17                     18
                      A                      A                      A
 Frequencies --    279.2774               285.7275               309.5972
 Red. masses --      3.0731                 3.6794                 4.7520
 Frc consts  --      0.1412                 0.1770                 0.2684
 IR Inten    --      0.2732                 1.7436                 1.3802

                     19                     20                     21
                      A                      A                      A
 Frequencies --    317.6318               351.2497               360.4918
 Red. masses --      2.7570                 2.7255                 4.4683
 Frc consts  --      0.1639                 0.1981                 0.3421
 IR Inten    --      1.1191                 2.7822                 0.7693

                     22                     23                     24
                      A                      A                      A
 Frequencies --    398.6993               420.3234               435.3089
 Red. masses --      4.4023                 1.8312                 4.0029
 Frc consts  --      0.4123                 0.1906                 0.4469
 IR Inten    --      1.2817                 0.5696                 7.3326

                     25                     26                     27
                      A                      A                      A
 Frequencies --    464.3046               487.3266               504.4634
 Red. masses --      2.6277                 3.1089                 2.3691
 Frc consts  --      0.3338                 0.4350                 0.3552
 IR Inten    --      1.7358                20.2012                66.8647

                     28                     29                     30
                      A                      A                      A
 Frequencies --    540.3466               556.7206               572.3776
 Red. masses --      2.1129                 3.2425                 2.6383
 Frc consts  --      0.3635                 0.5921                 0.5093
 IR Inten    --     64.9712                31.3593                72.5339

                     31                     32                     33
                      A                      A                      A
 Frequencies --    574.6060               585.5286               604.2751
 Red. masses --      4.4111                 1.8968                 2.7794
 Frc consts  --      0.8581                 0.3832                 0.5979
 IR Inten    --      9.0639                79.1683                94.3775

                     34                     35                     36
                      A                      A                      A
 Frequencies --    686.6154               740.0338               774.0457
 Red. masses --      5.7466                 5.5012                 4.4909
 Frc consts  --      1.5962                 1.7751                 1.5853
 IR Inten    --     43.9042               165.8433                98.2582

                     37                     38                     39
                      A                      A                      A
 Frequencies --    785.5813               800.6562               803.5396
 Red. masses --      1.2996                 1.4134                 1.2205
 Frc consts  --      0.4725                 0.5338                 0.4643
 IR Inten    --      2.3813                 4.2703                 3.6530

                     40                     41                     42
                      A                      A                      A
 Frequencies --    830.8791               878.7677               898.6516
 Red. masses --      2.0663                 1.7697                 5.1513
 Frc consts  --      0.8405                 0.8052                 2.4510
 IR Inten    --      3.2048                43.8878                16.5114

                     43                     44                     45
                      A                      A                      A
 Frequencies --    927.5650               940.8994               982.6981
 Red. masses --      2.0047                 1.8880                 1.3837
 Frc consts  --      1.0162                 0.9848                 0.7873
 IR Inten    --      6.8671                17.9586                 0.3222

                     46                     47                     48
                      A                      A                      A
 Frequencies --    987.4435               991.6880              1005.7062
 Red. masses --      1.3104                 1.2398                 2.4283
 Frc consts  --      0.7528                 0.7184                 1.4471
 IR Inten    --      2.0660                 9.6004                91.6203

                     49                     50                     51
                      A                      A                      A
 Frequencies --   1027.6036              1035.1277              1063.0852
 Red. masses --      1.6944                 3.7938                 2.5683
 Frc consts  --      1.0542                 2.3951                 1.7102
 IR Inten    --     13.2331                11.8942                 6.0934

                     52                     53                     54
                      A                      A                      A
 Frequencies --   1084.9873              1106.1376              1114.0940
 Red. masses --      3.1367                 2.1151                 2.5368
 Frc consts  --      2.1756                 1.5248                 1.8552
 IR Inten    --     75.1000                12.5353                49.4223

                     55                     56                     57
                      A                      A                      A
 Frequencies --   1126.0424              1130.1038              1167.4055
 Red. masses --      2.8354                 1.8967                 2.2012
 Frc consts  --      2.1182                 1.4272                 1.7675
 IR Inten    --     56.9129                24.2772                 1.1436

                     58                     59                     60
                      A                      A                      A
 Frequencies --   1177.5007              1195.9552              1218.7199
 Red. masses --      1.2674                 1.9879                 2.5573
 Frc consts  --      1.0354                 1.6752                 2.2379
 IR Inten    --      5.8776                 3.7215                23.7676

                     61                     62                     63
                      A                      A                      A
 Frequencies --   1224.9115              1290.6492              1300.1126
 Red. masses --      2.3731                 7.3973                 1.8526
 Frc consts  --      2.0979                 7.2600                 1.8449
 IR Inten    --     36.2200               144.8926                18.4227

                     64                     65                     66
                      A                      A                      A
 Frequencies --   1302.2309              1327.5676              1336.0059
 Red. masses --      1.5122                 1.2698                 1.1309
 Frc consts  --      1.5109                 1.3186                 1.1893
 IR Inten    --     26.2819                 5.6732                 0.8336

                     67                     68                     69
                      A                      A                      A
 Frequencies --   1346.7866              1376.2431              1379.7925
 Red. masses --      3.4572                 1.2717                 1.9236
 Frc consts  --      3.6947                 1.4192                 2.1577
 IR Inten    --     14.5770                 9.6923                 3.0852

                     70                     71                     72
                      A                      A                      A
 Frequencies --   1397.1974              1402.8252              1407.9809
 Red. masses --      1.2705                 1.4082                 1.2555
 Frc consts  --      1.4614                 1.6328                 1.4665
 IR Inten    --      4.4229                 7.5145                 1.0840

                     73                     74                     75
                      A                      A                      A
 Frequencies --   1423.0314              1441.7100              1442.0870
 Red. masses --      1.3641                 1.2525                 1.2394
 Frc consts  --      1.6275                 1.5339                 1.5186
 IR Inten    --     10.6674                 7.3853                15.4200

                     76                     77                     78
                      A                      A                      A
 Frequencies --   1443.0200              1492.1169              1504.6018
 Red. masses --      1.3130                 2.5061                 1.0919
 Frc consts  --      1.6108                 3.2874                 1.4564
 IR Inten    --      8.0683                58.1568                 3.8662

                     79                     80                     81
                      A                      A                      A
 Frequencies --   1514.6193              1516.0487              1521.3494
 Red. masses --      2.0686                 1.1631                 1.0546
 Frc consts  --      2.7959                 1.5751                 1.4381
 IR Inten    --     86.3640                20.5860                 0.5724

                     82                     83                     84
                      A                      A                      A
 Frequencies --   1524.5407              1528.5183              1529.1430
 Red. masses --      1.0631                 1.0500                 1.0623
 Frc consts  --      1.4558                 1.4454                 1.4635
 IR Inten    --      3.2905                11.4042                 3.2882

                     85                     86                     87
                      A                      A                      A
 Frequencies --   1538.3722              1541.5160              1544.8964
 Red. masses --      1.0700                 1.0633                 1.0475
 Frc consts  --      1.4919                 1.4887                 1.4731
 IR Inten    --      7.1589                 3.5187                 6.3578

                     88                     89                     90
                      A                      A                      A
 Frequencies --   1611.7181              1640.7983              1677.9104
 Red. masses --      5.4492                 2.6543                 1.8059
 Frc consts  --      8.3400                 4.2102                 2.9956
 IR Inten    --     73.3652                27.9128               288.4591

                     91                     92                     93
                      A                      A                      A
 Frequencies --   3018.1100              3037.5396              3048.0486
 Red. masses --      1.0609                 1.0468                 1.0483
 Frc consts  --      5.6935                 5.6908                 5.7383
 IR Inten    --     24.5659                18.1739                25.6567

                     94                     95                     96
                      A                      A                      A
 Frequencies --   3050.0000              3057.4541              3060.9523
 Red. masses --      1.0815                 1.0501                 1.0590
 Frc consts  --      5.9277                 5.7838                 5.8459
 IR Inten    --      8.0403                11.7271                29.3408

                     97                     98                     99
                      A                      A                      A
 Frequencies --   3070.1527              3073.9824              3107.7453
 Red. masses --      1.0719                 1.0673                 1.1033
 Frc consts  --      5.9528                 5.9422                 6.2781
 IR Inten    --     13.3543                43.0030                 5.6545

                    100                    101                    102
                      A                      A                      A
 Frequencies --   3112.0004              3112.8364              3118.9188
 Red. masses --      1.1005                 1.0959                 1.1014
 Frc consts  --      6.2793                 6.2565                 6.3127
 IR Inten    --     53.0229                15.1693                32.5976

                    103                    104                    105
                      A                      A                      A
 Frequencies --   3122.7088              3123.1270              3140.0264
 Red. masses --      1.0996                 1.1016                 1.1010
 Frc consts  --      6.3175                 6.3308                 6.3957
 IR Inten    --     47.6576                28.7306                26.3978

                    106                    107                    108
                      A                      A                      A
 Frequencies --   3163.0816              3174.5916              3220.6304
 Red. masses --      1.1011                 1.0899                 1.0891
 Frc consts  --      6.4908                 6.4715                 6.6561
 IR Inten    --     10.0842                29.2209                 4.3870

                    109                    110                    111
                      A                      A                      A
 Frequencies --   3233.3840              3544.0977              3671.5741
 Red. masses --      1.0963                 1.0481                 1.1008
 Frc consts  --      6.7527                 7.7567                 8.7434
 IR Inten    --      8.4102                63.0652                75.4156

 - Thermochemistry -
 -------------------
 Temperature   298.150 Kelvin.  Pressure   1.00000 Atm.
 Atom     1 has atomic number  6 and mass  12.00000

 Molecular mass:   271.13545 amu.
 Principal axes and moments of inertia in atomic units:
                           1         2         3
     Eigenvalues --  3239.011706464.315087849.57492
           X            0.99971   0.02420  -0.00128
           Y           -0.02423   0.99902  -0.03691
           Z            0.00038   0.03693   0.99932
 This molecule is an asymmetric top.
 Rotational symmetry number  1.
 Warning -- assumption of classical behavior for rotation
           may cause significant error
 Rotational temperatures (Kelvin)      0.02674     0.01340     0.01103
 Rotational constants (GHZ):           0.55719     0.27919     0.22992
 Zero-point vibrational energy     875751.3 (Joules/Mol)
                                  209.30959 (Kcal/Mol)
 Warning -- explicit consideration of  33 degrees of freedom as
           vibrations may cause significant error
 Vibrational temperatures:     22.18    67.19    76.46    90.58    95.46
          (Kelvin)            131.22   155.97   185.81   239.33   288.77
                              308.24   309.30   327.65   336.85   379.42
                              401.82   411.10   445.44   457.00   505.37
                              518.67   573.64   604.75   626.31   668.03
                              701.15   725.81   777.44   801.00   823.52
                              826.73   842.45   869.42   987.89  1064.74
                             1113.68  1130.28  1151.97  1156.11  1195.45
                             1264.35  1292.96  1334.56  1353.74  1413.88
                             1420.71  1426.82  1446.99  1478.49  1489.32
                             1529.54  1561.05  1591.49  1602.93  1620.12
                             1625.97  1679.64  1694.16  1720.71  1753.47
                             1762.37  1856.96  1870.57  1873.62  1910.07
                             1922.21  1937.73  1980.11  1985.21  2010.26
                             2018.35  2025.77  2047.42  2074.30  2074.84
                             2076.18  2146.82  2164.79  2179.20  2181.26
                             2188.88  2193.47  2199.20  2200.10  2213.37
                             2217.90  2222.76  2318.90  2360.74  2414.14
                             4342.39  4370.34  4385.46  4388.27  4398.99
                             4404.03  4417.26  4422.78  4471.35  4477.47
                             4478.68  4487.43  4492.88  4493.48  4517.80
                             4550.97  4567.53  4633.77  4652.12  5099.17
                             5282.58

 Zero-point correction=                           0.333556 (Hartree/Particle)
 Thermal correction to Energy=                    0.352969
 Thermal correction to Enthalpy=                  0.353914
 Thermal correction to Gibbs Free Energy=         0.285019
 Sum of electronic and zero-point Energies=          -1182.510906
 Sum of electronic and thermal Energies=             -1182.491493
 Sum of electronic and thermal Enthalpies=           -1182.490549
 Sum of electronic and thermal Free Energies=        -1182.559444

                     E (Thermal)             CV                S
                      KCal/Mol        Cal/Mol-Kelvin    Cal/Mol-Kelvin
 Total                  221.492             73.280            145.001
 Electronic               0.000              0.000              0.000
 Translational            0.889              2.981             42.691
 Rotational               0.889              2.981             33.463
 Vibrational            219.714             67.318             68.847
 Vibration     1          0.593              1.986              7.152
 Vibration     2          0.595              1.979              4.952
 Vibration     3          0.596              1.976              4.697
 Vibration     4          0.597              1.972              4.362
 Vibration     5          0.598              1.970              4.259
 Vibration     6          0.602              1.955              3.634
 Vibration     7          0.606              1.942              3.297
 Vibration     8          0.612              1.924              2.959
 Vibration     9          0.624              1.884              2.476
 Vibration    10          0.638              1.839              2.127
 Vibration    11          0.644              1.819              2.007
 Vibration    12          0.645              1.818              2.001
 Vibration    13          0.651              1.799              1.897
 Vibration    14          0.654              1.789              1.847
 Vibration    15          0.670              1.739              1.637
 Vibration    16          0.680              1.712              1.538
 Vibration    17          0.684              1.700              1.499
 Vibration    18          0.699              1.655              1.364
 Vibration    19          0.704              1.640              1.322
 Vibration    20          0.728              1.573              1.161
 Vibration    21          0.735              1.554              1.120
 Vibration    22          0.765              1.473              0.967
 Vibration    23          0.783              1.426              0.891
 Vibration    24          0.796              1.393              0.841
 Vibration    25          0.822              1.329              0.754
 Vibration    26          0.843              1.278              0.691
 Vibration    27          0.860              1.240              0.647
 Vibration    28          0.895              1.161              0.565
 Vibration    29          0.912              1.125              0.530
 Vibration    30          0.929              1.091              0.500
 Vibration    31          0.931              1.086              0.495
 Vibration    32          0.943              1.063              0.475
 Vibration    33          0.963              1.023              0.442

                           ! Non-Optimized Parameters !
 Normal termination of Gaussian 16 at Fri Dec 11 23:21:34 2020.

 ----------------------------------------------------------------------
 # B3LYP/6-311++G(d,p) empiricaldispersion=gd3bj scf=xqc pop=npa geom=c
 heck
 ----------------------------------------------------------------------

 --------------------------------------
 CID_79478013_JID_8899_Energie_neutraal
 --------------------------------------
 Structure from the checkpoint file:  "JID_8899.chk"
 Charge =  0 Multiplicity = 1

 SCF Done:  E(RB3LYP) =  -1183.09436349     A.U. after   16 cycles
 Normal termination of Gaussian 16 at Fri Dec 11 23:29:40 2020.

 ----------------------------------------------------------------------
 # B3LYP/6-311++G(d,p) empiricaldispersion=gd3bj scf=xqc pop=npa geom=c
 heck
 ----------------------------------------------------------------------

 ------------------------------------
 CID_79478013_JID_8899_Energie_kation
 ------------------------------------
 Structure from the checkpoint file:  "JID_8899.chk"
 Charge =  1 Multiplicity = 2

 SCF Done:  E(UB3LYP) =  -1182.79321889     A.U. after   25 cycles
 Normal termination of Gaussian 16 at Fri Dec 11 23:46:42 2020.
 Gaussian 16:  ES64L-G16RevA.03 25-Dec-2016

 ----------------------------------------------------------------------
 # B3LYP/6-311++G(d,p) empiricaldispersion=gd3bj scf=xqc pop=npa geom=c
 heck
 ----------------------------------------------------------------------

 -----------------------------------
 CID_79478013_JID_8899_Energie_anion
 -----------------------------------
 Structure from the checkpoint file:  "JID_8899.chk"
 Charge = -1 Multiplicity = 2

                         Standard orientation:
 ---------------------------------------------------------------------
 Center     Atomic      Atomic             Coordinates (Angstroms)
 Number     Number       Type             X           Y           Z
 ---------------------------------------------------------------------
      1          6           0       -4.795953   -1.738487    0.145132
      2          6           0       -4.088533   -0.380852    0.134653
      3          6           0       -2.584120   -0.456104   -0.176514
      4          6           0       -2.290849   -0.977579   -1.585129
      5          6           0       -1.961624    0.928539    0.048756
      6          7           0       -0.516144    0.983305   -0.247602
      7          6           0       -0.072005    1.802544   -1.386832
      8          6           0       -0.240429    3.312510   -1.209512
      9         16           0        0.551879    0.823797    1.028993
     10          8           0        1.172405    2.106003    1.389189
     11          8           0       -0.167536    0.050837    2.058541
     12          6           0        1.832017   -0.193699    0.327824
     13          6           0        1.647768   -1.586263    0.114057
     14          7           0        2.602453   -2.327551   -0.476816
     15          6           0        3.738408   -1.731819   -0.842355
     16          6           0        4.023863   -0.381809   -0.635397
     17          6           0        3.039081    0.396628   -0.032882
     18          7           0        0.500576   -2.236696    0.466518
     19          1           0       -4.776208   -2.215998   -0.840102
     20          1           0       -5.845923   -1.631250    0.438590
     21          1           0       -4.318741   -2.422858    0.857096
     22          1           0       -4.574696    0.280833   -0.597664
     23          1           0       -4.222265    0.096849    1.115160
     24          1           0       -2.123043   -1.141010    0.545219
     25          1           0       -2.749312   -0.331075   -2.346164
     26          1           0       -1.212379   -1.015165   -1.761328
     27          1           0       -2.683086   -1.989075   -1.727730
     28          1           0       -2.443423    1.657815   -0.612583
     29          1           0       -2.151208    1.257395    1.074065
     30          1           0        0.975960    1.555726   -1.584172
     31          1           0       -0.638127    1.447265   -2.254316
     32          1           0        0.353794    3.668480   -0.365322
     33          1           0        0.084611    3.832299   -2.118025
     34          1           0       -1.288069    3.577788   -1.030482
     35          1           0        4.470341   -2.379178   -1.322499
     36          1           0        4.976608    0.040350   -0.934047
     37          1           0        3.183987    1.453138    0.166008
     38          1           0        0.567106   -3.245035    0.433259
     39          1           0       -0.048883   -1.827812    1.213805
 ---------------------------------------------------------------------

 SCF Done:  E(UB3LYP) =  -1183.09519253     A.U. after   31 cycles

 The electronic state is 2-A.
 Alpha  occ. eigenvalues --  -88.94169 -18.99926 -18.99687 -14.22783 -14.20425
 Alpha  occ. eigenvalues --  -14.16712 -10.12910 -10.10701 -10.10139 -10.07305
 Alpha  occ. eigenvalues --  -10.07219 -10.07174 -10.06329 -10.06197 -10.06193
 Alpha  occ. eigenvalues --  -10.05623 -10.04942 -10.04487  -8.00272  -5.96564
 Alpha  occ. eigenvalues --   -5.96562  -5.96333  -0.99962  -0.89023  -0.84322
 Alpha  occ. eigenvalues --   -0.82791  -0.77016  -0.71661  -0.68581  -0.65889
 Alpha  occ. eigenvalues --   -0.64207  -0.62488  -0.59364  -0.55886  -0.54003
 Alpha  occ. eigenvalues --   -0.51884  -0.50323  -0.47388  -0.46259  -0.42035
 Alpha  occ. eigenvalues --   -0.40942  -0.40265  -0.39072  -0.38464  -0.37169
 Alpha  occ. eigenvalues --   -0.35823  -0.34600  -0.34043  -0.33365  -0.32772
 Alpha  occ. eigenvalues --   -0.32435  -0.31298  -0.30505  -0.29490  -0.28904
 Alpha  occ. eigenvalues --   -0.28342  -0.27593  -0.27295  -0.26710  -0.26321
 Alpha  occ. eigenvalues --   -0.25753  -0.23868  -0.23320  -0.22974  -0.22321
 Alpha  occ. eigenvalues --   -0.21328  -0.20359  -0.19676  -0.19492  -0.16952
 Alpha  occ. eigenvalues --   -0.13773  -0.13679  -0.10477   0.04311
 Alpha virt. eigenvalues --    0.05967   0.06882   0.08092   0.08431   0.08863
 Alpha virt. eigenvalues --    0.09052   0.09994   0.10471   0.10647   0.11151
 Alpha virt. eigenvalues --    0.11218   0.11906   0.12178   0.12827   0.13110

  Beta  occ. eigenvalues --  -88.94157 -18.99891 -18.99675 -14.22742 -14.20422
  Beta  occ. eigenvalues --  -14.16528 -10.12931 -10.10697 -10.10109 -10.07288
  Beta  occ. eigenvalues --  -10.07218 -10.07161 -10.06183 -10.06011 -10.05974
  Beta  occ. eigenvalues --  -10.05613 -10.04637 -10.04582  -8.00260  -5.96556
  Beta  occ. eigenvalues --   -5.96518  -5.96330  -0.99871  -0.88967  -0.84110
  Beta  occ. eigenvalues --   -0.82716  -0.76774  -0.71635  -0.68085  -0.65852
  Beta  occ. eigenvalues --   -0.64084  -0.62260  -0.59248  -0.55709  -0.53960
  Beta  occ. eigenvalues --   -0.51506  -0.50078  -0.47323  -0.46181  -0.41949
  Beta  occ. eigenvalues --   -0.40775  -0.40073  -0.38987  -0.38396  -0.37131
  Beta  occ. eigenvalues --   -0.35786  -0.34510  -0.33981  -0.33286  -0.32669
  Beta  occ. eigenvalues --   -0.32382  -0.31251  -0.30336  -0.29371  -0.28477
  Beta  occ. eigenvalues --   -0.28281  -0.27380  -0.27263  -0.26597  -0.26200
  Beta  occ. eigenvalues --   -0.25714  -0.23831  -0.23272  -0.22951  -0.22257
  Beta  occ. eigenvalues --   -0.21134  -0.19867  -0.19422  -0.19360  -0.15524
  Beta  occ. eigenvalues --   -0.13465  -0.13400  -0.09849
  Beta virt. eigenvalues --    0.06223   0.07100   0.08162   0.08457   0.08821
  Beta virt. eigenvalues --    0.09067   0.09825   0.10042   0.10449   0.10732
  Beta virt. eigenvalues --    0.11200   0.11390   0.11983   0.12146   0.12789

 Mulliken charges and spin densities:
               1          2
     1  C   -0.057161  -0.591397
     2  C   -0.706776   0.249880
     3  C    0.744332   0.250933
     4  C   -0.088550  -0.620381
     5  C   -0.678441  -0.316952
     6  N    0.198002   0.079210
     7  C   -0.416076   0.236645
     8  C   -0.084500  -0.454177
     9  S    0.283747  -0.357653
    10  O    0.036584  -0.003017
    11  O   -0.247914   0.001798
    12  C    0.231091   0.178670
    13  C   -1.171227  -0.035967
    14  N   -0.067962   0.056793
    15  C   -0.307942   0.252247
    16  C   -0.361122  -0.023259
    17  C    0.217071   0.403521
    18  N   -0.244305   0.024336
    19  H    0.032383   0.106108
    20  H   -0.113306   0.251701
    21  H    0.067590   0.072021
    22  H   -0.191669   0.313228
    23  H    0.030694   0.096335
    24  H    0.107163  -0.023734
    25  H    0.007024   0.152659
    26  H    0.187409  -0.015713
    27  H    0.110802   0.005448
    28  H    0.056904   0.115344
    29  H    0.246028  -0.005910
    30  H    0.144159   0.045575
    31  H    0.033719   0.120634
    32  H    0.171390   0.019325
    33  H   -0.045120   0.172020
    34  H   -0.075086   0.194648
    35  H    0.132921  -0.022325
    36  H    0.120905   0.013185
    37  H    0.199901  -0.000336
    38  H    0.287030   0.003844
    39  H    0.210307   0.054713
 Sum of Mulliken charges =  -1.00000   1.00000

 Dipole moment (field-independent basis, Debye):
    X=             -1.1931    Y=             -0.2586    Z=             -1.0245  Tot=              1.5937
 Quadrupole moment (field-independent basis, Debye-Ang):
   XX=           -179.1774   YY=           -150.1181   ZZ=           -145.2328
   XY=              6.8990   XZ=             -4.1972   YZ=             -4.6576

 Summary of Natural Population Analysis:

                                       Natural Population
                Natural  -----------------------------------------------
    Atom  No    Charge         Core      Valence    Rydberg      Total
 -----------------------------------------------------------------------
      C    1   -0.28317      0.99967     2.27934    0.00416     3.28317
      C    2   -0.18838      0.99962     2.18030    0.00846     3.18838
      C    3   -0.12137      0.99959     2.11128    0.01050     3.12137
      C    4   -0.29019      0.99965     2.28360    0.00694     3.29019
      C    5   -0.08109      0.99957     2.06839    0.01313     3.08109
      N    6   -0.37860      0.99972     2.86407    0.01482     3.87860
      C    7   -0.08931      0.99961     2.07815    0.01155     3.08931
      C    8   -0.29650      0.99966     2.29268    0.00416     3.29650
      S    9    1.12869      4.99910     1.77355    0.09866     6.87131
      O   10   -0.47160      0.99991     3.46620    0.00549     4.47160
      O   11   -0.48093      0.99990     3.47551    0.00552     4.48093
      C   12   -0.16616      0.99932     2.15162    0.01521     3.16616
      C   13    0.20316      0.99951     1.78174    0.01559     2.79684
      N   14   -0.24912      0.99967     2.73692    0.01252     3.74912
      C   15    0.10173      0.99961     1.88451    0.01415     2.89827
      C   16   -0.17618      0.99956     2.16753    0.00910     3.17618
      C   17   -0.01547      0.99952     2.00583    0.01012     3.01547
      N   18   -0.39944      0.99969     2.89061    0.00914     3.89944
      H   19    0.09584      0.00000     0.40311    0.00104     0.40416
      H   20    0.09687      0.00000     0.40226    0.00087     0.40313
      H   21    0.09542      0.00000     0.40355    0.00102     0.40458
      H   22    0.09331      0.00000     0.40539    0.00130     0.40669
      H   23    0.09580      0.00000     0.40316    0.00104     0.40420
      H   24    0.09912      0.00000     0.39835    0.00253     0.40088
      H   25    0.09209      0.00000     0.40703    0.00088     0.40791
      H   26    0.11079      0.00000     0.38789    0.00131     0.38921
      H   27    0.09725      0.00000     0.40193    0.00082     0.40275
      H   28    0.09568      0.00000     0.40291    0.00141     0.40432
      H   29    0.10522      0.00000     0.39346    0.00132     0.39478
      H   30    0.10774      0.00000     0.39104    0.00122     0.39226
      H   31    0.09573      0.00000     0.40324    0.00104     0.40427
      H   32    0.11191      0.00000     0.38688    0.00121     0.38809
      H   33    0.09589      0.00000     0.40318    0.00093     0.40411
      H   34    0.09536      0.00000     0.40352    0.00112     0.40464
      H   35    0.07649      0.00000     0.42219    0.00132     0.42351
      H   36    0.09667      0.00000     0.40230    0.00103     0.40333
      H   37    0.10626      0.00000     0.39262    0.00112     0.39374
      H   38    0.18817      0.00000     0.30917    0.00266     0.31183
      H   39    0.20232      0.00000     0.29554    0.00214     0.29768
 =======================================================================
   * Total *    0.00000     21.99289    50.71057    0.29654    73.00000

 Normal termination of Gaussian 16 at Sat Dec 12 00:07:41 2020.
