 Gaussian 16, Revision A.03,

 -----------------------------------------------------------
 # opt freq B3LYP/6-31G(d) empiricaldispersion=gd3bj scf=xqc
 -----------------------------------------------------------

 ------------------------------
 CID_21998473_JID_4119_neutraal
 ------------------------------
 Symbolic Z-matrix:
 Charge =  0 Multiplicity = 1

 SCF Done:  E(RB3LYP) =  -619.728966029     A.U. after   13 cycles
 SCF Done:  E(RB3LYP) =  -619.731183989     A.U. after   13 cycles
 SCF Done:  E(RB3LYP) =  -619.732578641     A.U. after   12 cycles
 SCF Done:  E(RB3LYP) =  -619.610515203     A.U. after   15 cycles
 SCF Done:  E(RB3LYP) =  -619.729205423     A.U. after   13 cycles
 SCF Done:  E(RB3LYP) =  -619.733147299     A.U. after   11 cycles
 SCF Done:  E(RB3LYP) =  -619.728178715     A.U. after   13 cycles
 SCF Done:  E(RB3LYP) =  -619.735027065     A.U. after   12 cycles
 SCF Done:  E(RB3LYP) =  -619.736012721     A.U. after   12 cycles
 SCF Done:  E(RB3LYP) =  -619.737382671     A.U. after   12 cycles
 SCF Done:  E(RB3LYP) =  -619.742068267     A.U. after   10 cycles
 SCF Done:  E(RB3LYP) =  -619.742075896     A.U. after    9 cycles
 SCF Done:  E(RB3LYP) =  -619.742076541     A.U. after    8 cycles
 SCF Done:  E(RB3LYP) =  -619.742076730     A.U. after    8 cycles
 SCF Done:  E(RB3LYP) =  -619.742076838     A.U. after    7 cycles
 Optimization completed.
    -- Stationary point found.
 Normal termination of Gaussian 16 at Thu Dec 10 09:56:38 2020.

 --------------------------------------------------------------------
 #N Geom=AllCheck Guess=TCheck SCRF=Check GenChk RB3LYP/6-31G(d) Freq
 --------------------------------------------------------------------

 Structure from the checkpoint file:  "JID_4119.chk"
 ------------------------------
 CID_21998473_JID_4119_neutraal
 ------------------------------
 Charge =  0 Multiplicity = 1

 SCF Done:  E(RB3LYP) =  -619.742076838     A.U. after    1 cycles

  Exact polarizability: 179.496   0.370 101.292  -1.654   2.871 122.446
 Approx polarizability: 239.855   0.242 138.383  -5.332   9.607 215.550

                      1                      2                      3
                      A                      A                      A
 Frequencies --     32.5659                39.2366                50.3472
 Red. masses --      3.1039                 4.8846                 3.4220
 Frc consts  --      0.0019                 0.0044                 0.0051
 IR Inten    --      0.1601                 0.9582                 0.5223

                      4                      5                      6
                      A                      A                      A
 Frequencies --     70.7931                73.7478                88.4742
 Red. masses --      4.2763                 3.6789                 4.1962
 Frc consts  --      0.0126                 0.0118                 0.0194
 IR Inten    --      1.2067                 0.7595                 1.0847

                      7                      8                      9
                      A                      A                      A
 Frequencies --    117.7459               127.8924               151.5195
 Red. masses --      4.6190                 5.3667                 2.9876
 Frc consts  --      0.0377                 0.0517                 0.0404
 IR Inten    --      8.7692                 3.2048                 0.1477

                     10                     11                     12
                      A                      A                      A
 Frequencies --    161.4653               239.7989               240.6403
 Red. masses --      3.0103                 1.1242                 1.0713
 Frc consts  --      0.0462                 0.0381                 0.0366
 IR Inten    --      0.9809                 0.1297                 8.4731

                     13                     14                     15
                      A                      A                      A
 Frequencies --    246.6872               252.3299               262.6509
 Red. masses --      1.1572                 1.2908                 2.7388
 Frc consts  --      0.0415                 0.0484                 0.1113
 IR Inten    --     73.1939                16.4302                 2.7193

                     16                     17                     18
                      A                      A                      A
 Frequencies --    272.2562               288.1081               296.1827
 Red. masses --      1.1032                 1.6030                 3.3063
 Frc consts  --      0.0482                 0.0784                 0.1709
 IR Inten    --      1.0311                 0.2654                 0.2661

                     19                     20                     21
                      A                      A                      A
 Frequencies --    338.4939               419.9000               436.8951
 Red. masses --      2.3916                 3.0669                 2.6080
 Frc consts  --      0.1614                 0.3186                 0.2933
 IR Inten    --      0.1864                 0.3053                 0.3782

                     22                     23                     24
                      A                      A                      A
 Frequencies --    460.0427               512.6153               532.6053
 Red. masses --      4.0241                 2.8394                 1.1194
 Frc consts  --      0.5018                 0.4396                 0.1871
 IR Inten    --      0.0393                 0.1623               218.8352

                     25                     26                     27
                      A                      A                      A
 Frequencies --    548.9410               593.8810               655.5174
 Red. masses --      2.5448                 2.2738                 6.1958
 Frc consts  --      0.4518                 0.4725                 1.5686
 IR Inten    --      7.7674                32.1442                 0.1304

                     28                     29                     30
                      A                      A                      A
 Frequencies --    687.7890               762.1183               799.3698
 Red. masses --      2.7648                 4.1356                 4.0701
 Frc consts  --      0.7706                 1.4152                 1.5323
 IR Inten    --      0.4463                 0.2789                 0.0144

                     31                     32                     33
                      A                      A                      A
 Frequencies --    858.6771               863.4520               909.9883
 Red. masses --      1.5706                 1.2843                 2.6442
 Frc consts  --      0.6823                 0.5642                 1.2901
 IR Inten    --     34.0911                 3.7403                 0.9834

                     34                     35                     36
                      A                      A                      A
 Frequencies --    910.6627               945.6703               947.9993
 Red. masses --      2.5213                 1.1667                 1.1644
 Frc consts  --      1.2320                 0.6147                 0.6166
 IR Inten    --      1.1045                 0.2646                 1.1817

                     37                     38                     39
                      A                      A                      A
 Frequencies --    954.9420               961.4839               966.5550
 Red. masses --     14.9051                 1.2981                 1.3716
 Frc consts  --      8.0083                 0.7071                 0.7550
 IR Inten    --      0.3678                 0.1350                 0.0391

                     40                     41                     42
                      A                      A                      A
 Frequencies --    976.4744               978.0453              1041.2061
 Red. masses --      1.5186                 1.4546                 3.0353
 Frc consts  --      0.8531                 0.8198                 1.9388
 IR Inten    --      0.4513                 0.0876                 5.2893

                     43                     44                     45
                      A                      A                      A
 Frequencies --   1075.9373              1101.8830              1134.8004
 Red. masses --      1.6529                 1.4599                 2.2776
 Frc consts  --      1.1274                 1.0444                 1.7281
 IR Inten    --      0.1821                37.5529                 0.3731

                     46                     47                     48
                      A                      A                      A
 Frequencies --   1135.9316              1140.4125              1189.7833
 Red. masses --      2.2677                 1.6211                 1.8681
 Frc consts  --      1.7240                 1.2422                 1.5581
 IR Inten    --      1.1910                 5.9176                 2.2577

                     49                     50                     51
                      A                      A                      A
 Frequencies --   1191.7333              1222.0988              1251.5160
 Red. masses --      1.7345                 1.1351                 2.4336
 Frc consts  --      1.4514                 0.9988                 2.2458
 IR Inten    --      0.7985                 0.0563                 0.1305

                     52                     53                     54
                      A                      A                      A
 Frequencies --   1252.6761              1324.7677              1333.4059
 Red. masses --      1.7608                 4.4739                 1.5089
 Frc consts  --      1.6279                 4.6261                 1.5806
 IR Inten    --      0.3130                 1.2974                12.2474

                     55                     56                     57
                      A                      A                      A
 Frequencies --   1361.2087              1361.6247              1394.2052
 Red. masses --      1.3362                 1.3367                 2.1557
 Frc consts  --      1.4588                 1.4602                 2.4688
 IR Inten    --      3.5290                 1.6899                 2.1322

                     58                     59                     60
                      A                      A                      A
 Frequencies --   1403.4587              1424.0021              1425.3863
 Red. masses --      1.3588                 1.0677                 1.1482
 Frc consts  --      1.5769                 1.2756                 1.3745
 IR Inten    --      7.8181                 7.8616                37.2886

                     61                     62                     63
                      A                      A                      A
 Frequencies --   1428.3195              1429.3888              1448.2400
 Red. masses --      1.2179                 1.1988                 1.2410
 Frc consts  --      1.4639                 1.4431                 1.5335
 IR Inten    --      6.3929                 8.9179                 2.5530

                     64                     65                     66
                      A                      A                      A
 Frequencies --   1450.0843              1473.0971              1519.2680
 Red. masses --      1.2190                 2.1551                 1.0443
 Frc consts  --      1.5103                 2.7554                 1.4202
 IR Inten    --      0.7114                13.2651                 0.7033

                     67                     68                     69
                      A                      A                      A
 Frequencies --   1520.6298              1522.0795              1522.2235
 Red. masses --      1.0446                 1.0488                 1.0489
 Frc consts  --      1.4232                 1.4316                 1.4320
 IR Inten    --      0.8211                 1.7105                 2.8915

                     70                     71                     72
                      A                      A                      A
 Frequencies --   1532.9309              1533.8943              1539.5517
 Red. masses --      1.0509                 1.0469                 1.0937
 Frc consts  --      1.4550                 1.4513                 1.5274
 IR Inten    --      2.2652                16.2730                 2.3355

                     73                     74                     75
                      A                      A                      A
 Frequencies --   1542.9297              1565.8661              1629.0698
 Red. masses --      1.0632                 2.2228                 5.7783
 Frc consts  --      1.4913                 3.2112                 9.0350
 IR Inten    --      2.6557                30.6680                 0.0235

                     76                     77                     78
                      A                      A                      A
 Frequencies --   1671.6034              3033.2869              3034.8854
 Red. masses --      5.7292                 1.0838                 1.0837
 Frc consts  --      9.4321                 5.8754                 5.8809
 IR Inten    --      0.4642                15.0811                15.9527

                     79                     80                     81
                      A                      A                      A
 Frequencies --   3045.0250              3045.3151              3049.0874
 Red. masses --      1.0354                 1.0353                 1.0364
 Frc consts  --      5.6563                 5.6572                 5.6772
 IR Inten    --     17.0615                20.2580                42.1009

                     82                     83                     84
                      A                      A                      A
 Frequencies --   3049.4820              3107.2050              3107.6604
 Red. masses --      1.0362                 1.1019                 1.1020
 Frc consts  --      5.6774                 6.2682                 6.2706
 IR Inten    --     31.1528                 7.6015                 7.6658

                     85                     86                     87
                      A                      A                      A
 Frequencies --   3114.7027              3115.3991              3121.1353
 Red. masses --      1.1015                 1.1015                 1.1029
 Frc consts  --      6.2958                 6.2988                 6.3301
 IR Inten    --     92.3699                58.4853                16.8683

                     88                     89                     90
                      A                      A                      A
 Frequencies --   3121.2691              3138.1282              3138.7914
 Red. masses --      1.1029                 1.1021                 1.1022
 Frc consts  --      6.3306                 6.3948                 6.3980
 IR Inten    --     40.8682                14.3744                10.6241

                     91                     92                     93
                      A                      A                      A
 Frequencies --   3168.9446              3178.4595              3186.6754
 Red. masses --      1.0867                 1.0862                 1.0936
 Frc consts  --      6.4298                 6.4651                 6.5430
 IR Inten    --     13.7880                 9.6366                23.9057

                     94                     95                     96
                      A                      A                      A
 Frequencies --   3195.6883              3650.0250              3661.1761
 Red. masses --      1.0935                 1.0682                 1.0688
 Frc consts  --      6.5798                 8.3850                 8.4410
 IR Inten    --     12.5036                 3.6411                77.2984

 - Thermochemistry -
 -------------------
 Temperature   298.150 Kelvin.  Pressure   1.00000 Atm.
 Atom     1 has atomic number  6 and mass  12.00000

 Molecular mass:   196.14633 amu.
 Principal axes and moments of inertia in atomic units:
                           1         2         3
     Eigenvalues --  1801.509764274.078605191.02142
           X            1.00000   0.00167   0.00070
           Y           -0.00167   0.99998   0.00641
           Z           -0.00069  -0.00641   0.99998
 This molecule is an asymmetric top.
 Rotational symmetry number  1.
 Warning -- assumption of classical behavior for rotation
           may cause significant error
 Rotational temperatures (Kelvin)      0.04808     0.02026     0.01669
 Rotational constants (GHZ):           1.00179     0.42225     0.34767
 Zero-point vibrational energy     785899.4 (Joules/Mol)
                                  187.83446 (Kcal/Mol)
 Warning -- explicit consideration of  26 degrees of freedom as
           vibrations may cause significant error
 Vibrational temperatures:     46.86    56.45    72.44   101.86   106.11
          (Kelvin)            127.29   169.41   184.01   218.00   232.31
                              345.02   346.23   354.93   363.05   377.90
                              391.72   414.52   426.14   487.02   604.14
                              628.59   661.90   737.54   766.30   789.80
                              854.46   943.14   989.57  1096.52  1150.11
                             1235.44  1242.31  1309.27  1310.24  1360.61
                             1363.96  1373.95  1383.36  1390.66  1404.93
                             1407.19  1498.06  1548.03  1585.36  1632.72
                             1634.35  1640.80  1711.83  1714.64  1758.33
                             1800.65  1802.32  1906.05  1918.47  1958.48
                             1959.07  2005.95  2019.26  2048.82  2050.81
                             2055.03  2056.57  2083.69  2086.35  2119.46
                             2185.89  2187.85  2189.93  2190.14  2205.55
                             2206.93  2215.07  2219.93  2252.93  2343.87
                             2405.06  4364.22  4366.52  4381.11  4381.53
                             4386.96  4387.52  4470.57  4471.23  4481.36
                             4482.36  4490.62  4490.81  4515.07  4516.02
                             4559.40  4573.09  4584.92  4597.88  5251.57
                             5267.62

 Zero-point correction=                           0.299333 (Hartree/Particle)
 Thermal correction to Energy=                    0.316750
 Thermal correction to Enthalpy=                  0.317694
 Thermal correction to Gibbs Free Energy=         0.253424
 Sum of electronic and zero-point Energies=           -619.442744
 Sum of electronic and thermal Energies=              -619.425327
 Sum of electronic and thermal Enthalpies=            -619.424383
 Sum of electronic and thermal Free Energies=         -619.488652

                     E (Thermal)             CV                S
                      KCal/Mol        Cal/Mol-Kelvin    Cal/Mol-Kelvin
 Total                  198.764             62.566            135.267
 Electronic               0.000              0.000              0.000
 Translational            0.889              2.981             41.726
 Rotational               0.889              2.981             32.058
 Vibrational            196.986             56.604             61.483
 Vibration     1          0.594              1.983              5.667
 Vibration     2          0.594              1.981              5.297
 Vibration     3          0.595              1.977              4.804
 Vibration     4          0.598              1.968              4.131
 Vibration     5          0.599              1.966              4.051
 Vibration     6          0.601              1.957              3.694
 Vibration     7          0.608              1.935              3.137
 Vibration     8          0.611              1.925              2.977
 Vibration     9          0.619              1.901              2.653
 Vibration    10          0.622              1.890              2.533
 Vibration    11          0.657              1.780              1.804
 Vibration    12          0.658              1.778              1.798
 Vibration    13          0.661              1.768              1.754
 Vibration    14          0.664              1.759              1.714
 Vibration    15          0.670              1.741              1.644
 Vibration    16          0.675              1.724              1.582
 Vibration    17          0.685              1.696              1.485
 Vibration    18          0.690              1.681              1.438
 Vibration    19          0.719              1.599              1.219
 Vibration    20          0.783              1.427              0.892
 Vibration    21          0.797              1.390              0.836
 Vibration    22          0.818              1.339              0.766
 Vibration    23          0.868              1.222              0.627
 Vibration    24          0.888              1.178              0.581
 Vibration    25          0.904              1.142              0.546
 Vibration    26          0.952              1.045              0.460

                           ! Non-Optimized Parameters !
 Normal termination of Gaussian 16 at Thu Dec 10 10:06:18 2020.

 ----------------------------------------------------------------------
 # B3LYP/6-311++G(d,p) empiricaldispersion=gd3bj scf=xqc pop=npa geom=c
 heck
 ----------------------------------------------------------------------

 --------------------------------------
 CID_21998473_JID_4119_Energie_neutraal
 --------------------------------------
 Structure from the checkpoint file:  "JID_4119.chk"
 Charge =  0 Multiplicity = 1

 SCF Done:  E(RB3LYP) =  -619.928993800     A.U. after   14 cycles
 Normal termination of Gaussian 16 at Thu Dec 10 10:10:35 2020.

 ----------------------------------------------------------------------
 # B3LYP/6-311++G(d,p) empiricaldispersion=gd3bj scf=xqc pop=npa geom=c
 heck
 ----------------------------------------------------------------------

 ------------------------------------
 CID_21998473_JID_4119_Energie_kation
 ------------------------------------
 Structure from the checkpoint file:  "JID_4119.chk"
 Charge =  1 Multiplicity = 2

 SCF Done:  E(UB3LYP) =  -619.616120676     A.U. after   21 cycles
 Normal termination of Gaussian 16 at Thu Dec 10 10:18:42 2020.
 Gaussian 16:  ES64L-G16RevA.03 25-Dec-2016

 ----------------------------------------------------------------------
 # B3LYP/6-311++G(d,p) empiricaldispersion=gd3bj scf=xqc pop=npa geom=c
 heck
 ----------------------------------------------------------------------

 -----------------------------------
 CID_21998473_JID_4119_Energie_anion
 -----------------------------------
 Structure from the checkpoint file:  "JID_4119.chk"
 Charge = -1 Multiplicity = 2

                         Standard orientation:
 ---------------------------------------------------------------------
 Center     Atomic      Atomic             Coordinates (Angstroms)
 Number     Number       Type             X           Y           Z
 ---------------------------------------------------------------------
      1          6           0       -3.437885    0.699971   -0.584613
      2          6           0       -2.920812   -0.496028    0.234095
      3          6           0       -3.515786   -1.820265   -0.272315
      4          6           0       -1.403784   -0.530516    0.249499
      5          6           0       -0.664930   -0.671309   -0.934947
      6          6           0        0.729046   -0.660756   -0.921890
      7          6           0        1.443432   -0.494860    0.273941
      8          6           0        0.707268   -0.374859    1.456072
      9          6           0       -0.690377   -0.398584    1.445038
     10          6           0        2.959069   -0.421419    0.284111
     11          6           0        3.595910   -1.734159   -0.200947
     12          6           0        3.461123    0.779813   -0.536126
     13          8           0        0.447771    2.571978   -0.453765
     14          8           0       -0.668039    2.688797    0.464529
     15          1           0       -3.194030    0.580411   -1.647205
     16          1           0       -2.982733    1.633725   -0.241393
     17          1           0       -4.527694    0.781852   -0.502231
     18          1           0       -3.251136   -0.357316    1.272277
     19          1           0       -3.224955   -2.010592   -1.312061
     20          1           0       -3.171970   -2.666714    0.331723
     21          1           0       -4.610651   -1.790876   -0.233065
     22          1           0       -1.185671   -0.790527   -1.881520
     23          1           0        1.268718   -0.771463   -1.859015
     24          1           0        1.234272   -0.257671    2.400237
     25          1           0       -1.236374   -0.305189    2.381539
     26          1           0        3.267637   -0.265644    1.326413
     27          1           0        3.326674   -1.940845   -1.243443
     28          1           0        4.688939   -1.676718   -0.144661
     29          1           0        3.263940   -2.583882    0.405096
     30          1           0        2.975250    1.705451   -0.213715
     31          1           0        4.546382    0.891696   -0.432104
     32          1           0        3.243361    0.643363   -1.602408
     33          1           0        0.170053    1.799629   -0.983043
     34          1           0       -0.411526    2.032942    1.140964
 ---------------------------------------------------------------------

 SCF Done:  E(UB3LYP) =  -619.916425289     A.U. after   33 cycles
 SCF Done:  E(UB3LYP) =  -619.916425289     a.u. after    1 cycles

 The electronic state is 2-A.
 Alpha  occ. eigenvalues --  -19.08028 -19.08021 -10.08874 -10.08822 -10.08716
 Alpha  occ. eigenvalues --  -10.08680 -10.08419 -10.08364 -10.08297 -10.08243
 Alpha  occ. eigenvalues --  -10.06661 -10.06616 -10.06478 -10.06344  -1.02255
 Alpha  occ. eigenvalues --   -0.79789  -0.77628  -0.72619  -0.69251  -0.65794
 Alpha  occ. eigenvalues --   -0.63121  -0.59197  -0.59122  -0.53700  -0.52485
 Alpha  occ. eigenvalues --   -0.48228  -0.47052  -0.44970  -0.41314  -0.37960
 Alpha  occ. eigenvalues --   -0.37756  -0.36914  -0.35560  -0.34278  -0.33616
 Alpha  occ. eigenvalues --   -0.33380  -0.32683  -0.32541  -0.31984  -0.31495
 Alpha  occ. eigenvalues --   -0.29544  -0.29362  -0.26911  -0.26711  -0.25337
 Alpha  occ. eigenvalues --   -0.25292  -0.24348  -0.24146  -0.23131  -0.22894
 Alpha  occ. eigenvalues --   -0.21529  -0.19756  -0.16837  -0.14847   0.04139
 Alpha virt. eigenvalues --    0.05931   0.06389   0.07061   0.07314   0.07647
 Alpha virt. eigenvalues --    0.08226   0.08324   0.08756   0.09391   0.09991
 Alpha virt. eigenvalues --    0.10264   0.10883   0.11740   0.12009   0.12089

  Beta  occ. eigenvalues --  -19.08016 -19.08010 -10.08865 -10.08815 -10.08705
  Beta  occ. eigenvalues --  -10.08669 -10.08402 -10.08346 -10.08281 -10.08227
  Beta  occ. eigenvalues --  -10.06631 -10.06585 -10.06462 -10.06327  -1.02234
  Beta  occ. eigenvalues --   -0.79750  -0.77598  -0.72587  -0.69221  -0.65755
  Beta  occ. eigenvalues --   -0.63083  -0.59150  -0.59072  -0.53652  -0.52433
  Beta  occ. eigenvalues --   -0.48173  -0.47003  -0.44937  -0.41271  -0.37925
  Beta  occ. eigenvalues --   -0.37734  -0.36866  -0.35517  -0.34251  -0.33590
  Beta  occ. eigenvalues --   -0.33353  -0.32645  -0.32502  -0.31941  -0.31448
  Beta  occ. eigenvalues --   -0.29518  -0.29336  -0.26878  -0.26671  -0.25308
  Beta  occ. eigenvalues --   -0.25264  -0.24319  -0.24100  -0.23092  -0.22863
  Beta  occ. eigenvalues --   -0.21513  -0.19740  -0.16802  -0.14796
  Beta virt. eigenvalues --    0.06238   0.06736   0.07050   0.07267   0.07458
  Beta virt. eigenvalues --    0.08414   0.08473   0.08845   0.09025   0.09561
  Beta virt. eigenvalues --    0.10494   0.10656   0.11439   0.11911   0.12145

 Mulliken charges and spin densities:
               1          2
     1  C    0.078994  -0.741354
     2  C   -0.572415   0.675116
     3  C    0.648577  -1.333334
     4  C    2.297260  -1.480748
     5  C   -1.065350   0.595244
     6  C   -1.098191   0.629014
     7  C    2.250428  -1.451154
     8  C   -0.390242  -0.174679
     9  C   -0.406958  -0.197574
    10  C   -0.519824   0.598476
    11  C    0.593176  -1.278101
    12  C    0.087387  -0.748163
    13  O   -0.202781  -0.013082
    14  O   -0.153732  -0.018104
    15  H   -0.031974   0.181548
    16  H    0.128348   0.036829
    17  H   -0.089428   0.233645
    18  H   -0.197740   0.387980
    19  H   -0.021747   0.163910
    20  H   -0.012767   0.152053
    21  H   -0.363358   0.516376
    22  H   -0.382044   0.552811
    23  H   -0.396254   0.571594
    24  H   -0.575828   0.753034
    25  H   -0.600532   0.783468
    26  H   -0.182426   0.370109
    27  H   -0.034235   0.179012
    28  H   -0.349374   0.501513
    29  H   -0.006574   0.144545
    30  H    0.128939   0.041188
    31  H   -0.071783   0.215890
    32  H   -0.009196   0.154824
    33  H    0.283505  -0.027592
    34  H    0.238139   0.025707
 Sum of Mulliken charges =  -1.00000   1.00000

 Dipole moment (field-independent basis, Debye):
    X=              0.1574    Y=              1.0251    Z=             -1.2176  Tot=              1.5995
 Quadrupole moment (field-independent basis, Debye-Ang):
   XX=           -169.1274   YY=           -134.4775   ZZ=           -128.9152
   XY=             -0.0934   XZ=             -0.0012   YZ=             -0.5400

 Summary of Natural Population Analysis:

                                       Natural Population
                Natural  -----------------------------------------------
    Atom  No    Charge         Core      Valence    Rydberg      Total
 -----------------------------------------------------------------------
      C    1   -0.28212      0.99965     2.27767    0.00480     3.28212
      C    2   -0.12091      0.99958     2.10970    0.01163     3.12091
      C    3   -0.27804      0.99965     2.27354    0.00485     3.27804
      C    4   -0.00946      0.99949     1.99563    0.01435     3.00946
      C    5   -0.10781      0.99951     2.09762    0.01069     3.10781
      C    6   -0.10842      0.99951     2.09822    0.01069     3.10842
      C    7   -0.00946      0.99949     1.99595    0.01402     3.00946
      C    8   -0.10122      0.99950     2.09073    0.01099     3.10122
      C    9   -0.11105      0.99951     2.09987    0.01167     3.11105
      C   10   -0.12056      0.99958     2.10948    0.01150     3.12056
      C   11   -0.27817      0.99965     2.27368    0.00484     3.27817
      C   12   -0.28171      0.99965     2.27723    0.00483     3.28171
      O   13   -0.22932      0.99991     3.22150    0.00790     4.22932
      O   14   -0.22975      0.99991     3.22222    0.00761     4.22975
      H   15    0.09515      0.00000     0.40377    0.00109     0.40485
      H   16    0.10854      0.00000     0.39019    0.00127     0.39146
      H   17    0.09750      0.00000     0.40158    0.00092     0.40250
      H   18    0.09661      0.00000     0.40120    0.00219     0.40339
      H   19    0.09639      0.00000     0.40236    0.00125     0.40361
      H   20    0.10116      0.00000     0.39771    0.00113     0.39884
      H   21    0.09949      0.00000     0.39921    0.00130     0.40051
      H   22    0.10350      0.00000     0.39481    0.00169     0.39650
      H   23    0.10384      0.00000     0.39488    0.00129     0.39616
      H   24    0.10350      0.00000     0.39432    0.00218     0.39650
      H   25    0.10478      0.00000     0.39345    0.00177     0.39522
      H   26    0.09679      0.00000     0.40111    0.00210     0.40321
      H   27    0.09650      0.00000     0.40225    0.00125     0.40350
      H   28    0.09931      0.00000     0.39939    0.00130     0.40069
      H   29    0.10116      0.00000     0.39773    0.00111     0.39884
      H   30    0.10791      0.00000     0.39075    0.00133     0.39209
      H   31    0.09752      0.00000     0.40158    0.00090     0.40248
      H   32    0.09498      0.00000     0.40393    0.00109     0.40502
      H   33    0.23151      0.00000     0.26521    0.00328     0.26849
      H   34    0.23184      0.00000     0.26473    0.00343     0.26816
 =======================================================================
   * Total *   -0.00000     13.99457    39.84317    0.16226    54.00000

 Normal termination of Gaussian 16 at Thu Dec 10 10:30:55 2020.
