 Gaussian 16, Revision A.03,

 -----------------------------------------------------------
 # opt freq B3LYP/6-31G(d) empiricaldispersion=gd3bj scf=xqc
 -----------------------------------------------------------

 ------------------------------
 CID_21943494_JID_3822_neutraal
 ------------------------------
 Symbolic Z-matrix:
 Charge =  0 Multiplicity = 1

 SCF Done:  E(RB3LYP) =  -597.763383165     A.U. after   14 cycles
 SCF Done:  E(RB3LYP) =  -597.768039216     A.U. after   12 cycles
 SCF Done:  E(RB3LYP) =  -597.768115848     A.U. after   11 cycles
 SCF Done:  E(RB3LYP) =  -597.768356378     A.U. after   11 cycles
 SCF Done:  E(RB3LYP) =  -597.768565563     A.U. after   11 cycles
 SCF Done:  E(RB3LYP) =  -597.768626750     A.U. after   11 cycles
 SCF Done:  E(RB3LYP) =  -597.768670316     A.U. after   11 cycles
 SCF Done:  E(RB3LYP) =  -597.768689285     A.U. after   10 cycles
 SCF Done:  E(RB3LYP) =  -597.768700963     A.U. after   10 cycles
 SCF Done:  E(RB3LYP) =  -597.768704790     A.U. after    9 cycles
 SCF Done:  E(RB3LYP) =  -597.768869909     A.U. after    8 cycles
 SCF Done:  E(RB3LYP) =  -597.768871077     A.U. after    9 cycles
 SCF Done:  E(RB3LYP) =  -597.768870750     A.U. after    9 cycles
 SCF Done:  E(RB3LYP) =  -597.768871852     A.U. after    8 cycles
 SCF Done:  E(RB3LYP) =  -597.768872194     A.U. after    8 cycles
 SCF Done:  E(RB3LYP) =  -597.768872215     A.U. after    7 cycles
 Optimization completed.
    -- Stationary point found.
 Normal termination of Gaussian 16 at Sun Dec 13 16:19:44 2020.

 --------------------------------------------------------------------
 #N Geom=AllCheck Guess=TCheck SCRF=Check GenChk RB3LYP/6-31G(d) Freq
 --------------------------------------------------------------------

 Structure from the checkpoint file:  "JID_3822.chk"
 ------------------------------
 CID_21943494_JID_3822_neutraal
 ------------------------------
 Charge =  0 Multiplicity = 1

 SCF Done:  E(RB3LYP) =  -597.768872215     A.U. after    1 cycles

  Exact polarizability: 130.189  -0.905 106.958  -1.166  -1.883 102.197
 Approx polarizability: 157.015  -1.615 148.390  -7.955  -3.998 163.286

                      1                      2                      3
                      A                      A                      A
 Frequencies --     27.7912                32.1974                45.7623
 Red. masses --      2.6742                 3.6842                 4.2454
 Frc consts  --      0.0012                 0.0023                 0.0052
 IR Inten    --      0.7212                 1.5977                 1.2140

                      4                      5                      6
                      A                      A                      A
 Frequencies --     63.0876                74.4343               109.6577
 Red. masses --      2.5308                 3.1601                 3.6741
 Frc consts  --      0.0059                 0.0103                 0.0260
 IR Inten    --      0.1712                 0.1092                 0.5644

                      7                      8                      9
                      A                      A                      A
 Frequencies --    161.6268               176.4339               212.5779
 Red. masses --      3.8015                 2.5914                 3.5107
 Frc consts  --      0.0585                 0.0475                 0.0935
 IR Inten    --      0.4190                 0.1667                 3.0922

                     10                     11                     12
                      A                      A                      A
 Frequencies --    238.7200               270.9342               306.4175
 Red. masses --      1.4435                 1.9410                 2.1311
 Frc consts  --      0.0485                 0.0839                 0.1179
 IR Inten    --     39.9742                10.2946                 1.6821

                     13                     14                     15
                      A                      A                      A
 Frequencies --    344.0679               425.3171               457.1282
 Red. masses --      2.5508                 1.7922                 3.9922
 Frc consts  --      0.1779                 0.1910                 0.4915
 IR Inten    --      5.0034                 0.1349                 7.7833

                     16                     17                     18
                      A                      A                      A
 Frequencies --    499.4474               501.4314               548.8511
 Red. masses --      3.1139                 3.1817                 2.5240
 Frc consts  --      0.4577                 0.4713                 0.4480
 IR Inten    --      3.3129                 4.7324                 5.6421

                     19                     20                     21
                      A                      A                      A
 Frequencies --    601.4654               625.3567               668.8029
 Red. masses --      2.8655                 2.6411                 1.4475
 Frc consts  --      0.6108                 0.6086                 0.3815
 IR Inten    --     29.7079                 1.0417                92.8623

                     22                     23                     24
                      A                      A                      A
 Frequencies --    744.4977               758.2810               781.8159
 Red. masses --      2.7563                 1.6968                 1.3141
 Frc consts  --      0.9001                 0.5748                 0.4732
 IR Inten    --     25.9419                29.8804                 8.9760

                     25                     26                     27
                      A                      A                      A
 Frequencies --    832.2320               849.1348               860.6367
 Red. masses --      1.9369                 1.5209                 2.1152
 Frc consts  --      0.7904                 0.6461                 0.9231
 IR Inten    --      1.0023                51.8792                50.6407

                     28                     29                     30
                      A                      A                      A
 Frequencies --    886.9440               900.2172               914.0654
 Red. masses --      2.0409                 2.5485                 1.9808
 Frc consts  --      0.9459                 1.2168                 0.9751
 IR Inten    --     42.8667                 0.5229                 0.9243

                     31                     32                     33
                      A                      A                      A
 Frequencies --    950.0892               967.1426               975.1949
 Red. masses --      2.0693                 2.3206                 1.5812
 Frc consts  --      1.1005                 1.2789                 0.8859
 IR Inten    --      2.9458                 2.2435                 3.4835

                     34                     35                     36
                      A                      A                      A
 Frequencies --   1001.8514              1028.5632              1041.1766
 Red. masses --      1.3890                 1.6177                 2.5269
 Frc consts  --      0.8214                 1.0083                 1.6139
 IR Inten    --      1.3517                 1.9323                 4.2068

                     37                     38                     39
                      A                      A                      A
 Frequencies --   1056.6893              1076.1942              1101.7244
 Red. masses --      2.0938                 1.8749                 1.7292
 Frc consts  --      1.3774                 1.2794                 1.2366
 IR Inten    --      2.1359                 3.8136                 2.6362

                     40                     41                     42
                      A                      A                      A
 Frequencies --   1124.1189              1127.0717              1176.4862
 Red. masses --      2.4530                 2.0919                 1.5107
 Frc consts  --      1.8263                 1.5657                 1.2320
 IR Inten    --      1.8930                 6.0985                85.7251

                     43                     44                     45
                      A                      A                      A
 Frequencies --   1189.8248              1216.9497              1222.8268
 Red. masses --      1.6664                 1.7023                 1.4591
 Frc consts  --      1.3900                 1.4854                 1.2854
 IR Inten    --     61.9121               100.3316                 5.3085

                     46                     47                     48
                      A                      A                      A
 Frequencies --   1235.0862              1270.0299              1277.8530
 Red. masses --      1.3821                 1.3458                 1.2529
 Frc consts  --      1.2422                 1.2789                 1.2054
 IR Inten    --      9.7434                 5.2263                 1.1647

                     49                     50                     51
                      A                      A                      A
 Frequencies --   1295.7322              1302.5519              1314.5067
 Red. masses --      1.3317                 1.3987                 1.2869
 Frc consts  --      1.3173                 1.3982                 1.3102
 IR Inten    --      3.1290                 6.0781                 0.5441

                     52                     53                     54
                      A                      A                      A
 Frequencies --   1336.7502              1342.0370              1355.9628
 Red. masses --      1.3225                 1.3066                 1.3071
 Frc consts  --      1.3923                 1.3866                 1.4159
 IR Inten    --      8.2713                 0.8021                12.4670

                     55                     56                     57
                      A                      A                      A
 Frequencies --   1360.7329              1364.1361              1369.4664
 Red. masses --      1.3251                 1.3550                 1.2987
 Frc consts  --      1.4455                 1.4856                 1.4350
 IR Inten    --      0.3650                 0.7658                 3.7325

                     58                     59                     60
                      A                      A                      A
 Frequencies --   1388.4556              1397.2318              1417.2871
 Red. masses --      1.8506                 1.4067                 1.6642
 Frc consts  --      2.1019                 1.6180                 1.9695
 IR Inten    --     29.0334                 2.6423                 9.4236

                     61                     62                     63
                      A                      A                      A
 Frequencies --   1425.5584              1440.6029              1513.2574
 Red. masses --      1.5749                 1.3807                 1.0820
 Frc consts  --      1.8858                 1.6882                 1.4598
 IR Inten    --      3.6955                 6.1048                 3.6827

                     64                     65                     66
                      A                      A                      A
 Frequencies --   1515.3188              1523.9622              1526.7148
 Red. masses --      1.0812                 1.0897                 1.0874
 Frc consts  --      1.4627                 1.4911                 1.4933
 IR Inten    --      0.2764                 1.7949                 7.6322

                     67                     68                     69
                      A                      A                      A
 Frequencies --   1529.0477              1539.7238              1549.7826
 Red. masses --      1.0903                 1.0805                 1.1038
 Frc consts  --      1.5019                 1.5092                 1.5619
 IR Inten    --      4.0016                11.1321                 0.2664

                     70                     71                     72
                      A                      A                      A
 Frequencies --   1698.8429              1837.9284              2987.2394
 Red. masses --      1.0892                 9.7245                 1.0733
 Frc consts  --      1.8521                19.3542                 5.6430
 IR Inten    --     31.7954               265.2108                79.5891

                     73                     74                     75
                      A                      A                      A
 Frequencies --   3006.6819              3021.2183              3030.6571
 Red. masses --      1.0817                 1.0606                 1.0676
 Frc consts  --      5.7614                 5.7036                 5.7776
 IR Inten    --      9.0474                21.2817                42.1458

                     76                     77                     78
                      A                      A                      A
 Frequencies --   3036.9256              3041.2235              3051.5329
 Red. masses --      1.0808                 1.0699                 1.0659
 Frc consts  --      5.8728                 5.8305                 5.8478
 IR Inten    --      7.3283                33.9395                23.6355

                     79                     80                     81
                      A                      A                      A
 Frequencies --   3053.1591              3068.8382              3073.7915
 Red. masses --      1.0947                 1.0640                 1.0653
 Frc consts  --      6.0126                 5.9042                 5.9300
 IR Inten    --     38.9645                51.2561                32.4093

                     82                     83                     84
                      A                      A                      A
 Frequencies --   3086.4664              3092.4618              3099.4801
 Red. masses --      1.0965                 1.0983                 1.0995
 Frc consts  --      6.1545                 6.1886                 6.2236
 IR Inten    --     41.5028                27.5723                 6.7122

                     85                     86                     87
                      A                      A                      A
 Frequencies --   3109.5346              3115.2828              3123.9906
 Red. masses --      1.1025                 1.1053                 1.0898
 Frc consts  --      6.2806                 6.3203                 6.2664
 IR Inten    --     39.6068                87.0038                12.8560

                     88                     89                     90
                      A                      A                      A
 Frequencies --   3483.0601              3568.1286              3681.8438
 Red. masses --      1.0499                 1.0927                 1.0638
 Frc consts  --      7.5042                 8.1967                 8.4967
 IR Inten    --      0.7066                 0.0193                45.0473

 - Thermochemistry -
 -------------------
 Temperature   298.150 Kelvin.  Pressure   1.00000 Atm.
 Atom     1 has atomic number  6 and mass  12.00000

 Molecular mass:   185.14158 amu.
 Principal axes and moments of inertia in atomic units:
                           1         2         3
     Eigenvalues --  1280.610074836.415235339.45175
           X            0.99989   0.01349   0.00541
           Y           -0.01344   0.99987  -0.00925
           Z           -0.00553   0.00917   0.99994
 This molecule is an asymmetric top.
 Rotational symmetry number  1.
 Warning -- assumption of classical behavior for rotation
           may cause significant error
 Rotational temperatures (Kelvin)      0.06763     0.01791     0.01622
 Rotational constants (GHZ):           1.40928     0.37316     0.33800
 Zero-point vibrational energy     759839.9 (Joules/Mol)
                                  181.60610 (Kcal/Mol)
 Warning -- explicit consideration of  19 degrees of freedom as
           vibrations may cause significant error
 Vibrational temperatures:     39.99    46.32    65.84    90.77   107.09
          (Kelvin)            157.77   232.54   253.85   305.85   343.46
                              389.81   440.87   495.04   611.94   657.71
                              718.59   721.45   789.67   865.37   899.75
                              962.26  1071.17  1091.00  1124.86  1197.40
                             1221.72  1238.26  1276.11  1295.21  1315.14
                             1366.97  1391.50  1403.09  1441.44  1479.87
                             1498.02  1520.34  1548.40  1585.14  1617.36
                             1621.60  1692.70  1711.89  1750.92  1759.38
                             1777.01  1827.29  1838.55  1864.27  1874.08
                             1891.28  1923.29  1930.89  1950.93  1957.79
                             1962.69  1970.36  1997.68  2010.30  2039.16
                             2051.06  2072.71  2177.24  2180.21  2192.64
                             2196.60  2199.96  2215.32  2229.79  2444.26
                             2644.37  4297.97  4325.94  4346.86  4360.44
                             4369.46  4375.64  4390.48  4392.81  4415.37
                             4422.50  4440.74  4449.36  4459.46  4473.93
                             4482.20  4494.73  5011.35  5133.74  5297.35

 Zero-point correction=                           0.289408 (Hartree/Particle)
 Thermal correction to Energy=                    0.303512
 Thermal correction to Enthalpy=                  0.304456
 Thermal correction to Gibbs Free Energy=         0.246227
 Sum of electronic and zero-point Energies=           -597.479464
 Sum of electronic and thermal Energies=              -597.465360
 Sum of electronic and thermal Enthalpies=            -597.464416
 Sum of electronic and thermal Free Energies=         -597.522645

                     E (Thermal)             CV                S
                      KCal/Mol        Cal/Mol-Kelvin    Cal/Mol-Kelvin
 Total                  190.457             52.073            122.553
 Electronic               0.000              0.000              0.000
 Translational            0.889              2.981             41.554
 Rotational               0.889              2.981             31.870
 Vibrational            188.679             46.111             49.129
 Vibration     1          0.593              1.984              5.981
 Vibration     2          0.594              1.983              5.689
 Vibration     3          0.595              1.979              4.993
 Vibration     4          0.597              1.972              4.358
 Vibration     5          0.599              1.966              4.033
 Vibration     6          0.606              1.941              3.275
 Vibration     7          0.622              1.889              2.531
 Vibration     8          0.628              1.871              2.366
 Vibration     9          0.644              1.822              2.021
 Vibration    10          0.657              1.781              1.812
 Vibration    11          0.675              1.727              1.590
 Vibration    12          0.697              1.662              1.382
 Vibration    13          0.723              1.587              1.193
 Vibration    14          0.787              1.415              0.874
 Vibration    15          0.815              1.345              0.775
 Vibration    16          0.855              1.251              0.660
 Vibration    17          0.857              1.247              0.655
 Vibration    18          0.904              1.142              0.547
 Vibration    19          0.960              1.029              0.447

 Optimization completed.
    -- Stationary point found.
 Normal termination of Gaussian 16 at Sun Dec 13 16:27:30 2020.

 ----------------------------------------------------------------------
 # B3LYP/6-311++G(d,p) empiricaldispersion=gd3bj scf=xqc pop=npa geom=c
 heck
 ----------------------------------------------------------------------

 --------------------------------------
 CID_21943494_JID_3822_Energie_neutraal
 --------------------------------------
 Structure from the checkpoint file:  "JID_3822.chk"
 Charge =  0 Multiplicity = 1

 SCF Done:  E(RB3LYP) =  -597.956399163     A.U. after   14 cycles
 Normal termination of Gaussian 16 at Sun Dec 13 16:30:38 2020.

 ----------------------------------------------------------------------
 # B3LYP/6-311++G(d,p) empiricaldispersion=gd3bj scf=xqc pop=npa geom=c
 heck
 ----------------------------------------------------------------------

 ------------------------------------
 CID_21943494_JID_3822_Energie_kation
 ------------------------------------
 Structure from the checkpoint file:  "JID_3822.chk"
 Charge =  1 Multiplicity = 2

 SCF Done:  E(UB3LYP) =  -597.620858264     A.U. after   26 cycles
 Normal termination of Gaussian 16 at Sun Dec 13 16:38:40 2020.
 Gaussian 16:  ES64L-G16RevA.03 25-Dec-2016

 ----------------------------------------------------------------------
 # B3LYP/6-311++G(d,p) empiricaldispersion=gd3bj scf=xqc pop=npa geom=c
 heck
 ----------------------------------------------------------------------

 -----------------------------------
 CID_21943494_JID_3822_Energie_anion
 -----------------------------------
 Structure from the checkpoint file:  "JID_3822.chk"
 Charge = -1 Multiplicity = 2

                         Standard orientation:
 ---------------------------------------------------------------------
 Center     Atomic      Atomic             Coordinates (Angstroms)
 Number     Number       Type             X           Y           Z
 ---------------------------------------------------------------------
      1          6           0       -3.555651   -1.281806   -0.432110
      2          6           0       -4.008149    0.181886   -0.693996
      3          6           0       -3.050000    1.047720    0.139639
      4          6           0       -1.715700    0.288157    0.064245
      5          6           0       -2.153705   -1.182085    0.229745
      6          6           0       -0.665041    0.758875    1.072173
      7          6           0        0.642992   -0.047662    1.071872
      8          6           0        1.373571   -0.071577   -0.280727
      9          6           0        1.701164    1.327864   -0.830651
     10          7           0        2.528414    2.068113    0.126666
     11          6           0        2.661369   -0.885400   -0.273380
     12          8           0        3.433887   -0.949586   -1.205266
     13          8           0        2.865087   -1.578624    0.872888
     14          1           0       -3.520238   -1.853882   -1.364903
     15          1           0       -4.258092   -1.802861    0.226599
     16          1           0       -3.889855    0.426883   -1.756533
     17          1           0       -5.060531    0.350234   -0.443755
     18          1           0       -3.384032    1.087755    1.186450
     19          1           0       -2.976865    2.080514   -0.219714
     20          1           0       -1.321255    0.418553   -0.954942
     21          1           0       -2.222339   -1.413784    1.301025
     22          1           0       -1.434753   -1.887732   -0.199313
     23          1           0       -0.453312    1.823344    0.897472
     24          1           0       -1.100509    0.701213    2.079733
     25          1           0        1.321700    0.355696    1.831296
     26          1           0        0.432929   -1.077532    1.377451
     27          1           0        0.734845   -0.566873   -1.026152
     28          1           0        2.279749    1.198291   -1.748457
     29          1           0        0.760833    1.834877   -1.102125
     30          1           0        2.957243    2.868464   -0.331726
     31          1           0        1.950515    2.442289    0.876488
     32          1           0        3.708188   -2.052398    0.742602
 ---------------------------------------------------------------------

 SCF Done:  E(UB3LYP) =  -597.943438327     A.U. after   32 cycles

 The electronic state is 2-A.
 Alpha  occ. eigenvalues --  -19.07417 -19.01323 -14.19083 -10.20495 -10.09166
 Alpha  occ. eigenvalues --  -10.08683 -10.06754 -10.06534 -10.06521 -10.06419
 Alpha  occ. eigenvalues --  -10.06386 -10.06220 -10.06070  -1.01292  -0.92087
 Alpha  occ. eigenvalues --   -0.78544  -0.74181  -0.70044  -0.64704  -0.60861
 Alpha  occ. eigenvalues --   -0.58839  -0.55636  -0.51418  -0.47567  -0.46848
 Alpha  occ. eigenvalues --   -0.44975  -0.40937  -0.40239  -0.38892  -0.38231
 Alpha  occ. eigenvalues --   -0.36658  -0.35509  -0.33987  -0.33597  -0.31789
 Alpha  occ. eigenvalues --   -0.31089  -0.30780  -0.29187  -0.27742  -0.27112
 Alpha  occ. eigenvalues --   -0.25499  -0.24164  -0.23923  -0.23389  -0.22779
 Alpha  occ. eigenvalues --   -0.22185  -0.21733  -0.21171  -0.21051  -0.18049
 Alpha  occ. eigenvalues --   -0.14498   0.04398
 Alpha virt. eigenvalues --    0.06482   0.06627   0.07353   0.08290   0.08749
 Alpha virt. eigenvalues --    0.09347   0.09845   0.10246   0.10552   0.10848
 Alpha virt. eigenvalues --    0.11794   0.12060   0.12858   0.13155   0.14167

  Beta  occ. eigenvalues --  -19.07396 -19.01310 -14.19039 -10.20482 -10.09143
  Beta  occ. eigenvalues --  -10.08676 -10.06743 -10.06523 -10.06504 -10.06403
  Beta  occ. eigenvalues --  -10.06365 -10.06201 -10.06050  -1.01254  -0.92056
  Beta  occ. eigenvalues --   -0.78482  -0.74151  -0.70001  -0.64658  -0.60818
  Beta  occ. eigenvalues --   -0.58791  -0.55561  -0.51364  -0.47507  -0.46789
  Beta  occ. eigenvalues --   -0.44917  -0.40903  -0.40181  -0.38867  -0.38186
  Beta  occ. eigenvalues --   -0.36602  -0.35460  -0.33935  -0.33552  -0.31754
  Beta  occ. eigenvalues --   -0.31059  -0.30745  -0.29142  -0.27705  -0.27081
  Beta  occ. eigenvalues --   -0.25462  -0.24128  -0.23885  -0.23360  -0.22737
  Beta  occ. eigenvalues --   -0.22154  -0.21701  -0.21129  -0.21018  -0.18022
  Beta  occ. eigenvalues --   -0.14449
  Beta virt. eigenvalues --    0.06508   0.07108   0.07664   0.07805   0.08701
  Beta virt. eigenvalues --    0.09185   0.09669   0.10096   0.10655   0.10961
  Beta virt. eigenvalues --    0.11092   0.12158   0.12343   0.13157   0.13273

 Mulliken charges and spin densities:
               1          2
     1  C    0.129589  -0.606553
     2  C   -0.025047  -0.344639
     3  C    0.415246  -0.945124
     4  C   -0.688386   1.400439
     5  C    0.442278  -0.987533
     6  C    0.168067  -0.679677
     7  C   -0.064411  -0.495672
     8  C    0.169633   0.308990
     9  C    1.213286  -2.005570
    10  N   -0.578528   0.211812
    11  C   -0.571233   0.590962
    12  O   -0.279497   0.006028
    13  O   -0.160955   0.009123
    14  H   -0.139672   0.281919
    15  H   -0.045290   0.169810
    16  H   -0.102680   0.242986
    17  H   -0.120545   0.273155
    18  H   -0.006179   0.123163
    19  H   -0.287486   0.448089
    20  H    0.472346  -0.332493
    21  H   -0.026225   0.181049
    22  H   -0.034661   0.178678
    23  H   -0.071753   0.246193
    24  H   -0.112198   0.257828
    25  H   -0.061184   0.299215
    26  H    0.142442   0.051269
    27  H   -0.185147   0.422677
    28  H    0.145605   0.057862
    29  H   -0.510050   0.676625
    30  H   -0.183635   0.433907
    31  H   -0.017573   0.225527
    32  H   -0.026156   0.299955
 Sum of Mulliken charges =  -1.00000   1.00000

 Dipole moment (field-independent basis, Debye):
    X=             -0.5917    Y=             -2.9910    Z=              1.2434  Tot=              3.2927
 Quadrupole moment (field-independent basis, Debye-Ang):
   XX=           -153.3965   YY=           -127.5513   ZZ=           -113.9430
   XY=             -3.4436   XZ=              0.0970   YZ=             -0.2484

 Summary of Natural Population Analysis:

                                       Natural Population
                Natural  -----------------------------------------------
    Atom  No    Charge         Core      Valence    Rydberg      Total
 -----------------------------------------------------------------------
      C    1   -0.19095      0.99965     2.18456    0.00674     3.19095
      C    2   -0.18980      0.99964     2.18336    0.00679     3.18980
      C    3   -0.18714      0.99962     2.17837    0.00915     3.18714
      C    4   -0.11467      0.99959     2.10418    0.01090     3.11467
      C    5   -0.19041      0.99962     2.18375    0.00704     3.19041
      C    6   -0.18678      0.99961     2.17721    0.00996     3.18678
      C    7   -0.19330      0.99961     2.18482    0.00886     3.19330
      C    8   -0.15960      0.99953     2.14927    0.01079     3.15960
      C    9   -0.08900      0.99962     2.07729    0.01210     3.08900
      N   10   -0.42656      0.99977     2.91611    0.01068     3.92656
      C   11    0.42235      0.99969     1.55231    0.02565     2.57765
      O   12   -0.31442      0.99987     3.30855    0.00601     4.31442
      O   13   -0.34391      0.99988     3.33762    0.00642     4.34391
      H   14    0.09666      0.00000     0.40199    0.00135     0.40334
      H   15    0.09465      0.00000     0.40407    0.00128     0.40535
      H   16    0.09475      0.00000     0.40367    0.00158     0.40525
      H   17    0.09677      0.00000     0.40205    0.00118     0.40323
      H   18    0.09176      0.00000     0.40689    0.00136     0.40824
      H   19    0.10264      0.00000     0.39613    0.00123     0.39736
      H   20    0.09366      0.00000     0.40392    0.00242     0.40634
      H   21    0.09381      0.00000     0.40476    0.00144     0.40619
      H   22    0.10084      0.00000     0.39796    0.00121     0.39916
      H   23    0.09806      0.00000     0.40025    0.00169     0.40194
      H   24    0.09712      0.00000     0.40165    0.00123     0.40288
      H   25    0.10458      0.00000     0.39393    0.00149     0.39542
      H   26    0.10379      0.00000     0.39455    0.00166     0.39621
      H   27    0.11520      0.00000     0.38313    0.00167     0.38480
      H   28    0.10190      0.00000     0.39679    0.00132     0.39810
      H   29    0.08536      0.00000     0.41253    0.00211     0.41464
      H   30    0.17931      0.00000     0.31841    0.00228     0.32069
      H   31    0.17512      0.00000     0.32247    0.00241     0.32488
      H   32    0.23821      0.00000     0.25744    0.00435     0.26179
 =======================================================================
   * Total *   -0.00000     12.99569    37.83998    0.16433    51.00000

 Normal termination of Gaussian 16 at Sun Dec 13 16:48:48 2020.
