 Gaussian 16, Revision A.03,

 -----------------------------------------------------------
 # opt freq B3LYP/6-31G(d) empiricaldispersion=gd3bj scf=xqc
 -----------------------------------------------------------

 ------------------------------
 CID_58135832_JID_7114_neutraal
 ------------------------------
 Symbolic Z-matrix:
 Charge =  0 Multiplicity = 1

 SCF Done:  E(RB3LYP) =  -769.846168899     A.U. after   14 cycles
 SCF Done:  E(RB3LYP) =  -769.851988319     A.U. after   12 cycles
 SCF Done:  E(RB3LYP) =  -769.852855452     A.U. after   12 cycles
 SCF Done:  E(RB3LYP) =  -769.852509870     A.U. after   12 cycles
 SCF Done:  E(RB3LYP) =  -769.853230032     A.U. after   12 cycles
 SCF Done:  E(RB3LYP) =  -769.853373246     A.U. after   11 cycles
 SCF Done:  E(RB3LYP) =  -769.853392820     A.U. after   10 cycles
 SCF Done:  E(RB3LYP) =  -769.853393201     A.U. after   10 cycles
 SCF Done:  E(RB3LYP) =  -769.853400893     A.U. after    9 cycles
 SCF Done:  E(RB3LYP) =  -769.853401591     A.U. after    8 cycles
 SCF Done:  E(RB3LYP) =  -769.853401652     A.U. after    7 cycles
 Optimization completed.
    -- Stationary point found.
 Normal termination of Gaussian 16 at Mon Dec 14 13:17:48 2020.

 --------------------------------------------------------------------
 #N Geom=AllCheck Guess=TCheck SCRF=Check GenChk RB3LYP/6-31G(d) Freq
 --------------------------------------------------------------------

 Structure from the checkpoint file:  "JID_7114.chk"
 ------------------------------
 CID_58135832_JID_7114_neutraal
 ------------------------------
 Charge =  0 Multiplicity = 1

 SCF Done:  E(RB3LYP) =  -769.853401652     A.U. after    1 cycles

  Exact polarizability: 168.736   0.285 150.969  -0.654  -0.090 134.464
 Approx polarizability: 203.957   1.593 210.764  -0.917   4.658 215.497

                      1                      2                      3
                      A                      A                      A
 Frequencies --     34.9158                56.6936                58.4416
 Red. masses --      3.4860                 5.1840                 3.3918
 Frc consts  --      0.0025                 0.0098                 0.0068
 IR Inten    --      0.4605                 1.5991                 0.2701

                      4                      5                      6
                      A                      A                      A
 Frequencies --     85.3040                92.3239               121.8930
 Red. masses --      3.0179                 3.0868                 3.1739
 Frc consts  --      0.0129                 0.0155                 0.0278
 IR Inten    --      0.4116                 0.1664                 0.6208

                      7                      8                      9
                      A                      A                      A
 Frequencies --    142.4078               172.8777               191.1246
 Red. masses --      1.1289                 3.3445                 2.5686
 Frc consts  --      0.0135                 0.0589                 0.0553
 IR Inten    --      0.3347                 1.8231                 1.9629

                     10                     11                     12
                      A                      A                      A
 Frequencies --    211.3027               228.3828               254.9433
 Red. masses --      3.8025                 3.0968                 1.2249
 Frc consts  --      0.1000                 0.0952                 0.0469
 IR Inten    --      0.3226                 2.9371                 0.0800

                     13                     14                     15
                      A                      A                      A
 Frequencies --    268.4220               282.2259               318.7426
 Red. masses --      2.4780                 1.9364                 3.3838
 Frc consts  --      0.1052                 0.0909                 0.2026
 IR Inten    --      3.2718                 1.5381                 3.3543

                     16                     17                     18
                      A                      A                      A
 Frequencies --    330.4414               334.4367               357.7262
 Red. masses --      3.9967                 2.2155                 2.0798
 Frc consts  --      0.2571                 0.1460                 0.1568
 IR Inten    --      1.9595                 7.1031                 1.4352

                     19                     20                     21
                      A                      A                      A
 Frequencies --    384.9429               387.9418               438.8483
 Red. masses --      2.7057                 2.0094                 3.0851
 Frc consts  --      0.2362                 0.1782                 0.3501
 IR Inten    --      1.7337                 5.7871                 1.6001

                     22                     23                     24
                      A                      A                      A
 Frequencies --    456.9857               490.3656               510.2061
 Red. masses --      2.5816                 2.8019                 3.0313
 Frc consts  --      0.3177                 0.3970                 0.4649
 IR Inten    --      1.6166                 1.8331                 1.6832

                     25                     26                     27
                      A                      A                      A
 Frequencies --    542.2822               550.3838               711.2073
 Red. masses --      3.2354                 1.9007                 3.4026
 Frc consts  --      0.5606                 0.3392                 1.0140
 IR Inten    --      3.8157                 0.9392                 6.4870

                     28                     29                     30
                      A                      A                      A
 Frequencies --    735.4986               751.0079               776.8958
 Red. masses --      3.5966                 4.0885                 3.9455
 Frc consts  --      1.1463                 1.3586                 1.4031
 IR Inten    --      2.5083                 9.9898                19.9698

                     31                     32                     33
                      A                      A                      A
 Frequencies --    795.8105               804.0226               838.0857
 Red. masses --      2.6853                 1.6696                 2.4772
 Frc consts  --      1.0020                 0.6359                 1.0251
 IR Inten    --      5.1016                 1.3111                 6.4270

                     34                     35                     36
                      A                      A                      A
 Frequencies --    860.3491               879.7718               896.8591
 Red. masses --      1.8769                 2.7987                 2.7157
 Frc consts  --      0.8186                 1.2763                 1.2870
 IR Inten    --      8.9564                 1.1614                 5.5090

                     37                     38                     39
                      A                      A                      A
 Frequencies --    911.1615               925.2527               975.5502
 Red. masses --      2.0347                 1.9570                 2.3164
 Frc consts  --      0.9953                 0.9871                 1.2988
 IR Inten    --      1.4131                 0.9082                 0.8657

                     40                     41                     42
                      A                      A                      A
 Frequencies --    993.5188              1015.0258              1039.3922
 Red. masses --      2.0722                 2.0749                 1.8802
 Frc consts  --      1.2052                 1.2595                 1.1968
 IR Inten    --      0.8227                11.2746                 5.9147

                     43                     44                     45
                      A                      A                      A
 Frequencies --   1045.3227              1069.6048              1075.8709
 Red. masses --      2.0116                 2.2745                 1.8729
 Frc consts  --      1.2951                 1.5332                 1.2773
 IR Inten    --     10.3745                11.2510                15.7668

                     46                     47                     48
                      A                      A                      A
 Frequencies --   1079.6225              1086.0741              1103.3670
 Red. masses --      3.0378                 1.8854                 1.8995
 Frc consts  --      2.0862                 1.3103                 1.3625
 IR Inten    --     36.8542                17.4783                11.0479

                     49                     50                     51
                      A                      A                      A
 Frequencies --   1127.5033              1142.8982              1150.8316
 Red. masses --      2.9173                 1.9934                 1.8170
 Frc consts  --      2.1851                 1.5341                 1.4178
 IR Inten    --     24.3362                 3.0124                58.3560

                     52                     53                     54
                      A                      A                      A
 Frequencies --   1167.3817              1183.0083              1183.0901
 Red. masses --      1.9757                 2.5637                 1.4354
 Frc consts  --      1.5863                 2.1139                 1.1838
 IR Inten    --      7.0027                29.7478                 4.0025

                     55                     56                     57
                      A                      A                      A
 Frequencies --   1186.7378              1189.7767              1218.2228
 Red. masses --      1.2790                 1.5835                 1.5459
 Frc consts  --      1.0613                 1.3207                 1.3517
 IR Inten    --      0.7663                26.2741                 7.4927

                     58                     59                     60
                      A                      A                      A
 Frequencies --   1226.5250              1233.3504              1258.6498
 Red. masses --      1.6105                 1.2031                 1.7753
 Frc consts  --      1.4274                 1.0782                 1.6571
 IR Inten    --     33.4567                 9.5463                33.9800

                     61                     62                     63
                      A                      A                      A
 Frequencies --   1297.5225              1305.6472              1319.1972
 Red. masses --      2.5742                 1.2850                 2.4363
 Frc consts  --      2.5535                 1.2906                 2.4980
 IR Inten    --    144.8701                 8.7281                25.5306

                     64                     65                     66
                      A                      A                      A
 Frequencies --   1321.9975              1323.2440              1344.1557
 Red. masses --      1.4476                 1.4281                 1.3359
 Frc consts  --      1.4906                 1.4733                 1.4221
 IR Inten    --    103.2265                32.3247                11.1864

                     67                     68                     69
                      A                      A                      A
 Frequencies --   1352.1298              1361.6570              1384.3561
 Red. masses --      1.3313                 1.2917                 1.3669
 Frc consts  --      1.4340                 1.4111                 1.5434
 IR Inten    --     26.8904                 1.8307                 1.6528

                     70                     71                     72
                      A                      A                      A
 Frequencies --   1387.0481              1393.6922              1403.8870
 Red. masses --      1.3221                 1.3749                 1.4818
 Frc consts  --      1.4986                 1.5734                 1.7207
 IR Inten    --      1.6730                 6.7181                 1.8486

                     73                     74                     75
                      A                      A                      A
 Frequencies --   1408.8500              1413.4220              1417.6626
 Red. masses --      1.4864                 1.4111                 1.4143
 Frc consts  --      1.7383                 1.6609                 1.6747
 IR Inten    --      0.0365                 1.5552                 4.4966

                     76                     77                     78
                      A                      A                      A
 Frequencies --   1429.6635              1436.5563              1458.3286
 Red. masses --      1.3877                 1.3960                 1.2546
 Frc consts  --      1.6711                 1.6974                 1.5721
 IR Inten    --      6.2949                25.1138                 2.4165

                     79                     80                     81
                      A                      A                      A
 Frequencies --   1486.6269              1493.0917              1498.1625
 Red. masses --      1.2110                 1.2111                 1.0887
 Frc consts  --      1.5769                 1.5908                 1.4397
 IR Inten    --      0.7077                 5.6103                 7.6255

                     82                     83                     84
                      A                      A                      A
 Frequencies --   1505.3993              1509.5437              1513.2727
 Red. masses --      1.0939                 1.1013                 1.0481
 Frc consts  --      1.4607                 1.4785                 1.4141
 IR Inten    --      0.9158                 5.2400                 5.6065

                     85                     86                     87
                      A                      A                      A
 Frequencies --   1514.8302              1516.6479              1523.1302
 Red. masses --      1.0867                 1.0515                 1.0934
 Frc consts  --      1.4692                 1.4250                 1.4945
 IR Inten    --      7.5891                21.4118                 6.2485

                     88                     89                     90
                      A                      A                      A
 Frequencies --   1524.4825              1526.0844              1533.1413
 Red. masses --      1.0503                 1.0801                 1.0971
 Frc consts  --      1.4381                 1.4820                 1.5194
 IR Inten    --      8.8835                 0.8453                 1.3770

                     91                     92                     93
                      A                      A                      A
 Frequencies --   1538.3444              1548.6895              1821.0700
 Red. masses --      1.0568                 1.1009                10.9349
 Frc consts  --      1.4735                 1.5557                21.3657
 IR Inten    --      2.1641                 6.5080               182.8947

                     94                     95                     96
                      A                      A                      A
 Frequencies --   2917.0918              2924.8600              2931.1424
 Red. masses --      1.0731                 1.0665                 1.0705
 Frc consts  --      5.3800                 5.3753                 5.4190
 IR Inten    --     40.5114                29.2032                38.7353

                     97                     98                     99
                      A                      A                      A
 Frequencies --   2942.8977              2963.6186              3029.6253
 Red. masses --      1.0707                 1.0814                 1.0661
 Frc consts  --      5.4636                 5.5958                 5.7653
 IR Inten    --    179.0883                39.2937                30.4720

                    100                    101                    102
                      A                      A                      A
 Frequencies --   3046.2488              3050.3301              3052.5423
 Red. masses --      1.0606                 1.0702                 1.0697
 Frc consts  --      5.7987                 5.8667                 5.8725
 IR Inten    --     27.2704                 3.3373                 2.5941

                    103                    104                    105
                      A                      A                      A
 Frequencies --   3056.4736              3064.4116              3068.1940
 Red. masses --      1.0630                 1.0823                 1.0843
 Frc consts  --      5.8508                 5.9884                 6.0139
 IR Inten    --     26.8521                48.2981                53.0482

                    106                    107                    108
                      A                      A                      A
 Frequencies --   3074.0672              3074.6528              3078.0111
 Red. masses --      1.0582                 1.0422                 1.0784
 Frc consts  --      5.8920                 5.8048                 6.0197
 IR Inten    --     67.1810                30.2067                71.4927

                    109                    110                    111
                      A                      A                      A
 Frequencies --   3080.2552              3090.3759              3101.2090
 Red. masses --      1.0945                 1.1055                 1.1032
 Frc consts  --      6.1187                 6.2203                 6.2510
 IR Inten    --     37.9068                40.3551                28.7773

                    112                    113                    114
                      A                      A                      A
 Frequencies --   3108.6937              3110.8458              3118.9039
 Red. masses --      1.0979                 1.1019                 1.1040
 Frc consts  --      6.2513                 6.2827                 6.3275
 IR Inten    --     17.1521                37.8778                33.1463

                    115                    116                    117
                      A                      A                      A
 Frequencies --   3148.0043              3150.5438              3183.0858
 Red. masses --      1.1073                 1.0859                 1.1069
 Frc consts  --      6.4653                 6.3507                 6.6079
 IR Inten    --     21.3850                22.1545                16.5511

 - Thermochemistry -
 -------------------
 Temperature   298.150 Kelvin.  Pressure   1.00000 Atm.
 Atom     1 has atomic number  6 and mass  12.00000

 Molecular mass:   240.18378 amu.
 Principal axes and moments of inertia in atomic units:
                           1         2         3
     Eigenvalues --  2666.490075679.106837040.46547
           X            0.99998  -0.00298  -0.00625
           Y            0.00287   0.99986  -0.01673
           Z            0.00630   0.01671   0.99984
 This molecule is an asymmetric top.
 Rotational symmetry number  1.
 Warning -- assumption of classical behavior for rotation
           may cause significant error
 Rotational temperatures (Kelvin)      0.03248     0.01525     0.01230
 Rotational constants (GHZ):           0.67682     0.31779     0.25634
 Zero-point vibrational energy     975670.8 (Joules/Mol)
                                  233.19093 (Kcal/Mol)
 Warning -- explicit consideration of  26 degrees of freedom as
           vibrations may cause significant error
 Vibrational temperatures:     50.24    81.57    84.08   122.73   132.83
          (Kelvin)            175.38   204.89   248.73   274.99   304.02
                              328.59   366.81   386.20   406.06   458.60
                              475.43   481.18   514.69   553.85   558.16
                              631.40   657.50   705.53   734.07   780.22
                              791.88  1023.27  1058.22  1080.53  1117.78
                             1144.99  1156.81  1205.82  1237.85  1265.80
                             1290.38  1310.96  1331.23  1403.60  1429.45
                             1460.40  1495.45  1503.99  1538.92  1547.94
                             1553.34  1562.62  1587.50  1622.23  1644.38
                             1655.79  1679.60  1702.09  1702.20  1707.45
                             1711.82  1752.75  1764.70  1774.52  1810.92
                             1866.85  1878.54  1898.03  1902.06  1903.85
                             1933.94  1945.41  1959.12  1991.78  1995.65
                             2005.21  2019.88  2027.02  2033.60  2039.70
                             2056.97  2066.88  2098.21  2138.92  2148.23
                             2155.52  2165.93  2171.90  2177.26  2179.50
                             2182.12  2191.44  2193.39  2195.70  2205.85
                             2213.33  2228.22  2620.11  4197.04  4208.22
                             4217.26  4234.17  4263.99  4358.96  4382.87
                             4388.74  4391.93  4397.58  4409.00  4414.45
                             4422.90  4423.74  4428.57  4431.80  4446.36
                             4461.95  4472.72  4475.81  4487.41  4529.28
                             4532.93  4579.75

 Zero-point correction=                           0.371613 (Hartree/Particle)
 Thermal correction to Energy=                    0.388585
 Thermal correction to Enthalpy=                  0.389529
 Thermal correction to Gibbs Free Energy=         0.326942
 Sum of electronic and zero-point Energies=           -769.481788
 Sum of electronic and thermal Energies=              -769.464817
 Sum of electronic and thermal Enthalpies=            -769.463873
 Sum of electronic and thermal Free Energies=         -769.526460

                     E (Thermal)             CV                S
                      KCal/Mol        Cal/Mol-Kelvin    Cal/Mol-Kelvin
 Total                  243.841             65.527            131.726
 Electronic               0.000              0.000              0.000
 Translational            0.889              2.981             42.330
 Rotational               0.889              2.981             33.033
 Vibrational            242.063             59.565             56.363
 Vibration     1          0.594              1.983              5.528
 Vibration     2          0.596              1.975              4.569
 Vibration     3          0.596              1.974              4.509
 Vibration     4          0.601              1.959              3.765
 Vibration     5          0.602              1.955              3.610
 Vibration     6          0.609              1.931              3.070
 Vibration     7          0.616              1.911              2.771
 Vibration     8          0.626              1.876              2.404
 Vibration     9          0.634              1.852              2.217
 Vibration    10          0.643              1.824              2.032
 Vibration    11          0.651              1.798              1.892
 Vibration    12          0.665              1.754              1.696
 Vibration    13          0.673              1.731              1.606
 Vibration    14          0.681              1.707              1.520
 Vibration    15          0.705              1.638              1.317
 Vibration    16          0.713              1.615              1.258
 Vibration    17          0.716              1.607              1.239
 Vibration    18          0.733              1.559              1.132
 Vibration    19          0.754              1.502              1.020
 Vibration    20          0.756              1.496              1.008
 Vibration    21          0.799              1.385              0.830
 Vibration    22          0.815              1.345              0.775
 Vibration    23          0.846              1.271              0.683
 Vibration    24          0.865              1.227              0.633
 Vibration    25          0.897              1.157              0.560
 Vibration    26          0.906              1.139              0.543

 Optimization completed.
    -- Stationary point found.
 Normal termination of Gaussian 16 at Mon Dec 14 13:37:59 2020.

 ----------------------------------------------------------------------
 # B3LYP/6-311++G(d,p) empiricaldispersion=gd3bj scf=xqc pop=npa geom=c
 heck
 ----------------------------------------------------------------------

 --------------------------------------
 CID_58135832_JID_7114_Energie_neutraal
 --------------------------------------
 Structure from the checkpoint file:  "JID_7114.chk"
 Charge =  0 Multiplicity = 1

 SCF Done:  E(RB3LYP) =  -770.067982319     A.U. after   14 cycles
 Normal termination of Gaussian 16 at Mon Dec 14 13:46:59 2020.

 ----------------------------------------------------------------------
 # B3LYP/6-311++G(d,p) empiricaldispersion=gd3bj scf=xqc pop=npa geom=c
 heck
 ----------------------------------------------------------------------

 ------------------------------------
 CID_58135832_JID_7114_Energie_kation
 ------------------------------------
 Structure from the checkpoint file:  "JID_7114.chk"
 Charge =  1 Multiplicity = 2

 SCF Done:  E(UB3LYP) =  -769.789841252     A.U. after   24 cycles
 Normal termination of Gaussian 16 at Mon Dec 14 14:08:18 2020.
 Gaussian 16:  ES64L-G16RevA.03 25-Dec-2016

 ----------------------------------------------------------------------
 # B3LYP/6-311++G(d,p) empiricaldispersion=gd3bj scf=xqc pop=npa geom=c
 heck
 ----------------------------------------------------------------------

 -----------------------------------
 CID_58135832_JID_7114_Energie_anion
 -----------------------------------
 Structure from the checkpoint file:  "JID_7114.chk"
 Charge = -1 Multiplicity = 2

                         Standard orientation:
 ---------------------------------------------------------------------
 Center     Atomic      Atomic             Coordinates (Angstroms)
 Number     Number       Type             X           Y           Z
 ---------------------------------------------------------------------
      1          6           0        4.766649   -0.224821   -0.391663
      2          7           0        3.422034   -0.685955   -0.093662
      3          6           0        2.917065   -0.077798    1.133251
      4          6           0        1.540198   -0.638659    1.512973
      5          6           0        0.487095   -0.674638    0.385360
      6          6           0        1.154368   -1.094473   -0.947547
      7          6           0        2.509420   -0.437492   -1.207752
      8          7           0       -0.381107    0.522863    0.363420
      9          6           0        0.277990    1.820692    0.212987
     10          6           0       -0.687996    2.967645    0.517429
     11          6           0       -1.911329    2.897309   -0.397524
     12          6           0       -2.549917    1.511832   -0.293972
     13          6           0       -1.507820    0.409249   -0.569021
     14          6           0       -2.191216   -0.950241   -0.491979
     15          8           0       -2.331264   -1.701284   -1.433413
     16          8           0       -2.672399   -1.208369    0.742847
     17          6           0       -3.350594   -2.466036    0.880194
     18          1           0        4.823439    0.869186   -0.562957
     19          1           0        5.434968   -0.470785    0.440928
     20          1           0        5.139482   -0.727759   -1.290441
     21          1           0        3.623112   -0.303074    1.941999
     22          1           0        2.893344    1.025710    1.041693
     23          1           0        1.131472   -0.094726    2.371971
     24          1           0        1.697932   -1.674976    1.833330
     25          1           0       -0.198715   -1.482949    0.657156
     26          1           0        0.479341   -0.918122   -1.790980
     27          1           0        1.319546   -2.177962   -0.903565
     28          1           0        2.393383    0.648140   -1.398260
     29          1           0        2.953120   -0.869156   -2.112885
     30          1           0        0.691425    1.962323   -0.805054
     31          1           0        1.116452    1.864899    0.907812
     32          1           0       -0.164435    3.924160    0.398833
     33          1           0       -1.004826    2.889775    1.565090
     34          1           0       -2.641511    3.673901   -0.140770
     35          1           0       -1.601741    3.081164   -1.436365
     36          1           0       -2.951388    1.355721    0.712698
     37          1           0       -3.377237    1.407351   -1.006478
     38          1           0       -1.181452    0.500396   -1.619987
     39          1           0       -4.216357   -2.510062    0.214298
     40          1           0       -2.676822   -3.292501    0.638522
     41          1           0       -3.663176   -2.517205    1.923229
 ---------------------------------------------------------------------

 SCF Done:  E(UB3LYP) =  -770.053056422     A.U. after   33 cycles
 SCF Done:  E(UB3LYP) =  -770.053056422     a.u. after    1 cycles

 The electronic state is 2-A.
 Alpha  occ. eigenvalues --  -19.08029 -19.02613 -14.21564 -14.21232 -10.21180
 Alpha  occ. eigenvalues --  -10.13243 -10.12148 -10.10751 -10.09953 -10.09817
 Alpha  occ. eigenvalues --  -10.09788 -10.09443 -10.08125 -10.07877 -10.07421
 Alpha  occ. eigenvalues --  -10.07377 -10.07019  -1.02149  -0.93370  -0.84614
 Alpha  occ. eigenvalues --   -0.83366  -0.72268  -0.68867  -0.67967  -0.66257
 Alpha  occ. eigenvalues --   -0.63429  -0.60605  -0.56252  -0.55114  -0.53664
 Alpha  occ. eigenvalues --   -0.51259  -0.48309  -0.47241  -0.45970  -0.41644
 Alpha  occ. eigenvalues --   -0.41004  -0.39848  -0.39214  -0.37903  -0.37607
 Alpha  occ. eigenvalues --   -0.37191  -0.36593  -0.35260  -0.35029  -0.33989
 Alpha  occ. eigenvalues --   -0.33128  -0.32098  -0.31921  -0.30625  -0.29859
 Alpha  occ. eigenvalues --   -0.29396  -0.28902  -0.27521  -0.27478  -0.26906
 Alpha  occ. eigenvalues --   -0.26188  -0.25605  -0.24595  -0.24283  -0.23472
 Alpha  occ. eigenvalues --   -0.22680  -0.21874  -0.21659  -0.18921  -0.12942
 Alpha  occ. eigenvalues --   -0.12525   0.04154
 Alpha virt. eigenvalues --    0.05649   0.06044   0.07147   0.07649   0.07874
 Alpha virt. eigenvalues --    0.08233   0.08405   0.09000   0.09192   0.09915
 Alpha virt. eigenvalues --    0.10452   0.10727   0.10826   0.11090   0.12000

  Beta  occ. eigenvalues --  -19.08023 -19.02608 -14.21560 -14.21222 -10.21179
  Beta  occ. eigenvalues --  -10.13201 -10.12147 -10.10748 -10.09943 -10.09807
  Beta  occ. eigenvalues --  -10.09771 -10.09417 -10.08115 -10.07863 -10.07405
  Beta  occ. eigenvalues --  -10.07366 -10.07013  -1.02140  -0.93361  -0.84600
  Beta  occ. eigenvalues --   -0.83349  -0.72247  -0.68846  -0.67946  -0.66235
  Beta  occ. eigenvalues --   -0.63380  -0.60569  -0.56216  -0.55080  -0.53629
  Beta  occ. eigenvalues --   -0.51222  -0.48266  -0.47202  -0.45941  -0.41623
  Beta  occ. eigenvalues --   -0.40974  -0.39818  -0.39190  -0.37878  -0.37579
  Beta  occ. eigenvalues --   -0.37161  -0.36573  -0.35234  -0.35002  -0.33962
  Beta  occ. eigenvalues --   -0.33100  -0.32068  -0.31900  -0.30601  -0.29835
  Beta  occ. eigenvalues --   -0.29372  -0.28879  -0.27491  -0.27449  -0.26882
  Beta  occ. eigenvalues --   -0.26163  -0.25585  -0.24572  -0.24255  -0.23450
  Beta  occ. eigenvalues --   -0.22658  -0.21852  -0.21639  -0.18911  -0.12888
  Beta  occ. eigenvalues --   -0.12501
  Beta virt. eigenvalues --    0.06050   0.06570   0.06751   0.07504   0.08061
  Beta virt. eigenvalues --    0.08178   0.08483   0.08680   0.09290   0.09689
  Beta virt. eigenvalues --    0.10309   0.10831   0.10937   0.11079   0.11360

 Mulliken charges and spin densities:
               1          2
     1  C    0.564285  -0.791925
     2  N   -0.052669   0.151684
     3  C    0.272176  -0.453032
     4  C   -0.218932  -0.441108
     5  C   -0.326978   0.326584
     6  C   -0.286189  -0.115973
     7  C   -0.228168  -0.243544
     8  N    0.302943   0.079523
     9  C   -0.261812   0.128942
    10  C    0.609282  -1.111207
    11  C   -0.354605   0.014898
    12  C   -0.025144  -0.401169
    13  C    0.885585  -0.776484
    14  C   -1.523209   0.746842
    15  O   -0.110169   0.002441
    16  O   -0.011853   0.039603
    17  C    0.891036  -1.093949
    18  H   -0.076700   0.186670
    19  H   -0.251855   0.381466
    20  H   -0.194845   0.312256
    21  H   -0.175051   0.360314
    22  H   -0.033099   0.135702
    23  H   -0.002594   0.193279
    24  H   -0.068758   0.227552
    25  H    0.282148  -0.057998
    26  H    0.093328   0.064460
    27  H    0.016391   0.169240
    28  H   -0.078115   0.176364
    29  H    0.024582   0.174456
    30  H    0.143609  -0.021350
    31  H    0.169461  -0.032011
    32  H   -0.358335   0.535046
    33  H    0.096839   0.036121
    34  H   -0.236610   0.425430
    35  H    0.079696   0.039606
    36  H    0.113745   0.066393
    37  H   -0.038799   0.216722
    38  H    0.228609  -0.019076
    39  H   -0.260236   0.434002
    40  H   -0.214730   0.385822
    41  H   -0.384261   0.547407
 Sum of Mulliken charges =  -1.00000   1.00000

 Dipole moment (field-independent basis, Debye):
    X=             -0.3518    Y=              1.1279    Z=             -1.5081  Tot=              1.9158
 Quadrupole moment (field-independent basis, Debye-Ang):
   XX=           -195.4086   YY=           -165.8326   ZZ=           -143.8711
   XY=             -5.7873   XZ=              0.7502   YZ=              0.6964

 Summary of Natural Population Analysis:

                                       Natural Population
                Natural  -----------------------------------------------
    Atom  No    Charge         Core      Valence    Rydberg      Total
 -----------------------------------------------------------------------
      C    1   -0.17533      0.99965     2.16701    0.00867     3.17533
      N    2   -0.28007      0.99971     2.76755    0.01280     3.78007
      C    3   -0.08384      0.99961     2.07292    0.01132     3.08384
      C    4   -0.19894      0.99960     2.18979    0.00955     3.19894
      C    5   -0.00202      0.99956     1.98917    0.01329     3.00202
      C    6   -0.20554      0.99959     2.19746    0.00848     3.20554
      C    7   -0.08537      0.99961     2.07505    0.01071     3.08537
      N    8   -0.27877      0.99969     2.76737    0.01171     3.77877
      C    9   -0.08572      0.99960     2.07528    0.01084     3.08572
      C   10   -0.19204      0.99963     2.18346    0.00896     3.19204
      C   11   -0.18907      0.99962     2.18154    0.00790     3.18907
      C   12   -0.18912      0.99961     2.17991    0.00960     3.18912
      C   13   -0.04465      0.99952     2.03233    0.01279     3.04465
      C   14    0.41142      0.99965     1.56200    0.02693     2.58858
      O   15   -0.30278      0.99987     3.29741    0.00550     4.30278
      O   16   -0.27586      0.99986     3.26697    0.00903     4.27586
      C   17   -0.10502      0.99959     2.09624    0.00918     3.10502
      H   18    0.08011      0.00000     0.41842    0.00147     0.41989
      H   19    0.09600      0.00000     0.40272    0.00128     0.40400
      H   20    0.09453      0.00000     0.40429    0.00117     0.40547
      H   21    0.09760      0.00000     0.40103    0.00136     0.40240
      H   22    0.07700      0.00000     0.42119    0.00180     0.42300
      H   23    0.10631      0.00000     0.39257    0.00111     0.39369
      H   24    0.10392      0.00000     0.39471    0.00137     0.39608
      H   25    0.09954      0.00000     0.39809    0.00237     0.40046
      H   26    0.10468      0.00000     0.39442    0.00090     0.39532
      H   27    0.10276      0.00000     0.39568    0.00156     0.39724
      H   28    0.07907      0.00000     0.41913    0.00180     0.42093
      H   29    0.09580      0.00000     0.40309    0.00111     0.40420
      H   30    0.07778      0.00000     0.42038    0.00185     0.42222
      H   31    0.10038      0.00000     0.39755    0.00207     0.39962
      H   32    0.09997      0.00000     0.39901    0.00103     0.40003
      H   33    0.09742      0.00000     0.40114    0.00144     0.40258
      H   34    0.10102      0.00000     0.39792    0.00106     0.39898
      H   35    0.09303      0.00000     0.40574    0.00123     0.40697
      H   36    0.10499      0.00000     0.39309    0.00192     0.39501
      H   37    0.10071      0.00000     0.39843    0.00086     0.39929
      H   38    0.09168      0.00000     0.40639    0.00193     0.40832
      H   39    0.09194      0.00000     0.40668    0.00137     0.40806
      H   40    0.09224      0.00000     0.40634    0.00142     0.40776
      H   41    0.09421      0.00000     0.40439    0.00140     0.40579
 =======================================================================
   * Total *    0.00000     16.99397    48.78387    0.22216    66.00000

 Normal termination of Gaussian 16 at Mon Dec 14 14:37:30 2020.
