 Gaussian 16, Revision A.03,

 -----------------------------------------------------------
 # opt freq B3LYP/6-31G(d) empiricaldispersion=gd3bj scf=xqc
 -----------------------------------------------------------

 -------------------------------
 CID_131084968_JID_1814_neutraal
 -------------------------------
 Symbolic Z-matrix:
 Charge =  0 Multiplicity = 1

 SCF Done:  E(RB3LYP) =  -491.758752395     A.U. after   14 cycles
 SCF Done:  E(RB3LYP) =  -491.766632976     A.U. after   13 cycles
 SCF Done:  E(RB3LYP) =  -491.768072362     A.U. after   12 cycles
 SCF Done:  E(RB3LYP) =  -491.768930103     A.U. after   12 cycles
 SCF Done:  E(RB3LYP) =  -491.769285010     A.U. after   12 cycles
 SCF Done:  E(RB3LYP) =  -491.769542668     A.U. after   11 cycles
 SCF Done:  E(RB3LYP) =  -491.769634144     A.U. after   11 cycles
 SCF Done:  E(RB3LYP) =  -491.769674540     A.U. after   10 cycles
 SCF Done:  E(RB3LYP) =  -491.769757063     A.U. after   11 cycles
 SCF Done:  E(RB3LYP) =  -491.769775357     A.U. after   10 cycles
 SCF Done:  E(RB3LYP) =  -491.770106999     A.U. after   11 cycles
 SCF Done:  E(RB3LYP) =  -491.770128323     A.U. after   11 cycles
 SCF Done:  E(RB3LYP) =  -491.770120836     A.U. after   11 cycles
 SCF Done:  E(RB3LYP) =  -491.770128998     A.U. after   11 cycles
 SCF Done:  E(RB3LYP) =  -491.770129126     A.U. after    8 cycles
 Optimization completed.
    -- Stationary point found.

 1\1\GINC-NODE102\FOpt\RB3LYP\6-31G(d)\C7H10N4\VSC10255\08-Dec-2020\0\\
 # opt freq B3LYP/6-31G(d) empiricaldispersion=gd3bj scf=xqc\\CID_13108
 4968_JID_1814_neutraal\\0,1\C,-0.7157575604,-0.8554061182,-0.194313604
 7\C,-0.8511577545,0.5991104165,0.2885707793\N,-0.2585929852,0.52788068
 73,1.6383471196\N,0.9291904738,-0.2482065745,1.4192593533\C,0.55023863
 31,-1.3663942955,0.5527557343\C,2.1350078186,0.392532291,1.3006674004\
 N,2.1795568621,1.6789213625,1.717133944\C,3.3738442365,2.2681928735,1.
 6703061247\C,4.5235126039,1.6203366245,1.2236214112\C,4.3516523059,0.2

 Normal termination of Gaussian 16 at Tue Dec  8 21:21:50 2020.

 --------------------------------------------------------------------
 #N Geom=AllCheck Guess=TCheck SCRF=Check GenChk RB3LYP/6-31G(d) Freq
 --------------------------------------------------------------------

 Structure from the checkpoint file:  "JID_1814.chk"
 -------------------------------
 CID_131084968_JID_1814_neutraal
 -------------------------------
 Charge =  0 Multiplicity = 1

 SCF Done:  E(RB3LYP) =  -491.770129126     A.U. after    1 cycles

  Exact polarizability: 141.720  -0.163  93.765   8.708  -0.444  56.286
 Approx polarizability: 199.017   0.809 157.511  24.368   1.628  89.251

                      1                      2                      3
                      A                      A                      A
 Frequencies --     34.0488               102.9219               124.0944
 Red. masses --      2.7025                 4.0922                 2.6443
 Frc consts  --      0.0018                 0.0255                 0.0240
 IR Inten    --      3.4883                 0.7174                 4.8305

                      4                      5                      6
                      A                      A                      A
 Frequencies --    167.8635               227.3854               365.2682
 Red. masses --      3.3155                 3.4409                 3.2333
 Frc consts  --      0.0550                 0.1048                 0.2542
 IR Inten    --      7.3979                 5.2438                 6.3285

                      7                      8                      9
                      A                      A                      A
 Frequencies --    419.3025               448.2020               520.2791
 Red. masses --      4.3078                 5.9380                 3.4338
 Frc consts  --      0.4462                 0.7028                 0.5476
 IR Inten    --      0.0068                16.8604                13.1219

                     10                     11                     12
                      A                      A                      A
 Frequencies --    547.6326               624.0883               655.4660
 Red. masses --      3.5900                 2.5053                 6.7254
 Frc consts  --      0.6343                 0.5749                 1.7024
 IR Inten    --     24.8024                 7.6982                11.2174

                     13                     14                     15
                      A                      A                      A
 Frequencies --    694.0747               790.9955               798.2926
 Red. masses --      5.8371                 1.7441                 1.9559
 Frc consts  --      1.6568                 0.6429                 0.7344
 IR Inten    --      6.3364                17.3993                13.6437

                     16                     17                     18
                      A                      A                      A
 Frequencies --    808.1970               814.1573               919.0068
 Red. masses --      6.5554                 1.5389                 2.2240
 Frc consts  --      2.5228                 0.6010                 1.1067
 IR Inten    --     20.8237                12.9469                 4.9833

                     19                     20                     21
                      A                      A                      A
 Frequencies --    928.3226               953.3277               983.3017
 Red. masses --      2.1493                 2.7404                 1.4226
 Frc consts  --      1.0913                 1.4674                 0.8104
 IR Inten    --      1.2457                65.7867                 1.1968

                     22                     23                     24
                      A                      A                      A
 Frequencies --   1000.6386              1002.6388              1005.9797
 Red. masses --      6.9334                 1.3769                 1.9670
 Frc consts  --      4.0902                 0.8155                 1.1728
 IR Inten    --      4.2600                 0.0190                 0.4367

                     25                     26                     27
                      A                      A                      A
 Frequencies --   1036.1308              1082.7143              1104.5325
 Red. masses --      3.3841                 1.8036                 2.2654
 Frc consts  --      2.1405                 1.2457                 1.6284
 IR Inten    --     17.3674                25.1311                 0.8456

                     28                     29                     30
                      A                      A                      A
 Frequencies --   1119.7856              1152.5535              1195.5490
 Red. masses --      1.4928                 2.0025                 2.3418
 Frc consts  --      1.1028                 1.5672                 1.9721
 IR Inten    --      3.8625                 8.7917                22.8910

                     31                     32                     33
                      A                      A                      A
 Frequencies --   1233.3063              1260.0049              1267.4888
 Red. masses --      1.2717                 1.4091                 1.2004
 Frc consts  --      1.1396                 1.3181                 1.1362
 IR Inten    --      1.3064                18.2362                 9.0027

                     34                     35                     36
                      A                      A                      A
 Frequencies --   1289.1553              1324.0292              1340.4953
 Red. masses --      6.2230                 1.5577                 1.3008
 Frc consts  --      6.0934                 1.6089                 1.3771
 IR Inten    --     13.1765                 9.5393                12.8144

                     37                     38                     39
                      A                      A                      A
 Frequencies --   1350.7581              1386.1625              1416.3436
 Red. masses --      1.3169                 1.4610                 1.7685
 Frc consts  --      1.4157                 1.6540                 2.0902
 IR Inten    --      3.8031                57.7400                22.6691

                     40                     41                     42
                      A                      A                      A
 Frequencies --   1475.2692              1489.2977              1520.9315
 Red. masses --      1.5493                 2.2566                 1.0910
 Frc consts  --      1.9867                 2.9489                 1.4869
 IR Inten    --    214.8794                 6.2035                 7.4958

                     43                     44                     45
                      A                      A                      A
 Frequencies --   1535.9760              1539.9082              1554.6093
 Red. masses --      1.2301                 1.7448                 1.3943
 Frc consts  --      1.7098                 2.4377                 1.9855
 IR Inten    --     31.0322               187.6721                71.8078

                     46                     47                     48
                      A                      A                      A
 Frequencies --   1597.6258              1655.6942              2992.9668
 Red. masses --      6.0401                 5.5023                 1.0718
 Frc consts  --      9.0833                 8.8870                 5.6569
 IR Inten    --    108.4385               365.5930                50.9138

                     49                     50                     51
                      A                      A                      A
 Frequencies --   3083.5708              3091.7010              3119.0983
 Red. masses --      1.0661                 1.0641                 1.0930
 Frc consts  --      5.9724                 5.9928                 6.2653
 IR Inten    --     17.0423                58.9028                32.6006

                     52                     53                     54
                      A                      A                      A
 Frequencies --   3134.1445              3166.4719              3167.8569
 Red. masses --      1.1057                 1.0906                 1.0990
 Frc consts  --      6.3995                 6.4428                 6.4982
 IR Inten    --     30.3314                33.1426                 6.6353

                     55                     56                     57
                      A                      A                      A
 Frequencies --   3169.7232              3235.7464              3486.6026
 Red. masses --      1.0911                 1.0952                 1.0737
 Frc consts  --      6.4586                 6.7563                 7.6905
 IR Inten    --     34.4571                 9.3764                32.6098

 - Thermochemistry -
 -------------------
 Temperature   298.150 Kelvin.  Pressure   1.00000 Atm.
 Atom     1 has atomic number  6 and mass  12.00000

 Molecular mass:   150.09055 amu.
 Principal axes and moments of inertia in atomic units:
                           1         2         3
     Eigenvalues --   639.632892288.221262698.75214
           X            0.99997  -0.00616  -0.00509
           Y            0.00610   0.99992  -0.01112
           Z            0.00516   0.01109   0.99993
 This molecule is an asymmetric top.
 Rotational symmetry number  1.
 Warning -- assumption of classical behavior for rotation
           may cause significant error
 Rotational temperatures (Kelvin)      0.13541     0.03785     0.03209
 Rotational constants (GHZ):           2.82153     0.78871     0.66873
 Zero-point vibrational energy     463622.9 (Joules/Mol)
                                  110.80852 (Kcal/Mol)
 Warning -- explicit consideration of  10 degrees of freedom as
           vibrations may cause significant error
 Vibrational temperatures:     48.99   148.08   178.54   241.52   327.16
          (Kelvin)            525.54   603.28   644.86   748.57   787.92
                              897.92   943.07   998.62  1138.07  1148.57
                             1162.82  1171.39  1322.25  1335.65  1371.63
                             1414.75  1439.70  1442.57  1447.38  1490.76
                             1557.78  1589.18  1611.12  1658.27  1720.13
                             1774.45  1812.87  1823.63  1854.81  1904.98
                             1928.67  1943.44  1994.38  2037.80  2122.58
                             2142.77  2188.28  2209.93  2215.58  2236.74
                             2298.63  2382.17  4306.21  4436.57  4448.27
                             4487.69  4509.33  4555.85  4557.84  4560.52
                             4655.52  5016.44

 Zero-point correction=                           0.176585 (Hartree/Particle)
 Thermal correction to Energy=                    0.185407
 Thermal correction to Enthalpy=                  0.186351
 Thermal correction to Gibbs Free Energy=         0.141530
 Sum of electronic and zero-point Energies=           -491.593545
 Sum of electronic and thermal Energies=              -491.584722
 Sum of electronic and thermal Enthalpies=            -491.583778
 Sum of electronic and thermal Free Energies=         -491.628600

                     E (Thermal)             CV                S
                      KCal/Mol        Cal/Mol-Kelvin    Cal/Mol-Kelvin
 Total                  116.345             33.809             94.335
 Electronic               0.000              0.000              0.000
 Translational            0.889              2.981             40.928
 Rotational               0.889              2.981             29.758
 Vibrational            114.567             27.847             23.648
 Vibration     1          0.594              1.983              5.578
 Vibration     2          0.605              1.947              3.398
 Vibration     3          0.610              1.929              3.036
 Vibration     4          0.625              1.882              2.459
 Vibration     5          0.651              1.799              1.899
 Vibration     6          0.738              1.544              1.100
 Vibration     7          0.782              1.428              0.894
 Vibration     8          0.807              1.365              0.801
 Vibration     9          0.875              1.205              0.609
 Vibration    10          0.903              1.145              0.549

 Optimization completed.
    -- Stationary point found.

 1\1\GINC-NODE102\Freq\RB3LYP\6-31G(d)\C7H10N4\VSC10255\08-Dec-2020\0\\
 #N Geom=AllCheck Guess=TCheck SCRF=Check GenChk RB3LYP/6-31G(d) Freq\\
 CID_131084968_JID_1814_neutraal\\0,1\C,-0.7157575604,-0.8554061182,-0.
 1943136047\C,-0.8511577545,0.5991104165,0.2885707793\N,-0.2585929852,0
 .5278806873,1.6383471196\N,0.9291904738,-0.2482065745,1.4192593533\C,0
 .5502386331,-1.3663942955,0.5527557343\C,2.1350078186,0.392532291,1.30
 06674004\N,2.1795568621,1.6789213625,1.717133944\C,3.3738442365,2.2681
 928735,1.6703061247\C,4.5235126039,1.6203366245,1.2236214112\C,4.35165

 Normal termination of Gaussian 16 at Tue Dec  8 21:26:13 2020.

 ----------------------------------------------------------------------
 # B3LYP/6-311++G(d,p) empiricaldispersion=gd3bj scf=xqc pop=npa geom=c
 heck
 ----------------------------------------------------------------------

 ---------------------------------------
 CID_131084968_JID_1814_Energie_neutraal
 ---------------------------------------
 Structure from the checkpoint file:  "JID_1814.chk"
 Charge =  0 Multiplicity = 1

 SCF Done:  E(RB3LYP) =  -491.902633418     A.U. after   14 cycles
 Normal termination of Gaussian 16 at Tue Dec  8 21:29:08 2020.

 ----------------------------------------------------------------------
 # B3LYP/6-311++G(d,p) empiricaldispersion=gd3bj scf=xqc pop=npa geom=c
 heck
 ----------------------------------------------------------------------

 -------------------------------------
 CID_131084968_JID_1814_Energie_kation
 -------------------------------------
 Structure from the checkpoint file:  "JID_1814.chk"
 Charge =  1 Multiplicity = 2

 SCF Done:  E(UB3LYP) =  -491.626127067     A.U. after   20 cycles
 Normal termination of Gaussian 16 at Tue Dec  8 21:34:26 2020.
 Gaussian 16:  ES64L-G16RevA.03 25-Dec-2016

 ------------------------------------
 CID_131084968_JID_1814_Energie_anion
 ------------------------------------
 Structure from the checkpoint file:  "JID_1814.chk"
 Charge = -1 Multiplicity = 2

                         Standard orientation:
 ---------------------------------------------------------------------
 Center     Atomic      Atomic             Coordinates (Angstroms)
 Number     Number       Type             X           Y           Z
 ---------------------------------------------------------------------
      1          6           0       -2.835289    0.564014    0.553856
      2          6           0       -2.380817   -0.903081    0.644508
      3          7           0       -1.631184   -1.067715   -0.616067
      4          7           0       -0.836107    0.126611   -0.666846
      5          6           0       -1.715024    1.236355   -0.291681
      6          6           0        0.478220    0.072624   -0.281832
      7          7           0        1.030245   -1.158832   -0.186914
      8          6           0        2.328304   -1.196837    0.112008
      9          6           0        3.093947   -0.051440    0.318980
     10          6           0        2.412296    1.161903    0.203867
     11          7           0        1.118419    1.248430   -0.094756
     12          1           0       -2.940403    1.021627    1.541058
     13          1           0       -3.796866    0.637822    0.038901
     14          1           0       -1.743694   -1.054875    1.531223
     15          1           0       -3.211655   -1.612854    0.677740
     16          1           0       -0.960596   -1.835573   -0.565467
     17          1           0       -2.123897    1.706641   -1.190562
     18          1           0       -1.129930    1.976241    0.253700
     19          1           0        2.769709   -2.189442    0.190676
     20          1           0        4.149829   -0.099037    0.556782
     21          1           0        2.928065    2.108756    0.359790
 ---------------------------------------------------------------------

 SCF Done:  E(UB3LYP) =  -491.889076485     A.U. after   33 cycles
 SCF Done:  E(UB3LYP) =  -491.889076486     a.u. after    2 cycles

 The electronic state is 2-A.
 Alpha  occ. eigenvalues --  -14.23124 -14.21243 -14.16683 -14.16258 -10.13574
 Alpha  occ. eigenvalues --  -10.08545 -10.08341 -10.07143 -10.07035 -10.06079
 Alpha  occ. eigenvalues --  -10.03919  -0.90307  -0.83500  -0.75042  -0.70989
 Alpha  occ. eigenvalues --   -0.66666  -0.63205  -0.54901  -0.52382  -0.48591
 Alpha  occ. eigenvalues --   -0.47525  -0.43531  -0.38066  -0.37657  -0.36485
 Alpha  occ. eigenvalues --   -0.34199  -0.31352  -0.29939  -0.29289  -0.28761
 Alpha  occ. eigenvalues --   -0.27528  -0.26176  -0.24916  -0.23892  -0.19460
 Alpha  occ. eigenvalues --   -0.18348  -0.17974  -0.14607  -0.11510  -0.08008
 Alpha  occ. eigenvalues --    0.05433
 Alpha virt. eigenvalues --    0.07157   0.07936   0.08917   0.09444   0.09646
 Alpha virt. eigenvalues --    0.10411   0.11741   0.12200   0.12761   0.13454
 Alpha virt. eigenvalues --    0.13785   0.15484   0.16239   0.17519   0.18027

  Beta  occ. eigenvalues --  -14.23135 -14.21232 -14.16511 -14.16034 -10.13601
  Beta  occ. eigenvalues --  -10.08536 -10.08326 -10.06916 -10.06768 -10.06053
  Beta  occ. eigenvalues --  -10.03994  -0.90257  -0.83221  -0.74586  -0.70908
  Beta  occ. eigenvalues --   -0.66606  -0.62999  -0.54859  -0.51900  -0.48456
  Beta  occ. eigenvalues --   -0.47423  -0.43413  -0.37937  -0.37554  -0.36379
  Beta  occ. eigenvalues --   -0.34129  -0.31262  -0.29561  -0.29079  -0.28577
  Beta  occ. eigenvalues --   -0.27356  -0.26103  -0.24792  -0.23757  -0.19214
  Beta  occ. eigenvalues --   -0.17711  -0.16843  -0.14267  -0.11266  -0.07750
  Beta virt. eigenvalues --    0.07790   0.08335   0.09278   0.09861   0.10243
  Beta virt. eigenvalues --    0.10320   0.10669   0.12005   0.12379   0.13034
  Beta virt. eigenvalues --    0.13567   0.13944   0.15380   0.16141   0.17569

 Mulliken charges and spin densities:
               1          2
     1  C    0.609355  -0.894038
     2  C    0.254034  -0.580933
     3  N   -0.091657   0.045712
     4  N    0.071547  -0.004661
     5  C   -0.319657   0.024672
     6  C    0.084971  -0.530492
     7  N   -0.298409   0.121911
     8  C   -0.402694   0.588638
     9  C    0.570875  -0.921805
    10  C   -0.186118   0.367712
    11  N   -0.251343   0.148156
    12  H   -0.530003   0.664305
    13  H    0.007588   0.127825
    14  H    0.199271  -0.052250
    15  H   -0.534188   0.679031
    16  H    0.211874   0.074219
    17  H   -0.006465   0.159711
    18  H    0.238575  -0.043652
    19  H   -0.177034   0.313046
    20  H   -0.309040   0.433797
    21  H   -0.141482   0.279097
 Sum of Mulliken charges =  -1.00000   1.00000

 Dipole moment (field-independent basis, Debye):
    X=              0.1681    Y=              0.3471    Z=             -1.0020  Tot=              1.0736
 Quadrupole moment (field-independent basis, Debye-Ang):
   XX=           -123.9424   YY=            -90.1759   ZZ=            -88.1859
   XY=             -2.3381   XZ=              2.9943   YZ=              0.3987

 Summary of Natural Population Analysis:

                                       Natural Population
                Natural  -----------------------------------------------
    Atom  No    Charge         Core      Valence    Rydberg      Total
 -----------------------------------------------------------------------
      C    1   -0.20245      0.99964     2.19449    0.00832     3.20245
      C    2   -0.09646      0.99965     2.08607    0.01075     3.09646
      N    3   -0.24742      0.99975     2.73542    0.01225     3.74742
      N    4   -0.16294      0.99963     2.65076    0.01256     3.66294
      C    5   -0.08678      0.99963     2.07621    0.01094     3.08678
      C    6    0.29289      0.99957     1.68961    0.01793     2.70711
      N    7   -0.27350      0.99966     2.76242    0.01142     3.77350
      C    8    0.09401      0.99960     1.89104    0.01535     2.90599
      C    9   -0.19271      0.99956     2.18360    0.00955     3.19271
      C   10    0.08654      0.99960     1.89956    0.01431     2.91346
      N   11   -0.25174      0.99967     2.74109    0.01097     3.75174
      H   12    0.10137      0.00000     0.39694    0.00169     0.39863
      H   13    0.09728      0.00000     0.40085    0.00187     0.40272
      H   14    0.08415      0.00000     0.41431    0.00154     0.41585
      H   15    0.09545      0.00000     0.40282    0.00173     0.40455
      H   16    0.19400      0.00000     0.30268    0.00332     0.30600
      H   17    0.09165      0.00000     0.40717    0.00118     0.40835
      H   18    0.11304      0.00000     0.38524    0.00173     0.38696
      H   19    0.08169      0.00000     0.41728    0.00103     0.41831
      H   20    0.10100      0.00000     0.39791    0.00108     0.39900
      H   21    0.08093      0.00000     0.41794    0.00113     0.41907
 =======================================================================
   * Total *    0.00000     10.99596    28.85339    0.15065    40.00000

 Normal termination of Gaussian 16 at Tue Dec  8 21:47:18 2020.
