 Gaussian 16, Revision A.03,

 -----------------------------------------------------------
 # opt freq B3LYP/6-31G(d) empiricaldispersion=gd3bj scf=xqc
 -----------------------------------------------------------

 -------------------------------
 CID_102688471_JID_7978_neutraal
 -------------------------------
 Symbolic Z-matrix:
 Charge =  0 Multiplicity = 1

 SCF Done:  E(RB3LYP) =  -824.391927975     A.U. after   15 cycles
 SCF Done:  E(RB3LYP) =  -824.403323344     A.U. after   12 cycles
 SCF Done:  E(RB3LYP) =  -824.404066449     A.U. after   12 cycles
 SCF Done:  E(RB3LYP) =  -824.404083295     A.U. after   12 cycles
 SCF Done:  E(RB3LYP) =  -824.404353584     A.U. after   12 cycles
 SCF Done:  E(RB3LYP) =  -824.404553051     A.U. after   11 cycles
 SCF Done:  E(RB3LYP) =  -824.404788965     A.U. after   13 cycles
 SCF Done:  E(RB3LYP) =  -824.405044558     A.U. after   14 cycles
 SCF Done:  E(RB3LYP) =  -824.405447714     A.U. after   12 cycles
 SCF Done:  E(RB3LYP) =  -824.405373819     A.U. after   13 cycles
 SCF Done:  E(RB3LYP) =  -824.406160523     A.U. after   10 cycles
 SCF Done:  E(RB3LYP) =  -824.406160722     A.U. after    7 cycles
 SCF Done:  E(RB3LYP) =  -824.406161134     A.U. after    9 cycles
 SCF Done:  E(RB3LYP) =  -824.406161247     A.U. after    7 cycles
 SCF Done:  E(RB3LYP) =  -824.406161288     A.U. after    7 cycles
 Optimization completed.
    -- Stationary point found.
 Normal termination of Gaussian 16 at Sun Dec 13 20:22:37 2020.

 --------------------------------------------------------------------
 #N Geom=AllCheck Guess=TCheck SCRF=Check GenChk RB3LYP/6-31G(d) Freq
 --------------------------------------------------------------------

 Structure from the checkpoint file:  "JID_7978.chk"
 -------------------------------
 CID_102688471_JID_7978_neutraal
 -------------------------------
 Charge =  0 Multiplicity = 1

 SCF Done:  E(RB3LYP) =  -824.406161288     A.U. after    1 cycles

  Exact polarizability: 168.100   2.386 132.184  -7.898  -0.914 114.092
 Approx polarizability: 206.816  10.818 189.017 -21.514  -4.437 185.994

                      1                      2                      3
                      A                      A                      A
 Frequencies --     21.5946                34.4123                48.2183
 Red. masses --      5.5160                 4.0338                 4.1302
 Frc consts  --      0.0015                 0.0028                 0.0057
 IR Inten    --      0.2760                 0.4219                 0.2074

                      4                      5                      6
                      A                      A                      A
 Frequencies --     52.1581                62.6765                87.2014
 Red. masses --      6.3918                 2.8021                 1.4571
 Frc consts  --      0.0102                 0.0065                 0.0065
 IR Inten    --      0.0968                 0.4818                 0.2955

                      7                      8                      9
                      A                      A                      A
 Frequencies --    121.9037               129.1063               147.7702
 Red. masses --      3.3882                 2.9896                 2.2736
 Frc consts  --      0.0297                 0.0294                 0.0293
 IR Inten    --      2.4141                 2.6034                 0.7086

                     10                     11                     12
                      A                      A                      A
 Frequencies --    158.3299               179.7304               218.6543
 Red. masses --      3.0611                 3.2480                 4.2976
 Frc consts  --      0.0452                 0.0618                 0.1211
 IR Inten    --      1.2644                 0.3557                 2.0438

                     13                     14                     15
                      A                      A                      A
 Frequencies --    262.0106               272.3584               292.5751
 Red. masses --      3.1862                 3.0988                 3.3472
 Frc consts  --      0.1289                 0.1354                 0.1688
 IR Inten    --      0.0776                 2.7473                 1.3886

                     16                     17                     18
                      A                      A                      A
 Frequencies --    349.8952               356.7797               394.9119
 Red. masses --      5.0600                 3.9585                 3.4590
 Frc consts  --      0.3650                 0.2969                 0.3178
 IR Inten    --      0.9018                 1.7221                 9.1769

                     19                     20                     21
                      A                      A                      A
 Frequencies --    413.3281               427.9452               478.7715
 Red. masses --      4.7581                 3.6220                 2.0505
 Frc consts  --      0.4789                 0.3908                 0.2769
 IR Inten    --      2.4901                 8.5162                 2.3656

                     22                     23                     24
                      A                      A                      A
 Frequencies --    559.4384               581.2589               633.2962
 Red. masses --      2.1520                 1.7007                 2.7239
 Frc consts  --      0.3968                 0.3385                 0.6437
 IR Inten    --     58.4753                73.1100                 2.4761

                     25                     26                     27
                      A                      A                      A
 Frequencies --    651.7064               690.5252               717.1133
 Red. masses --      2.5918                 3.3723                 3.7966
 Frc consts  --      0.6486                 0.9474                 1.1503
 IR Inten    --      4.7025                 6.7813                 9.7525

                     28                     29                     30
                      A                      A                      A
 Frequencies --    738.9301               770.2220               772.4710
 Red. masses --      5.3637                 3.8264                 1.6716
 Frc consts  --      1.7255                 1.3374                 0.5877
 IR Inten    --     44.6420                46.0006                 1.5134

                     31                     32                     33
                      A                      A                      A
 Frequencies --    800.2291               812.0132               859.5218
 Red. masses --      1.6835                 2.1188                 4.1778
 Frc consts  --      0.6352                 0.8231                 1.8185
 IR Inten    --      0.9617                 5.1561                14.1177

                     34                     35                     36
                      A                      A                      A
 Frequencies --    889.5175               904.6553               912.8591
 Red. masses --      1.8726                 2.0503                 1.9123
 Frc consts  --      0.8730                 0.9887                 0.9389
 IR Inten    --      2.8544                12.5620                 1.3887

                     37                     38                     39
                      A                      A                      A
 Frequencies --    925.8169               944.6819               957.1971
 Red. masses --      3.3117                 2.3102                 2.6416
 Frc consts  --      1.6724                 1.2147                 1.4260
 IR Inten    --      5.2663                 1.8280                 7.3804

                     40                     41                     42
                      A                      A                      A
 Frequencies --    978.9901               980.9411               983.5702
 Red. masses --      1.5881                 1.9203                 2.6577
 Frc consts  --      0.8968                 1.0887                 1.5149
 IR Inten    --      6.8513                 6.9074                 1.4338

                     43                     44                     45
                      A                      A                      A
 Frequencies --   1012.2113              1052.2076              1065.7047
 Red. masses --      2.5654                 2.1849                 2.0687
 Frc consts  --      1.5486                 1.4252                 1.3843
 IR Inten    --      5.2631                14.8050                 2.0625

                     46                     47                     48
                      A                      A                      A
 Frequencies --   1073.9701              1111.2827              1122.8744
 Red. masses --      1.9620                 3.0473                 2.5055
 Frc consts  --      1.3333                 2.2173                 1.8612
 IR Inten    --     28.6873               231.2670                 3.1503

                     49                     50                     51
                      A                      A                      A
 Frequencies --   1138.9197              1157.0774              1167.4932
 Red. masses --      2.4159                 1.4786                 1.5737
 Frc consts  --      1.8464                 1.1663                 1.2638
 IR Inten    --     54.2539                 8.7950                67.5677

                     52                     53                     54
                      A                      A                      A
 Frequencies --   1181.7461              1214.7170              1225.4139
 Red. masses --      2.2014                 1.3547                 1.6566
 Frc consts  --      1.8113                 1.1777                 1.4657
 IR Inten    --     13.7288                 7.9617                57.7748

                     55                     56                     57
                      A                      A                      A
 Frequencies --   1237.6410              1243.8239              1270.4735
 Red. masses --      1.4490                 1.3970                 1.3393
 Frc consts  --      1.3077                 1.2734                 1.2737
 IR Inten    --     23.5854                25.4032                 1.7579

                     58                     59                     60
                      A                      A                      A
 Frequencies --   1273.9623              1279.9567              1291.4868
 Red. masses --      1.2786                 1.3883                 1.7792
 Frc consts  --      1.2226                 1.3400                 1.7485
 IR Inten    --     14.2004                12.5696                 7.6328

                     61                     62                     63
                      A                      A                      A
 Frequencies --   1297.2829              1301.6863              1320.8499
 Red. masses --      1.7046                 1.4507                 1.5889
 Frc consts  --      1.6902                 1.4483                 1.6333
 IR Inten    --      5.7329                 7.1096                15.3426

                     64                     65                     66
                      A                      A                      A
 Frequencies --   1341.8186              1349.1616              1355.2361
 Red. masses --      1.4731                 1.4390                 1.2529
 Frc consts  --      1.5627                 1.5432                 1.3558
 IR Inten    --      2.7575                 0.4692                 2.7644

                     67                     68                     69
                      A                      A                      A
 Frequencies --   1379.2597              1380.9038              1388.9701
 Red. masses --      1.3970                 1.4340                 1.6608
 Frc consts  --      1.5658                 1.6112                 1.8878
 IR Inten    --      0.0501                17.3643                 6.3192

                     70                     71                     72
                      A                      A                      A
 Frequencies --   1398.9658              1417.4877              1449.2413
 Red. masses --      1.4566                 1.4459                 1.5640
 Frc consts  --      1.6796                 1.7117                 1.9354
 IR Inten    --     38.9905                16.2646                83.5483

                     73                     74                     75
                      A                      A                      A
 Frequencies --   1475.2056              1508.1319              1512.0477
 Red. masses --      1.5146                 1.0909                 1.0880
 Frc consts  --      1.9421                 1.4619                 1.4656
 IR Inten    --     65.4935                 0.6687                 2.5061

                     76                     77                     78
                      A                      A                      A
 Frequencies --   1515.5725              1520.2254              1528.2008
 Red. masses --      1.0827                 1.0957                 1.0866
 Frc consts  --      1.4653                 1.4919                 1.4952
 IR Inten    --      0.9249                 9.7161                 3.1230

                     79                     80                     81
                      A                      A                      A
 Frequencies --   1532.8795              1540.9497              1552.0223
 Red. masses --      1.1034                 1.1336                 1.1149
 Frc consts  --      1.5275                 1.5859                 1.5822
 IR Inten    --      3.6398                 2.2316                25.0633

                     82                     83                     84
                      A                      A                      A
 Frequencies --   1769.9315              1861.9333              3042.8156
 Red. masses --     10.5431                10.0262                 1.0667
 Frc consts  --     19.4595                20.4794                 5.8191
 IR Inten    --    313.8090               277.2019                13.9607

                     85                     86                     87
                      A                      A                      A
 Frequencies --   3050.1178              3054.8766              3058.3113
 Red. masses --      1.0464                 1.0686                 1.0680
 Frc consts  --      5.7356                 5.8753                 5.8855
 IR Inten    --     24.8938                23.8273                47.7901

                     88                     89                     90
                      A                      A                      A
 Frequencies --   3066.3103              3075.8187              3077.0862
 Red. masses --      1.0660                 1.0609                 1.0851
 Frc consts  --      5.9051                 5.9137                 6.0533
 IR Inten    --     43.8197                53.9838                28.4318

                     91                     92                     93
                      A                      A                      A
 Frequencies --   3080.6738              3094.2065              3106.3695
 Red. masses --      1.0660                 1.0633                 1.1017
 Frc consts  --      5.9607                 5.9978                 6.2638
 IR Inten    --     23.9760                32.3776                26.2194

                     94                     95                     96
                      A                      A                      A
 Frequencies --   3111.2631              3116.8215              3118.5807
 Red. masses --      1.1035                 1.1021                 1.0973
 Frc consts  --      6.2935                 6.3082                 6.2875
 IR Inten    --     15.6672                40.4887                 3.0052

                     97                     98                     99
                      A                      A                      A
 Frequencies --   3121.4653              3132.6056              3137.1778
 Red. masses --      1.0871                 1.1079                 1.1016
 Frc consts  --      6.2406                 6.4058                 6.3877
 IR Inten    --     25.5795                67.9250                 4.1342

                    100                    101                    102
                      A                      A                      A
 Frequencies --   3150.4282              3183.6427              3690.4363
 Red. masses --      1.1044                 1.0984                 1.0640
 Frc consts  --      6.4581                 6.5596                 8.5380
 IR Inten    --     23.6904                 3.3285                51.1871

 - Thermochemistry -
 -------------------
 Temperature   298.150 Kelvin.  Pressure   1.00000 Atm.
 Atom     1 has atomic number  6 and mass  12.00000

 Molecular mass:   241.13141 amu.
 Principal axes and moments of inertia in atomic units:
                           1         2         3
     Eigenvalues --  1729.201197645.186748338.24571
           X            0.99995  -0.00672   0.00693
           Y            0.00670   0.99997   0.00246
           Z           -0.00694  -0.00241   0.99997
 This molecule is an asymmetric top.
 Rotational symmetry number  1.
 Warning -- assumption of classical behavior for rotation
           may cause significant error
 Rotational temperatures (Kelvin)      0.05009     0.01133     0.01039
 Rotational constants (GHZ):           1.04368     0.23606     0.21644
 Zero-point vibrational energy     812642.5 (Joules/Mol)
                                  194.22622 (Kcal/Mol)
 Warning -- explicit consideration of  23 degrees of freedom as
           vibrations may cause significant error
 Vibrational temperatures:     31.07    49.51    69.38    75.04    90.18
          (Kelvin)            125.46   175.39   185.76   212.61   227.80
                              258.59   314.59   376.97   391.86   420.95
                              503.42   513.33   568.19   594.69   615.72
                              688.85   804.91   836.30   911.17   937.66
                              993.51  1031.77  1063.16  1108.18  1111.41
                             1151.35  1168.31  1236.66  1279.82  1301.60
                             1313.40  1332.04  1359.19  1377.19  1408.55
                             1411.36  1415.14  1456.35  1513.89  1533.31
                             1545.20  1598.89  1615.57  1638.65  1664.78
                             1679.76  1700.27  1747.71  1763.10  1780.69
                             1789.59  1827.93  1832.95  1841.57  1858.16
                             1866.50  1872.84  1900.41  1930.58  1941.14
                             1949.88  1984.45  1986.81  1998.42  2012.80
                             2039.45  2085.14  2122.49  2169.87  2175.50
                             2180.57  2187.27  2198.74  2205.47  2217.08
                             2233.01  2546.54  2678.91  4377.93  4388.44
                             4395.29  4400.23  4411.74  4425.42  4427.24
                             4432.40  4451.87  4469.37  4476.41  4484.41
                             4486.94  4491.09  4507.12  4513.70  4532.76
                             4580.55  5309.71

 Zero-point correction=                           0.309519 (Hartree/Particle)
 Thermal correction to Energy=                    0.326594
 Thermal correction to Enthalpy=                  0.327538
 Thermal correction to Gibbs Free Energy=         0.262343
 Sum of electronic and zero-point Energies=           -824.096642
 Sum of electronic and thermal Energies=              -824.079567
 Sum of electronic and thermal Enthalpies=            -824.078623
 Sum of electronic and thermal Free Energies=         -824.143818

                     E (Thermal)             CV                S
                      KCal/Mol        Cal/Mol-Kelvin    Cal/Mol-Kelvin
 Total                  204.941             63.066            137.214
 Electronic               0.000              0.000              0.000
 Translational            0.889              2.981             42.342
 Rotational               0.889              2.981             33.066
 Vibrational            203.163             57.104             61.807
 Vibration     1          0.593              1.985              6.482
 Vibration     2          0.594              1.983              5.557
 Vibration     3          0.595              1.978              4.889
 Vibration     4          0.596              1.977              4.734
 Vibration     5          0.597              1.972              4.371
 Vibration     6          0.601              1.958              3.722
 Vibration     7          0.609              1.931              3.070
 Vibration     8          0.612              1.924              2.959
 Vibration     9          0.617              1.905              2.701
 Vibration    10          0.621              1.893              2.570
 Vibration    11          0.629              1.867              2.331
 Vibration    12          0.646              1.813              1.970
 Vibration    13          0.669              1.742              1.648
 Vibration    14          0.675              1.724              1.581
 Vibration    15          0.688              1.688              1.459
 Vibration    16          0.727              1.575              1.167
 Vibration    17          0.732              1.561              1.136
 Vibration    18          0.762              1.481              0.982
 Vibration    19          0.777              1.441              0.915
 Vibration    20          0.789              1.409              0.865
 Vibration    21          0.835              1.297              0.713
 Vibration    22          0.915              1.119              0.525
 Vibration    23          0.938              1.072              0.483

 Optimization completed.
    -- Stationary point found.
 Normal termination of Gaussian 16 at Sun Dec 13 20:36:47 2020.

 ----------------------------------------------------------------------
 # B3LYP/6-311++G(d,p) empiricaldispersion=gd3bj scf=xqc pop=npa geom=c
 heck
 ----------------------------------------------------------------------

 ---------------------------------------
 CID_102688471_JID_7978_Energie_neutraal
 ---------------------------------------
 Structure from the checkpoint file:  "JID_7978.chk"
 Charge =  0 Multiplicity = 1

 SCF Done:  E(RB3LYP) =  -824.648848945     A.U. after   15 cycles
 Normal termination of Gaussian 16 at Sun Dec 13 20:43:41 2020.

 ----------------------------------------------------------------------
 # B3LYP/6-311++G(d,p) empiricaldispersion=gd3bj scf=xqc pop=npa geom=c
 heck
 ----------------------------------------------------------------------

 -------------------------------------
 CID_102688471_JID_7978_Energie_kation
 -------------------------------------
 Structure from the checkpoint file:  "JID_7978.chk"
 Charge =  1 Multiplicity = 2

 SCF Done:  E(UB3LYP) =  -824.337544913     A.U. after   27 cycles
 Normal termination of Gaussian 16 at Sun Dec 13 21:01:43 2020.
 Gaussian 16:  ES64L-G16RevA.03 25-Dec-2016

 ----------------------------------------------------------------------
 # B3LYP/6-311++G(d,p) empiricaldispersion=gd3bj scf=xqc pop=npa geom=c
 heck
 ----------------------------------------------------------------------

 ------------------------------------
 CID_102688471_JID_7978_Energie_anion
 ------------------------------------
 Structure from the checkpoint file:  "JID_7978.chk"
 Charge = -1 Multiplicity = 2

                         Standard orientation:
 ---------------------------------------------------------------------
 Center     Atomic      Atomic             Coordinates (Angstroms)
 Number     Number       Type             X           Y           Z
 ---------------------------------------------------------------------
      1          6           0       -1.426148    2.356650    0.656163
      2          7           0       -1.001087    0.965718    0.548638
      3          6           0       -1.979659   -0.063753    0.890438
      4          6           0       -2.975896   -0.378860   -0.220394
      5          6           0       -4.086573   -1.421157    0.082163
      6          6           0       -5.073600   -0.546577   -0.735279
      7          6           0       -4.094187    0.643890   -0.567022
      8          6           0        0.199922    0.711908   -0.065428
      9          8           0        0.936140    1.606329   -0.462050
     10          6           0        0.626332   -0.765077   -0.183722
     11          6           0        1.216603   -1.302219    1.152529
     12          6           0        2.583665   -1.873810    0.733980
     13          6           0        2.908646   -1.088954   -0.540528
     14          8           0        1.642819   -0.892232   -1.171114
     15          6           0        3.601614    0.262687   -0.331341
     16          8           0        4.261158    0.819213   -1.175684
     17          8           0        3.402671    0.774256    0.908800
     18          1           0       -2.074324    2.652323   -0.177871
     19          1           0       -0.539258    2.989189    0.644680
     20          1           0       -1.974507    2.496670    1.593323
     21          1           0       -1.459441   -0.976903    1.191502
     22          1           0       -2.524037    0.280717    1.779181
     23          1           0       -2.429529   -0.657977   -1.129722
     24          1           0       -3.919049   -2.453134   -0.241145
     25          1           0       -4.343107   -1.426937    1.148588
     26          1           0       -6.089031   -0.428413   -0.346128
     27          1           0       -5.135014   -0.875344   -1.777562
     28          1           0       -4.353257    1.257015    0.304071
     29          1           0       -3.933381    1.304430   -1.424013
     30          1           0       -0.209470   -1.378458   -0.533976
     31          1           0        1.343838   -0.489822    1.870512
     32          1           0        0.572354   -2.060754    1.605273
     33          1           0        3.341772   -1.765875    1.512731
     34          1           0        2.496239   -2.934324    0.477676
     35          1           0        3.527941   -1.641918   -1.250336
     36          1           0        3.762265    1.680592    0.883785
 ---------------------------------------------------------------------

 SCF Done:  E(UB3LYP) =  -824.639915633     A.U. after   33 cycles
 SCF Done:  E(UB3LYP) =  -824.639915633     a.u. after    1 cycles

 The electronic state is 2-A.
 Alpha  occ. eigenvalues --  -19.08360 -19.04249 -19.02830 -18.99142 -14.25006
 Alpha  occ. eigenvalues --  -10.21622 -10.17303 -10.14795 -10.13970 -10.11425
 Alpha  occ. eigenvalues --  -10.10405 -10.08813 -10.08659 -10.08530 -10.07885
 Alpha  occ. eigenvalues --  -10.07852 -10.07530  -1.02401  -0.96715  -0.93911
 Alpha  occ. eigenvalues --   -0.93417  -0.84453  -0.75882  -0.70377  -0.68517
 Alpha  occ. eigenvalues --   -0.64699  -0.61552  -0.57132  -0.57046  -0.54417
 Alpha  occ. eigenvalues --   -0.51931  -0.50843  -0.46463  -0.44729  -0.43463
 Alpha  occ. eigenvalues --   -0.42188  -0.41251  -0.40280  -0.39742  -0.38942
 Alpha  occ. eigenvalues --   -0.37766  -0.36468  -0.35156  -0.34285  -0.33164
 Alpha  occ. eigenvalues --   -0.32725  -0.32327  -0.32001  -0.30011  -0.29784
 Alpha  occ. eigenvalues --   -0.29723  -0.28331  -0.27698  -0.26372  -0.25766
 Alpha  occ. eigenvalues --   -0.25440  -0.24047  -0.23795  -0.23387  -0.22433
 Alpha  occ. eigenvalues --   -0.21765  -0.21093  -0.17723  -0.15905  -0.14911
 Alpha  occ. eigenvalues --    0.03948
 Alpha virt. eigenvalues --    0.05903   0.06557   0.07054   0.07497   0.07752
 Alpha virt. eigenvalues --    0.07922   0.08840   0.09390   0.09882   0.09931
 Alpha virt. eigenvalues --    0.10428   0.10856   0.11281   0.11446   0.12279

  Beta  occ. eigenvalues --  -19.08349 -19.04245 -19.02827 -18.99130 -14.25005
  Beta  occ. eigenvalues --  -10.21619 -10.17298 -10.14790 -10.13961 -10.11401
  Beta  occ. eigenvalues --  -10.10385 -10.08791 -10.08654 -10.08501 -10.07870
  Beta  occ. eigenvalues --  -10.07836 -10.07500  -1.02387  -0.96700  -0.93894
  Beta  occ. eigenvalues --   -0.93406  -0.84439  -0.75860  -0.70339  -0.68488
  Beta  occ. eigenvalues --   -0.64665  -0.61523  -0.57094  -0.56992  -0.54374
  Beta  occ. eigenvalues --   -0.51874  -0.50813  -0.46402  -0.44693  -0.43428
  Beta  occ. eigenvalues --   -0.42145  -0.41228  -0.40253  -0.39706  -0.38909
  Beta  occ. eigenvalues --   -0.37740  -0.36443  -0.35127  -0.34258  -0.33139
  Beta  occ. eigenvalues --   -0.32704  -0.32295  -0.31982  -0.29981  -0.29757
  Beta  occ. eigenvalues --   -0.29694  -0.28287  -0.27648  -0.26337  -0.25734
  Beta  occ. eigenvalues --   -0.25409  -0.24032  -0.23770  -0.23355  -0.22402
  Beta  occ. eigenvalues --   -0.21730  -0.21081  -0.17709  -0.15890  -0.14884
  Beta virt. eigenvalues --    0.06126   0.06568   0.07116   0.07584   0.07685
  Beta virt. eigenvalues --    0.08093   0.08339   0.09164   0.09940   0.10085
  Beta virt. eigenvalues --    0.10211   0.10770   0.11108   0.11510   0.11823

 Mulliken charges and spin densities:
               1          2
     1  C    0.320230  -0.539271
     2  N    0.227182   0.059061
     3  C    0.445825  -1.757016
     4  C   -1.684428   2.673184
     5  C    1.183327  -1.721829
     6  C   -0.699562   0.345186
     7  C    1.061863  -1.503969
     8  C   -0.532246   0.046941
     9  O   -0.315697   0.003895
    10  C    0.336112  -0.059649
    11  C    0.161185  -0.472720
    12  C    0.609899  -1.439733
    13  C   -0.304696   0.694753
    14  O   -0.029231  -0.033135
    15  C    0.220723  -0.451676
    16  O   -0.282174   0.004707
    17  O   -0.144698   0.011415
    18  H    0.113756   0.060989
    19  H    0.020393   0.171301
    20  H   -0.169079   0.317376
    21  H    0.065112   0.164131
    22  H   -0.444948   0.618895
    23  H   -0.068687   0.269976
    24  H   -0.245181   0.404591
    25  H   -0.299297   0.437340
    26  H   -0.171131   0.334130
    27  H    0.108607   0.014258
    28  H   -0.112605   0.265424
    29  H    0.056275   0.083859
    30  H   -0.031676   0.310831
    31  H    0.214298   0.030301
    32  H   -0.504346   0.646662
    33  H   -0.042436   0.232499
    34  H   -0.267485   0.442157
    35  H    0.006487   0.255079
    36  H    0.198328   0.080056
 Sum of Mulliken charges =  -1.00000   1.00000

 Dipole moment (field-independent basis, Debye):
    X=              2.6513    Y=              2.7191    Z=             -0.9354  Tot=              3.9113
 Quadrupole moment (field-independent basis, Debye-Ang):
   XX=           -183.3050   YY=           -150.6531   ZZ=           -141.3488
   XY=             -4.9094   XZ=             17.9044   YZ=              7.1782

 Summary of Natural Population Analysis:

                                       Natural Population
                Natural  -----------------------------------------------
    Atom  No    Charge         Core      Valence    Rydberg      Total
 -----------------------------------------------------------------------
      C    1   -0.17927      0.99963     2.17152    0.00811     3.17927
      N    2   -0.25434      0.99965     2.74447    0.01023     3.75434
      C    3   -0.08502      0.99956     2.07319    0.01227     3.08502
      C    4   -0.11551      0.99959     2.10504    0.01087     3.11551
      C    5   -0.18538      0.99963     2.17717    0.00858     3.18538
      C    6   -0.18738      0.99965     2.18061    0.00711     3.18738
      C    7   -0.18807      0.99963     2.18043    0.00801     3.18807
      C    8    0.34107      0.99962     1.63594    0.02337     2.65893
      O    9   -0.32178      0.99988     3.31631    0.00560     4.32178
      C   10    0.02401      0.99954     1.96078    0.01567     2.97599
      C   11   -0.20212      0.99962     2.19387    0.00864     3.20212
      C   12   -0.20279      0.99963     2.19424    0.00892     3.20279
      C   13    0.02318      0.99951     1.96155    0.01575     2.97682
      O   14   -0.28350      0.99989     3.27545    0.00817     4.28350
      C   15    0.40214      0.99971     1.57230    0.02585     2.59786
      O   16   -0.29995      0.99987     3.29393    0.00615     4.29995
      O   17   -0.34597      0.99987     3.33932    0.00677     4.34597
      H   18    0.09291      0.00000     0.40605    0.00104     0.40709
      H   19    0.11214      0.00000     0.38685    0.00100     0.38786
      H   20    0.09565      0.00000     0.40336    0.00100     0.40435
      H   21    0.10549      0.00000     0.39222    0.00229     0.39451
      H   22    0.09937      0.00000     0.39855    0.00208     0.40063
      H   23    0.09707      0.00000     0.40122    0.00171     0.40293
      H   24    0.10003      0.00000     0.39857    0.00140     0.39997
      H   25    0.09842      0.00000     0.39949    0.00209     0.40158
      H   26    0.09552      0.00000     0.40329    0.00119     0.40448
      H   27    0.09363      0.00000     0.40506    0.00131     0.40637
      H   28    0.09752      0.00000     0.40104    0.00144     0.40248
      H   29    0.09639      0.00000     0.40270    0.00090     0.40361
      H   30    0.10072      0.00000     0.39687    0.00241     0.39928
      H   31    0.10671      0.00000     0.39133    0.00196     0.39329
      H   32    0.11082      0.00000     0.38676    0.00243     0.38918
      H   33    0.10810      0.00000     0.39055    0.00135     0.39190
      H   34    0.10600      0.00000     0.39246    0.00153     0.39400
      H   35    0.10312      0.00000     0.39565    0.00122     0.39688
      H   36    0.24105      0.00000     0.25557    0.00338     0.25895
 =======================================================================
   * Total *   -0.00000     16.99447    47.78374    0.22179    65.00000

 Normal termination of Gaussian 16 at Sun Dec 13 21:22:08 2020.
