 Gaussian 16, Revision A.03,

 -----------------------------------------------------------
 # opt freq B3LYP/6-31G(d) empiricaldispersion=gd3bj scf=xqc
 -----------------------------------------------------------

 ------------------------------
 CID_79037812_JID_7426_neutraal
 ------------------------------
 Symbolic Z-matrix:
 Charge =  0 Multiplicity = 1

 SCF Done:  E(RB3LYP) =  -1397.33218265     A.U. after   14 cycles
 SCF Done:  E(RB3LYP) =  -1397.07385227     A.U. after   16 cycles
 SCF Done:  E(RB3LYP) =  -1397.33551291     A.U. after   13 cycles
 SCF Done:  E(RB3LYP) =  -1397.33867061     A.U. after   12 cycles
 SCF Done:  E(RB3LYP) =  -1397.33640066     A.U. after   14 cycles
 SCF Done:  E(RB3LYP) =  -1397.33850193     A.U. after   12 cycles
 SCF Done:  E(RB3LYP) =  -1397.33912713     A.U. after    9 cycles
 SCF Done:  E(RB3LYP) =  -1397.33975562     A.U. after   11 cycles
 SCF Done:  E(RB3LYP) =  -1397.34000855     A.U. after   12 cycles
 SCF Done:  E(RB3LYP) =  -1397.34032895     A.U. after   11 cycles
 SCF Done:  E(RB3LYP) =  -1397.34047219     A.U. after    8 cycles
 SCF Done:  E(RB3LYP) =  -1397.34047319     A.U. after    8 cycles
 SCF Done:  E(RB3LYP) =  -1397.34047372     A.U. after    8 cycles
 SCF Done:  E(RB3LYP) =  -1397.34047390     A.U. after    7 cycles
 SCF Done:  E(RB3LYP) =  -1397.34047395     A.U. after    7 cycles
 Optimization completed.
    -- Stationary point found.
 Normal termination of Gaussian 16 at Sun Dec 13 12:43:51 2020.

 --------------------------------------------------------------------
 #N Geom=AllCheck Guess=TCheck SCRF=Check GenChk RB3LYP/6-31G(d) Freq
 --------------------------------------------------------------------

 Structure from the checkpoint file:  "JID_7426.chk"
 ------------------------------
 CID_79037812_JID_7426_neutraal
 ------------------------------
 Charge =  0 Multiplicity = 1

 SCF Done:  E(RB3LYP) =  -1397.34047395     A.U. after    1 cycles

  Exact polarizability: 161.859  -9.567 207.826 -15.153  -0.102 160.794
 Approx polarizability: 222.710 -13.964 329.190 -32.938  -1.439 282.819

                      1                      2                      3
                      A                      A                      A
 Frequencies --     31.9121                41.8969                51.7375
 Red. masses --      4.2156                 4.9015                 4.4762
 Frc consts  --      0.0025                 0.0051                 0.0071
 IR Inten    --      2.7754                 0.6128                 1.4544

                      4                      5                      6
                      A                      A                      A
 Frequencies --     64.9658                80.4305                95.9753
 Red. masses --      5.1442                 3.8115                 3.9412
 Frc consts  --      0.0128                 0.0145                 0.0214
 IR Inten    --      0.3869                 0.4651                 1.3305

                      7                      8                      9
                      A                      A                      A
 Frequencies --    130.1976               184.3133               189.8982
 Red. masses --      5.2298                 2.8744                 2.8426
 Frc consts  --      0.0522                 0.0575                 0.0604
 IR Inten    --      0.3146                 0.6095                 2.8257

                     10                     11                     12
                      A                      A                      A
 Frequencies --    226.1326               238.4477               241.7225
 Red. masses --      3.1407                 1.0555                 1.1505
 Frc consts  --      0.0946                 0.0354                 0.0396
 IR Inten    --      0.2245                 0.1904                 0.6076

                     13                     14                     15
                      A                      A                      A
 Frequencies --    246.9102               281.0376               301.9231
 Red. masses --      3.1510                 2.5565                 4.6143
 Frc consts  --      0.1132                 0.1190                 0.2478
 IR Inten    --      5.2462                 3.0728                 4.7187

                     16                     17                     18
                      A                      A                      A
 Frequencies --    314.6831               339.6726               364.2371
 Red. masses --      3.3575                 4.1632                 2.8290
 Frc consts  --      0.1959                 0.2830                 0.2211
 IR Inten    --      0.4637                 0.7954                 0.1933

                     19                     20                     21
                      A                      A                      A
 Frequencies --    403.5664               410.3792               418.7930
 Red. masses --      2.5663                 4.6294                 3.4409
 Frc consts  --      0.2463                 0.4594                 0.3556
 IR Inten    --      1.1427                 0.4902                 0.9877

                     22                     23                     24
                      A                      A                      A
 Frequencies --    433.6455               450.7588               492.7117
 Red. masses --      2.2901                 2.4719                 3.0008
 Frc consts  --      0.2537                 0.2959                 0.4292
 IR Inten    --      0.3569                10.4820                 5.6712

                     25                     26                     27
                      A                      A                      A
 Frequencies --    493.7114               597.2185               631.8118
 Red. masses --      3.0518                 3.3304                 5.6680
 Frc consts  --      0.4383                 0.6999                 1.3331
 IR Inten    --      2.7349                 0.4205                 0.1931

                     28                     29                     30
                      A                      A                      A
 Frequencies --    634.3224               656.1393               678.5841
 Red. masses --      4.3473                 4.9892                 3.3328
 Frc consts  --      1.0306                 1.2655                 0.9042
 IR Inten    --      1.5949                 2.9889                 1.9015

                     31                     32                     33
                      A                      A                      A
 Frequencies --    706.2709               714.5678               756.6938
 Red. masses --      2.4841                 5.9965                 1.5140
 Frc consts  --      0.7301                 1.8040                 0.5107
 IR Inten    --     16.4725                11.8144                45.3869

                     34                     35                     36
                      A                      A                      A
 Frequencies --    817.4601               852.9969               878.4780
 Red. masses --      2.7262                 1.2556                 2.3161
 Frc consts  --      1.0733                 0.5383                 1.0531
 IR Inten    --      1.5917                 1.0384                 2.9929

                     37                     38                     39
                      A                      A                      A
 Frequencies --    905.6786               914.8932               933.3074
 Red. masses --      2.2624                 1.3631                 2.1822
 Frc consts  --      1.0934                 0.6722                 1.1199
 IR Inten    --      2.6619                 1.9055                 2.3624

                     40                     41                     42
                      A                      A                      A
 Frequencies --    940.7351               968.9496               970.4303
 Red. masses --      1.7964                 1.4526                 1.3596
 Frc consts  --      0.9367                 0.8035                 0.7544
 IR Inten    --      1.0924                 1.7607                 0.0250

                     43                     44                     45
                      A                      A                      A
 Frequencies --    979.0544               992.2556              1019.8870
 Red. masses --      1.7300                 1.2485                 2.8585
 Frc consts  --      0.9770                 0.7243                 1.7518
 IR Inten    --      2.8447                 0.1284                10.3178

                     46                     47                     48
                      A                      A                      A
 Frequencies --   1020.3662              1039.5643              1055.8945
 Red. masses --      3.2516                 1.7414                 2.8366
 Frc consts  --      1.9946                 1.1088                 1.8633
 IR Inten    --      1.8783                 2.2879                 4.6945

                     49                     50                     51
                      A                      A                      A
 Frequencies --   1069.0429              1103.8767              1112.3565
 Red. masses --      1.6704                 1.5441                 1.7048
 Frc consts  --      1.1248                 1.1086                 1.2428
 IR Inten    --     16.2382                 4.1452                 8.9206

                     52                     53                     54
                      A                      A                      A
 Frequencies --   1115.7926              1118.4377              1126.9641
 Red. masses --      2.2956                 2.1637                 2.2290
 Frc consts  --      1.6839                 1.5947                 1.6679
 IR Inten    --      2.6287                 2.3226                28.0734

                     55                     56                     57
                      A                      A                      A
 Frequencies --   1164.6375              1182.8060              1194.6440
 Red. masses --      2.0983                 1.6640                 1.1001
 Frc consts  --      1.6769                 1.3716                 0.9251
 IR Inten    --      8.0587                20.4494                 0.2775

                     58                     59                     60
                      A                      A                      A
 Frequencies --   1204.0771              1216.9475              1256.5215
 Red. masses --      1.5139                 1.1571                 1.1997
 Frc consts  --      1.2931                 1.0096                 1.1160
 IR Inten    --     20.6418                 2.6401                 9.6779

                     61                     62                     63
                      A                      A                      A
 Frequencies --   1265.5183              1287.0494              1309.6163
 Red. masses --      1.2462                 1.6141                 1.4465
 Frc consts  --      1.1759                 1.5754                 1.4617
 IR Inten    --      5.9294                10.7382                21.6612

                     64                     65                     66
                      A                      A                      A
 Frequencies --   1328.5109              1334.4443              1340.6062
 Red. masses --      1.4900                 1.5596                 1.5441
 Frc consts  --      1.5494                 1.6363                 1.6350
 IR Inten    --      2.6186                16.1838                 6.3932

                     67                     68                     69
                      A                      A                      A
 Frequencies --   1354.2958              1365.2676              1376.0694
 Red. masses --      1.4059                 1.7993                 1.3724
 Frc consts  --      1.5192                 1.9760                 1.5311
 IR Inten    --      0.2379                 0.7066                 7.7635

                     70                     71                     72
                      A                      A                      A
 Frequencies --   1395.8941              1414.5660              1425.2278
 Red. masses --      1.3538                 1.2967                 1.5433
 Frc consts  --      1.5542                 1.5287                 1.8470
 IR Inten    --     36.4017                22.9019                33.7624

                     73                     74                     75
                      A                      A                      A
 Frequencies --   1435.1785              1439.1130              1454.0106
 Red. masses --      1.2775                 1.2801                 1.4090
 Frc consts  --      1.5504                 1.5620                 1.7551
 IR Inten    --      9.0660                 2.0664                 8.6575

                     76                     77                     78
                      A                      A                      A
 Frequencies --   1481.2043              1488.9114              1499.6881
 Red. masses --      1.1532                 1.9390                 1.1151
 Frc consts  --      1.4907                 2.5325                 1.4776
 IR Inten    --      5.3395                10.0277                 3.4974

                     79                     80                     81
                      A                      A                      A
 Frequencies --   1517.5051              1521.8019              1523.8391
 Red. masses --      1.0455                 1.0489                 1.0494
 Frc consts  --      1.4185                 1.4312                 1.4357
 IR Inten    --      4.2978                 4.2080                 5.4834

                     82                     83                     84
                      A                      A                      A
 Frequencies --   1527.1369              1530.2489              1540.9930
 Red. masses --      1.0546                 1.9966                 1.0772
 Frc consts  --      1.4491                 2.7547                 1.5072
 IR Inten    --      3.9225                23.8901                 2.6258

                     85                     86                     87
                      A                      A                      A
 Frequencies --   1551.8908              1633.9155              1647.2264
 Red. masses --      1.0930                 5.3915                 5.3886
 Frc consts  --      1.5510                 8.4804                 8.6146
 IR Inten    --      8.1723                 1.9661                18.3721

                     88                     89                     90
                      A                      A                      A
 Frequencies --   2975.9076              2978.6732              2988.1689
 Red. masses --      1.0687                 1.0685                 1.0735
 Frc consts  --      5.5760                 5.5858                 5.6477
 IR Inten    --    101.1630                45.9275                26.2569

                     91                     92                     93
                      A                      A                      A
 Frequencies --   3038.4458              3039.7050              3049.3678
 Red. masses --      1.0472                 1.0901                 1.0886
 Frc consts  --      5.6961                 5.9342                 5.9641
 IR Inten    --     31.6994                19.3385                41.9758

                     94                     95                     96
                      A                      A                      A
 Frequencies --   3055.2188              3067.6155              3068.9856
 Red. masses --      1.0353                 1.0823                 1.0633
 Frc consts  --      5.6936                 6.0008                 5.9004
 IR Inten    --     20.9408                24.4302                34.3432

                     97                     98                     99
                      A                      A                      A
 Frequencies --   3088.4440              3113.7082              3120.0261
 Red. masses --      1.0929                 1.0926                 1.0963
 Frc consts  --      6.1418                 6.2411                 6.2877
 IR Inten    --     12.9534                23.5270                 8.5505

                    100                    101                    102
                      A                      A                      A
 Frequencies --   3123.6982              3126.6496              3139.7063
 Red. masses --      1.1019                 1.1006                 1.0924
 Frc consts  --      6.3349                 6.3394                 6.3444
 IR Inten    --     17.3349                17.3940                18.5754

                    103                    104                    105
                      A                      A                      A
 Frequencies --   3146.5248              3186.8513              3193.1037
 Red. masses --      1.1026                 1.0850                 1.0878
 Frc consts  --      6.4320                 6.4924                 6.5344
 IR Inten    --     19.8414                 2.2949                 3.2655

                    106                    107                    108
                      A                      A                      A
 Frequencies --   3204.0334              3209.8280              3217.1859
 Red. masses --      1.0915                 1.0934                 1.0978
 Frc consts  --      6.6018                 6.6370                 6.6945
 IR Inten    --      8.4395                22.3666                11.9606

 - Thermochemistry -
 -------------------
 Temperature   298.150 Kelvin.  Pressure   1.00000 Atm.
 Atom     1 has atomic number  6 and mass  12.00000

 Molecular mass:   267.11154 amu.
 Principal axes and moments of inertia in atomic units:
                           1         2         3
     Eigenvalues --  3507.135715297.624856934.55580
           X            0.99861  -0.05266  -0.00189
           Y            0.05269   0.99820   0.02881
           Z            0.00037  -0.02887   0.99958
 This molecule is an asymmetric top.
 Rotational symmetry number  1.
 Warning -- assumption of classical behavior for rotation
           may cause significant error
 Rotational temperatures (Kelvin)      0.02470     0.01635     0.01249
 Rotational constants (GHZ):           0.51459     0.34067     0.26025
 Zero-point vibrational energy     862405.3 (Joules/Mol)
                                  206.11981 (Kcal/Mol)
 Warning -- explicit consideration of  26 degrees of freedom as
           vibrations may cause significant error
 Vibrational temperatures:     45.91    60.28    74.44    93.47   115.72
          (Kelvin)            138.09   187.33   265.19   273.22   325.35
                              343.07   347.78   355.25   404.35   434.40
                              452.76   488.71   524.06   580.64   590.44
                              602.55   623.92   648.54   708.90   710.34
                              859.26   909.04   912.65   944.04   976.33
                             1016.17  1028.10  1088.71  1176.14  1227.27
                             1263.93  1303.07  1316.33  1342.82  1353.51
                             1394.10  1396.23  1408.64  1427.63  1467.39
                             1468.08  1495.70  1519.20  1538.11  1588.23
                             1600.43  1605.38  1609.18  1621.45  1675.65
                             1701.79  1718.83  1732.40  1750.92  1807.85
                             1820.80  1851.78  1884.25  1911.43  1919.97
                             1928.83  1948.53  1964.32  1979.86  2008.38
                             2035.24  2050.58  2064.90  2070.56  2092.00
                             2131.12  2142.21  2157.72  2183.35  2189.53
                             2192.46  2197.21  2201.69  2217.15  2232.82
                             2350.84  2369.99  4281.67  4285.65  4299.31
                             4371.65  4373.46  4387.36  4395.78  4413.61
                             4415.59  4443.58  4479.93  4489.02  4494.31
                             4498.55  4517.34  4527.15  4585.17  4594.16
                             4609.89  4618.23  4628.81

 Zero-point correction=                           0.328473 (Hartree/Particle)
 Thermal correction to Energy=                    0.346034
 Thermal correction to Enthalpy=                  0.346978
 Thermal correction to Gibbs Free Energy=         0.282425
 Sum of electronic and zero-point Energies=          -1397.012001
 Sum of electronic and thermal Energies=             -1396.994440
 Sum of electronic and thermal Enthalpies=           -1396.993496
 Sum of electronic and thermal Free Energies=        -1397.058049

                     E (Thermal)             CV                S
                      KCal/Mol        Cal/Mol-Kelvin    Cal/Mol-Kelvin
 Total                  217.140             67.468            135.864
 Electronic               0.000              0.000              0.000
 Translational            0.889              2.981             42.647
 Rotational               0.889              2.981             33.221
 Vibrational            215.362             61.507             59.996
 Vibration     1          0.594              1.983              5.707
 Vibration     2          0.595              1.980              5.167
 Vibration     3          0.596              1.977              4.750
 Vibration     4          0.597              1.971              4.300
 Vibration     5          0.600              1.962              3.880
 Vibration     6          0.603              1.952              3.534
 Vibration     7          0.612              1.923              2.943
 Vibration     8          0.631              1.861              2.284
 Vibration     9          0.633              1.854              2.229
 Vibration    10          0.650              1.801              1.909
 Vibration    11          0.656              1.782              1.814
 Vibration    12          0.658              1.776              1.790
 Vibration    13          0.661              1.768              1.753
 Vibration    14          0.681              1.709              1.527
 Vibration    15          0.694              1.670              1.406
 Vibration    16          0.702              1.646              1.338
 Vibration    17          0.720              1.596              1.214
 Vibration    18          0.738              1.546              1.104
 Vibration    19          0.769              1.462              0.950
 Vibration    20          0.775              1.448              0.925
 Vibration    21          0.782              1.429              0.896
 Vibration    22          0.794              1.397              0.847
 Vibration    23          0.810              1.359              0.793
 Vibration    24          0.848              1.266              0.677
 Vibration    25          0.849              1.264              0.674
 Vibration    26          0.955              1.038              0.454

 Optimization completed.
    -- Stationary point found.
 Normal termination of Gaussian 16 at Sun Dec 13 13:03:55 2020.

 ----------------------------------------------------------------------
 # B3LYP/6-311++G(d,p) empiricaldispersion=gd3bj scf=xqc pop=npa geom=c
 heck
 ----------------------------------------------------------------------

 --------------------------------------
 CID_79037812_JID_7426_Energie_neutraal
 --------------------------------------
 Structure from the checkpoint file:  "JID_7426.chk"
 Charge =  0 Multiplicity = 1

 SCF Done:  E(RB3LYP) =  -1397.55224982     A.U. after   15 cycles
 Normal termination of Gaussian 16 at Sun Dec 13 13:14:08 2020.

 ----------------------------------------------------------------------
 # B3LYP/6-311++G(d,p) empiricaldispersion=gd3bj scf=xqc pop=npa geom=c
 heck
 ----------------------------------------------------------------------

 ------------------------------------
 CID_79037812_JID_7426_Energie_kation
 ------------------------------------
 Structure from the checkpoint file:  "JID_7426.chk"
 Charge =  1 Multiplicity = 2

 SCF Done:  E(UB3LYP) =  -1397.29083998     A.U. after   28 cycles
 Normal termination of Gaussian 16 at Sun Dec 13 13:40:10 2020.
 Gaussian 16:  ES64L-G16RevA.03 25-Dec-2016

 ----------------------------------------------------------------------
 # B3LYP/6-311++G(d,p) empiricaldispersion=gd3bj scf=xqc pop=npa geom=c
 heck
 ----------------------------------------------------------------------

 -----------------------------------
 CID_79037812_JID_7426_Energie_anion
 -----------------------------------
 Structure from the checkpoint file:  "JID_7426.chk"
 Charge = -1 Multiplicity = 2

                         Standard orientation:
 ---------------------------------------------------------------------
 Center     Atomic      Atomic             Coordinates (Angstroms)
 Number     Number       Type             X           Y           Z
 ---------------------------------------------------------------------
      1          6           0       -0.784202   -2.261151   -1.841557
      2          6           0       -0.951366   -1.203331   -0.754444
      3          6           0       -0.841567    0.206306   -1.331955
      4          7           0       -1.047622    1.248681   -0.329924
      5          6           0       -1.426545    0.871107    1.013439
      6          6           0       -2.745936    0.089478    1.045832
      7         16           0       -2.586145   -1.477997    0.058419
      8          6           0       -3.923942    0.922638    0.544622
      9          6           0       -0.412231    2.525188   -0.522579
     10          6           0        0.957413    2.755326    0.148816
     11         16           0        2.387604    1.859849   -0.577438
     12          6           0        2.267278    0.212475    0.101114
     13          6           0        1.984704   -0.037360    1.449998
     14          6           0        1.942640   -1.346987    1.926606
     15          6           0        2.216838   -2.419512    1.075114
     16          6           0        2.532388   -2.171309   -0.261048
     17          6           0        2.545831   -0.865279   -0.750450
     18          1           0       -1.545822   -2.149034   -2.620502
     19          1           0       -0.864569   -3.270042   -1.424695
     20          1           0        0.204872   -2.163276   -2.302179
     21          1           0       -0.174275   -1.346474   -0.001709
     22          1           0        0.155769    0.300834   -1.782398
     23          1           0       -1.578053    0.306421   -2.146429
     24          1           0       -1.576370    1.797891    1.583249
     25          1           0       -0.650815    0.296530    1.546927
     26          1           0       -2.926135   -0.224097    2.080170
     27          1           0       -4.845229    0.332972    0.519466
     28          1           0       -4.086967    1.784599    1.205915
     29          1           0       -3.721201    1.292249   -0.464231
     30          1           0       -0.314155    2.704123   -1.598941
     31          1           0       -1.076509    3.313847   -0.131666
     32          1           0        1.232694    3.811407    0.045665
     33          1           0        0.905383    2.546921    1.221254
     34          1           0        1.801491    0.787310    2.130919
     35          1           0        1.706005   -1.528049    2.971302
     36          1           0        2.186116   -3.437523    1.451199
     37          1           0        2.747661   -2.997111   -0.933172
     38          1           0        2.762313   -0.675434   -1.797422
 ---------------------------------------------------------------------

 SCF Done:  E(UB3LYP) =  -1397.54124972     A.U. after   33 cycles
 SCF Done:  E(UB3LYP) =  -1397.54124972     a.u. after    1 cycles

 The electronic state is 2-A.
 Alpha  occ. eigenvalues --  -88.74931 -88.73285 -14.20351 -10.11094 -10.10595
 Alpha  occ. eigenvalues --  -10.10580 -10.10548 -10.10122 -10.10122 -10.10038
 Alpha  occ. eigenvalues --  -10.08450 -10.08251 -10.08192 -10.07985 -10.07914
 Alpha  occ. eigenvalues --  -10.07619 -10.06663  -7.83540  -7.81944  -5.79935
 Alpha  occ. eigenvalues --   -5.79550  -5.78936  -5.78319  -5.77983  -5.77313
 Alpha  occ. eigenvalues --   -0.83534  -0.77075  -0.72759  -0.70193  -0.69839
 Alpha  occ. eigenvalues --   -0.65819  -0.65569  -0.60633  -0.60294  -0.59416
 Alpha  occ. eigenvalues --   -0.55123  -0.51747  -0.50882  -0.50233  -0.47877
 Alpha  occ. eigenvalues --   -0.43443  -0.42238  -0.40190  -0.39658  -0.37683
 Alpha  occ. eigenvalues --   -0.36434  -0.36225  -0.35186  -0.34405  -0.34268
 Alpha  occ. eigenvalues --   -0.33224  -0.32291  -0.31593  -0.30431  -0.30178
 Alpha  occ. eigenvalues --   -0.29442  -0.28860  -0.27904  -0.27315  -0.26522
 Alpha  occ. eigenvalues --   -0.26301  -0.25766  -0.25559  -0.24597  -0.22896
 Alpha  occ. eigenvalues --   -0.22293  -0.20046  -0.18165  -0.16622  -0.12841
 Alpha  occ. eigenvalues --   -0.12413  -0.10141   0.04212
 Alpha virt. eigenvalues --    0.06072   0.06578   0.06960   0.07338   0.07612
 Alpha virt. eigenvalues --    0.08385   0.08449   0.08798   0.09358   0.09869
 Alpha virt. eigenvalues --    0.10526   0.10880   0.11325   0.11510   0.11643

  Beta  occ. eigenvalues --  -88.74927 -88.73283 -14.20352 -10.11079 -10.10578
  Beta  occ. eigenvalues --  -10.10577 -10.10539 -10.10112 -10.10079 -10.10022
  Beta  occ. eigenvalues --  -10.08454 -10.08239 -10.08131 -10.07962 -10.07836
  Beta  occ. eigenvalues --  -10.07613 -10.06649  -7.83537  -7.81942  -5.79933
  Beta  occ. eigenvalues --   -5.79541  -5.78931  -5.78318  -5.77982  -5.77311
  Beta  occ. eigenvalues --   -0.83521  -0.76996  -0.72738  -0.70145  -0.69808
  Beta  occ. eigenvalues --   -0.65761  -0.65458  -0.60604  -0.60250  -0.59394
  Beta  occ. eigenvalues --   -0.55068  -0.51643  -0.50847  -0.50191  -0.47808
  Beta  occ. eigenvalues --   -0.43416  -0.42176  -0.40154  -0.39639  -0.37657
  Beta  occ. eigenvalues --   -0.36379  -0.36157  -0.35161  -0.34360  -0.34218
  Beta  occ. eigenvalues --   -0.33181  -0.32260  -0.31573  -0.30400  -0.30156
  Beta  occ. eigenvalues --   -0.29408  -0.28741  -0.27847  -0.27280  -0.26498
  Beta  occ. eigenvalues --   -0.26274  -0.25730  -0.25517  -0.24555  -0.22878
  Beta  occ. eigenvalues --   -0.22222  -0.20029  -0.18031  -0.16388  -0.12741
  Beta  occ. eigenvalues --   -0.12402  -0.10119
  Beta virt. eigenvalues --    0.06306   0.06893   0.07074   0.07398   0.07552
  Beta virt. eigenvalues --    0.07966   0.08679   0.08884   0.09010   0.09635
  Beta virt. eigenvalues --    0.10210   0.10722   0.11207   0.11464   0.11645

 Mulliken charges and spin densities:
               1          2
     1  C   -0.345638  -0.478918
     2  C    0.633185   0.509882
     3  C   -0.761065  -0.544080
     4  N    0.202992   0.045220
     5  C    0.020063  -0.348010
     6  C   -0.089307   0.048750
     7  S   -0.231958   0.091947
     8  C    0.147145  -0.749241
     9  C   -0.634062   0.274515
    10  C    0.733103  -0.990011
    11  S    0.538398  -0.688567
    12  C    0.198459   0.467294
    13  C   -0.125199  -0.296995
    14  C    0.388947  -0.589733
    15  C    0.393744  -0.686307
    16  C   -0.204149  -0.154301
    17  C   -0.761250   0.446270
    18  H    0.087344   0.040426
    19  H    0.060957   0.097710
    20  H    0.105738   0.040278
    21  H    0.254833  -0.090532
    22  H    0.101483   0.046232
    23  H    0.150012   0.021582
    24  H   -0.504812   0.698936
    25  H    0.455685  -0.292403
    26  H   -0.218761   0.497769
    27  H    0.037733   0.092440
    28  H   -0.063739   0.187556
    29  H    0.059727   0.095011
    30  H    0.059518   0.065448
    31  H   -0.132918   0.292056
    32  H   -0.333873   0.589329
    33  H   -0.177941   0.370218
    34  H   -0.360398   0.526167
    35  H   -0.420601   0.607476
    36  H   -0.132833   0.288603
    37  H   -0.216776   0.376545
    38  H    0.086213   0.091440
 Sum of Mulliken charges =  -1.00000   1.00000

 Dipole moment (field-independent basis, Debye):
    X=             -0.7856    Y=             -2.0731    Z=             -5.4508  Tot=              5.8844
 Quadrupole moment (field-independent basis, Debye-Ang):
   XX=           -176.1093   YY=           -180.6650   ZZ=           -161.3450
   XY=              0.2961   XZ=              0.6414   YZ=             -6.4759

 Summary of Natural Population Analysis:

                                       Natural Population
                Natural  -----------------------------------------------
    Atom  No    Charge         Core      Valence    Rydberg      Total
 -----------------------------------------------------------------------
      C    1   -0.28509      0.99964     2.27992    0.00553     3.28509
      C    2   -0.17914      0.99956     2.16750    0.01209     3.17914
      C    3   -0.07708      0.99957     2.06843    0.00907     3.07708
      N    4   -0.29506      0.99970     2.78115    0.01422     3.79506
      C    5   -0.08993      0.99957     2.07629    0.01407     3.08993
      C    6   -0.16212      0.99957     2.14989    0.01266     3.16212
      S    7    0.07882      4.99960     2.90581    0.01577     7.92118
      C    8   -0.28955      0.99963     2.28251    0.00741     3.28955
      C    9   -0.07787      0.99959     2.06552    0.01276     3.07787
      C   10   -0.25672      0.99958     2.24554    0.01160     3.25672
      S   11    0.11333      4.99952     2.86880    0.01835     7.88667
      C   12   -0.09105      0.99939     2.07763    0.01403     3.09105
      C   13   -0.10122      0.99948     2.09022    0.01152     3.10122
      C   14   -0.09584      0.99955     2.08589    0.01040     3.09584
      C   15   -0.10635      0.99956     2.09669    0.01010     3.10635
      C   16   -0.09278      0.99956     2.08276    0.01045     3.09278
      C   17   -0.11625      0.99949     2.10558    0.01117     3.11625
      H   18    0.09841      0.00000     0.40062    0.00097     0.40159
      H   19    0.10428      0.00000     0.39490    0.00083     0.39572
      H   20    0.10361      0.00000     0.39538    0.00101     0.39639
      H   21    0.11132      0.00000     0.38517    0.00352     0.38868
      H   22    0.09834      0.00000     0.39998    0.00168     0.40166
      H   23    0.08521      0.00000     0.41353    0.00126     0.41479
      H   24    0.10461      0.00000     0.39300    0.00240     0.39539
      H   25    0.09274      0.00000     0.40420    0.00306     0.40726
      H   26    0.10159      0.00000     0.39719    0.00121     0.39841
      H   27    0.09865      0.00000     0.40051    0.00084     0.40135
      H   28    0.09902      0.00000     0.39988    0.00110     0.40098
      H   29    0.10371      0.00000     0.39495    0.00134     0.39629
      H   30    0.09532      0.00000     0.40354    0.00114     0.40468
      H   31    0.09556      0.00000     0.40303    0.00142     0.40444
      H   32    0.10802      0.00000     0.39043    0.00154     0.39198
      H   33    0.10644      0.00000     0.39113    0.00243     0.39356
      H   34    0.10631      0.00000     0.39153    0.00217     0.39369
      H   35    0.10435      0.00000     0.39442    0.00123     0.39565
      H   36    0.10214      0.00000     0.39686    0.00100     0.39786
      H   37    0.10079      0.00000     0.39823    0.00098     0.39921
      H   38    0.10349      0.00000     0.39548    0.00103     0.39651
 =======================================================================
   * Total *   -0.00000     24.99256    46.77411    0.23334    72.00000

 Normal termination of Gaussian 16 at Sun Dec 13 14:09:20 2020.
