 Gaussian 16, Revision A.03,

 -----------------------------------------------------------
 # opt freq B3LYP/6-31G(d) empiricaldispersion=gd3bj scf=xqc
 -----------------------------------------------------------

 -------------------------------
 CID_151292037_JID_8114_neutraal
 -------------------------------
 Symbolic Z-matrix:
 Charge =  0 Multiplicity = 1

 SCF Done:  E(RB3LYP) =  -927.795054746     A.U. after   16 cycles
 SCF Done:  E(RB3LYP) =  -927.805314034     A.U. after   15 cycles
 SCF Done:  E(RB3LYP) =  -927.808821000     A.U. after   15 cycles
 SCF Done:  E(RB3LYP) =  -927.811273236     A.U. after   16 cycles
 SCF Done:  E(RB3LYP) =  -927.812832723     A.U. after   15 cycles
 SCF Done:  E(RB3LYP) =  -927.814106832     A.U. after   16 cycles
 SCF Done:  E(RB3LYP) =  -927.815491264     A.U. after   16 cycles
 SCF Done:  E(RB3LYP) =  -927.815920971     A.U. after   13 cycles
 SCF Done:  E(RB3LYP) =  -927.816336543     A.U. after   15 cycles
 SCF Done:  E(RB3LYP) =  -927.816258020     A.U. after   15 cycles
 SCF Done:  E(RB3LYP) =  -927.818780336     A.U. after    9 cycles
 SCF Done:  E(RB3LYP) =  -927.818781664     A.U. after    9 cycles
 SCF Done:  E(RB3LYP) =  -927.818781965     A.U. after    8 cycles
 SCF Done:  E(RB3LYP) =  -927.818782120     A.U. after    8 cycles
 SCF Done:  E(RB3LYP) =  -927.818782157     A.U. after    7 cycles
 Optimization completed.
    -- Stationary point found.
 Normal termination of Gaussian 16 at Fri Dec 11 18:58:00 2020.

 --------------------------------------------------------------------
 #N Geom=AllCheck Guess=TCheck SCRF=Check GenChk RB3LYP/6-31G(d) Freq
 --------------------------------------------------------------------

 Structure from the checkpoint file:  "JID_8114.chk"
 -------------------------------
 CID_151292037_JID_8114_neutraal
 -------------------------------
 Charge =  0 Multiplicity = 1

 SCF Done:  E(RB3LYP) =  -927.818782157     A.U. after    1 cycles

  Exact polarizability: 148.100  -3.865 132.906  -8.997   5.207 129.413
 Approx polarizability: 185.228   0.772 189.669 -27.051  19.909 241.746

                      1                      2                      3
                      A                      A                      A
 Frequencies --     24.3152                30.4526                42.9268
 Red. masses --      3.7716                 3.3839                 3.4075
 Frc consts  --      0.0013                 0.0018                 0.0037
 IR Inten    --      0.2113                 0.0157                 0.0329

                      4                      5                      6
                      A                      A                      A
 Frequencies --     48.0376                50.8836                65.2389
 Red. masses --      4.1919                 7.0357                 4.8372
 Frc consts  --      0.0057                 0.0107                 0.0121
 IR Inten    --      0.1888                 0.1261                 0.0297

                      7                      8                      9
                      A                      A                      A
 Frequencies --     82.9995                87.1268               103.3790
 Red. masses --      5.9640                 4.7763                 9.7763
 Frc consts  --      0.0242                 0.0214                 0.0616
 IR Inten    --      0.3626                 3.1332                 1.8591

                     10                     11                     12
                      A                      A                      A
 Frequencies --    125.7466               167.2243               212.9450
 Red. masses --      3.6014                 8.8873                 3.6606
 Frc consts  --      0.0336                 0.1464                 0.0978
 IR Inten    --      0.1445                 0.4464                 5.0014

                     13                     14                     15
                      A                      A                      A
 Frequencies --    221.9326               230.3251               233.6507
 Red. masses --      1.5515                 1.6003                 1.1482
 Frc consts  --      0.0450                 0.0500                 0.0369
 IR Inten    --      1.3357                 0.3776                 0.4297

                     16                     17                     18
                      A                      A                      A
 Frequencies --    250.7409               262.1432               265.4946
 Red. masses --      1.0804                 1.3946                 2.7463
 Frc consts  --      0.0400                 0.0565                 0.1141
 IR Inten    --      0.1361                 0.7487                 0.9198

                     19                     20                     21
                      A                      A                      A
 Frequencies --    306.1709               317.7350               367.7209
 Red. masses --      4.2025                 4.0211                 6.1263
 Frc consts  --      0.2321                 0.2392                 0.4881
 IR Inten    --      0.7839                 8.7863                23.3616

                     22                     23                     24
                      A                      A                      A
 Frequencies --    381.3021               391.0192               421.1453
 Red. masses --      2.8098                 3.0647                 3.6121
 Frc consts  --      0.2407                 0.2761                 0.3775
 IR Inten    --      2.3745                 3.2091                 5.8653

                     25                     26                     27
                      A                      A                      A
 Frequencies --    425.6051               454.3622               460.7937
 Red. masses --      1.8818                 3.0795                 3.8576
 Frc consts  --      0.2008                 0.3746                 0.4826
 IR Inten    --      1.5008                 5.4364                40.8958

                     28                     29                     30
                      A                      A                      A
 Frequencies --    480.0832               520.2189               550.5770
 Red. masses --      2.9102                 2.9300                 9.5098
 Frc consts  --      0.3952                 0.4672                 1.6985
 IR Inten    --     14.0669                35.7089                16.8449

                     31                     32                     33
                      A                      A                      A
 Frequencies --    567.8777               693.6648               712.7349
 Red. masses --      4.0976                 3.0290                 6.7044
 Frc consts  --      0.7786                 0.8587                 2.0066
 IR Inten    --     30.4384                11.6587                50.1945

                     34                     35                     36
                      A                      A                      A
 Frequencies --    737.8265               750.1792               766.6965
 Red. masses --      8.6404                11.7669                10.7913
 Frc consts  --      2.7714                 3.9016                 3.7374
 IR Inten    --     14.3782                19.3127                20.0794

                     37                     38                     39
                      A                      A                      A
 Frequencies --    823.1697               829.1503               879.1034
 Red. masses --      5.5857                 2.7049                 3.4290
 Frc consts  --      2.2300                 1.0956                 1.5614
 IR Inten    --      6.3187                 0.8949                 1.0383

                     40                     41                     42
                      A                      A                      A
 Frequencies --    916.9620               939.2977               947.0648
 Red. masses --      2.9441                 1.8867                 1.2659
 Frc consts  --      1.4585                 0.9807                 0.6690
 IR Inten    --      4.6587                 3.0325                 1.5795

                     43                     44                     45
                      A                      A                      A
 Frequencies --    951.3592               958.6607               962.7651
 Red. masses --      1.2751                 1.3191                 1.8665
 Frc consts  --      0.6800                 0.7143                 1.0194
 IR Inten    --      1.6153                 0.3193                 1.5064

                     46                     47                     48
                      A                      A                      A
 Frequencies --    983.1373               996.5202              1030.4154
 Red. masses --      1.7061                 3.1481                 3.2228
 Frc consts  --      0.9716                 1.8419                 2.0161
 IR Inten    --      7.9720                28.2203                52.5914

                     49                     50                     51
                      A                      A                      A
 Frequencies --   1110.2694              1154.6152              1159.1747
 Red. masses --      9.4482                 4.9718                 2.9539
 Frc consts  --      6.8621                 3.9051                 2.3386
 IR Inten    --     94.2069                97.0626                42.1342

                     52                     53                     54
                      A                      A                      A
 Frequencies --   1175.3326              1178.7958              1211.4248
 Red. masses --      2.1381                 2.3551                 2.2680
 Frc consts  --      1.7402                 1.9281                 1.9610
 IR Inten    --      8.5484               192.0569                14.5819

                     55                     56                     57
                      A                      A                      A
 Frequencies --   1212.5390              1221.7695              1239.1115
 Red. masses --      1.7599                 1.9560                 4.7875
 Frc consts  --      1.5245                 1.7203                 4.3310
 IR Inten    --      0.7386                 4.6555                85.7927

                     58                     59                     60
                      A                      A                      A
 Frequencies --   1298.8957              1321.0501              1347.0784
 Red. masses --      5.1314                 1.2136                 1.4659
 Frc consts  --      5.1008                 1.2479                 1.5673
 IR Inten    --    457.0517                 9.7717                55.5514

                     61                     62                     63
                      A                      A                      A
 Frequencies --   1360.8820              1391.9224              1401.6149
 Red. masses --      2.9710                 1.3095                 1.3720
 Frc consts  --      3.2418                 1.4948                 1.5880
 IR Inten    --    267.1583                 3.4781                22.9773

                     64                     65                     66
                      A                      A                      A
 Frequencies --   1428.8363              1430.1044              1432.2724
 Red. masses --      1.3745                 1.3495                 1.3473
 Frc consts  --      1.6533                 1.6261                 1.6284
 IR Inten    --     42.6416                15.9464                11.4904

                     67                     68                     69
                      A                      A                      A
 Frequencies --   1434.2971              1444.3652              1455.0949
 Red. masses --      1.3814                 1.2550                 1.2481
 Frc consts  --      1.6744                 1.5426                 1.5570
 IR Inten    --     41.8374                15.6836                 5.9096

                     70                     71                     72
                      A                      A                      A
 Frequencies --   1461.1633              1509.9175              1512.6366
 Red. masses --      1.2677                 1.0482                 1.0682
 Frc consts  --      1.5946                 1.4080                 1.4400
 IR Inten    --     11.7037                 0.2456                 0.6810

                     73                     74                     75
                      A                      A                      A
 Frequencies --   1520.9937              1521.3594              1525.6190
 Red. masses --      1.0587                 1.0476                 1.0613
 Frc consts  --      1.4431                 1.4286                 1.4553
 IR Inten    --      5.7861                16.9957                 6.9627

                     76                     77                     78
                      A                      A                      A
 Frequencies --   1528.3896              1535.4545              1543.8021
 Red. masses --      1.0508                 1.0580                 1.0491
 Frc consts  --      1.4463                 1.4697                 1.4731
 IR Inten    --      0.9770                 7.1063                14.3845

                     79                     80                     81
                      A                      A                      A
 Frequencies --   1548.3499              1833.7686              1839.7699
 Red. masses --      1.0554                11.6026                 9.5865
 Frc consts  --      1.4908                22.9876                19.1178
 IR Inten    --      9.8039               313.9506               215.8395

                     82                     83                     84
                      A                      A                      A
 Frequencies --   2235.9702              3034.2610              3044.3978
 Red. masses --     13.9924                 1.0838                 1.0362
 Frc consts  --     41.2169                 5.8791                 5.6584
 IR Inten    --    259.6967                14.6822                25.3267

                     85                     86                     87
                      A                      A                      A
 Frequencies --   3055.3399              3063.3851              3067.4474
 Red. masses --      1.0357                 1.0372                 1.0387
 Frc consts  --      5.6966                 5.7349                 5.7583
 IR Inten    --     16.7473                20.0323                 8.7797

                     88                     89                     90
                      A                      A                      A
 Frequencies --   3087.0482              3094.2521              3107.6044
 Red. masses --      1.0580                 1.0861                 1.1022
 Frc consts  --      5.9407                 6.1269                 6.2714
 IR Inten    --     26.6888                14.5534                28.6676

                     91                     92                     93
                      A                      A                      A
 Frequencies --   3120.2476              3124.4492              3127.9751
 Red. masses --      1.1026                 1.1017                 1.1021
 Frc consts  --      6.3247                 6.3369                 6.3534
 IR Inten    --      4.4878                60.8497                13.7360

                     94                     95                     96
                      A                      A                      A
 Frequencies --   3129.7178              3130.8838              3147.1337
 Red. masses --      1.1020                 1.1021                 1.1087
 Frc consts  --      6.3600                 6.3651                 6.4697
 IR Inten    --     25.1953                36.0979                14.9672

                     97                     98                     99
                      A                      A                      A
 Frequencies --   3165.3153              3173.0011              3619.1595
 Red. masses --      1.1013                 1.1006                 1.0782
 Frc consts  --      6.5011                 6.5289                 8.3211
 IR Inten    --      4.8411                10.9949                44.1396

 - Thermochemistry -
 -------------------
 Temperature   298.150 Kelvin.  Pressure   1.00000 Atm.
 Atom     1 has atomic number  6 and mass  12.00000

 Molecular mass:   259.12805 amu.
 Principal axes and moments of inertia in atomic units:
                           1         2         3
     Eigenvalues --  3138.677216204.775207593.35979
           X            0.99990   0.01305  -0.00518
           Y           -0.01328   0.99879  -0.04746
           Z            0.00456   0.04752   0.99886
 This molecule is an asymmetric top.
 Rotational symmetry number  1.
 Warning -- assumption of classical behavior for rotation
           may cause significant error
 Rotational temperatures (Kelvin)      0.02760     0.01396     0.01141
 Rotational constants (GHZ):           0.57500     0.29086     0.23767
 Zero-point vibrational energy     746751.7 (Joules/Mol)
                                  178.47795 (Kcal/Mol)
 Warning -- explicit consideration of  31 degrees of freedom as
           vibrations may cause significant error
 Vibrational temperatures:     34.98    43.81    61.76    69.12    73.21
          (Kelvin)             93.86   119.42   125.36   148.74   180.92
                              240.60   306.38   319.31   331.39   336.17
                              360.76   377.17   381.99   440.51   457.15
                              529.07   548.61   562.59   605.93   612.35
                              653.73   662.98   690.73   748.48   792.16
                              817.05   998.03  1025.47  1061.57  1079.34
                             1103.11  1184.36  1192.96  1264.83  1319.30
                             1351.44  1362.62  1368.79  1379.30  1385.20
                             1414.52  1433.77  1482.54  1597.43  1661.23
                             1667.79  1691.04  1696.02  1742.97  1744.57
                             1757.85  1782.81  1868.82  1900.70  1938.15
                             1958.01  2002.67  2016.61  2055.78  2057.60
                             2060.72  2063.63  2078.12  2093.56  2102.29
                             2172.43  2176.35  2188.37  2188.90  2195.03
                             2199.01  2209.18  2221.19  2227.73  2638.38
                             2647.02  3217.06  4365.62  4380.21  4395.95
                             4407.53  4413.37  4441.57  4451.94  4471.15
                             4489.34  4495.39  4500.46  4502.97  4504.64
                             4528.02  4554.18  4565.24  5207.16

 Zero-point correction=                           0.284423 (Hartree/Particle)
 Thermal correction to Energy=                    0.304510
 Thermal correction to Enthalpy=                  0.305454
 Thermal correction to Gibbs Free Energy=         0.233591
 Sum of electronic and zero-point Energies=           -927.534359
 Sum of electronic and thermal Energies=              -927.514272
 Sum of electronic and thermal Enthalpies=            -927.513328
 Sum of electronic and thermal Free Energies=         -927.585191

                     E (Thermal)             CV                S
                      KCal/Mol        Cal/Mol-Kelvin    Cal/Mol-Kelvin
 Total                  191.083             71.435            151.248
 Electronic               0.000              0.000              0.000
 Translational            0.889              2.981             42.556
 Rotational               0.889              2.981             33.358
 Vibrational            189.305             65.473             75.334
 Vibration     1          0.593              1.985              6.246
 Vibration     2          0.594              1.984              5.800
 Vibration     3          0.595              1.980              5.119
 Vibration     4          0.595              1.978              4.897
 Vibration     5          0.595              1.977              4.783
 Vibration     6          0.597              1.971              4.292
 Vibration     7          0.600              1.961              3.819
 Vibration     8          0.601              1.958              3.724
 Vibration     9          0.605              1.946              3.390
 Vibration    10          0.611              1.927              3.010
 Vibration    11          0.624              1.883              2.466
 Vibration    12          0.644              1.821              2.018
 Vibration    13          0.648              1.808              1.943
 Vibration    14          0.652              1.795              1.876
 Vibration    15          0.654              1.789              1.851
 Vibration    16          0.663              1.762              1.725
 Vibration    17          0.669              1.742              1.647
 Vibration    18          0.671              1.736              1.625
 Vibration    19          0.697              1.662              1.383
 Vibration    20          0.704              1.640              1.322
 Vibration    21          0.740              1.539              1.089
 Vibration    22          0.751              1.510              1.034
 Vibration    23          0.759              1.489              0.996
 Vibration    24          0.784              1.424              0.888
 Vibration    25          0.787              1.415              0.873
 Vibration    26          0.813              1.351              0.783
 Vibration    27          0.819              1.337              0.764
 Vibration    28          0.836              1.294              0.710
 Vibration    29          0.875              1.205              0.609
 Vibration    30          0.906              1.138              0.543
 Vibration    31          0.924              1.101              0.508

                           ! Non-Optimized Parameters !
 Normal termination of Gaussian 16 at Fri Dec 11 19:14:35 2020.

 ----------------------------------------------------------------------
 # B3LYP/6-311++G(d,p) empiricaldispersion=gd3bj scf=xqc pop=npa geom=c
 heck
 ----------------------------------------------------------------------

 ---------------------------------------
 CID_151292037_JID_8114_Energie_neutraal
 ---------------------------------------
 Structure from the checkpoint file:  "JID_8114.chk"
 Charge =  0 Multiplicity = 1

 SCF Done:  E(RB3LYP) =  -928.091323153     A.U. after   16 cycles
 Normal termination of Gaussian 16 at Fri Dec 11 19:22:12 2020.

 ----------------------------------------------------------------------
 # B3LYP/6-311++G(d,p) empiricaldispersion=gd3bj scf=xqc pop=npa geom=c
 heck
 ----------------------------------------------------------------------

 -------------------------------------
 CID_151292037_JID_8114_Energie_kation
 -------------------------------------
 Structure from the checkpoint file:  "JID_8114.chk"
 Charge =  1 Multiplicity = 2

 SCF Done:  E(UB3LYP) =  -927.756693579     A.U. after   29 cycles
 Normal termination of Gaussian 16 at Fri Dec 11 19:42:18 2020.
 Gaussian 16:  ES64L-G16RevA.03 25-Dec-2016

 ----------------------------------------------------------------------
 # B3LYP/6-311++G(d,p) empiricaldispersion=gd3bj scf=xqc pop=npa geom=c
 heck
 ----------------------------------------------------------------------

 ------------------------------------
 CID_151292037_JID_8114_Energie_anion
 ------------------------------------
 Structure from the checkpoint file:  "JID_8114.chk"
 Charge = -1 Multiplicity = 2

                         Standard orientation:
 ---------------------------------------------------------------------
 Center     Atomic      Atomic             Coordinates (Angstroms)
 Number     Number       Type             X           Y           Z
 ---------------------------------------------------------------------
      1          6           0        4.059355    0.649220   -0.406445
      2          6           0        3.621812   -0.806677   -0.211295
      3          6           0        4.631971   -1.588984    0.638274
      4          6           0        2.246877   -0.904600    0.445602
      5          8           0        1.233906   -0.267541   -0.370475
      6          6           0        0.788701    0.928741    0.049441
      7          8           0        1.132702    1.528130    1.042165
      8          7           0       -0.143821    1.434017   -0.871290
      9          7           0       -0.844225    0.577748   -1.693826
     10          6           0       -1.584959   -0.482627   -1.183319
     11          8           0       -1.957096   -1.407334   -1.873239
     12          8           0       -1.825389   -0.275582    0.122069
     13          6           0       -2.520189   -1.298705    0.903246
     14          6           0       -3.954613   -1.483112    0.424686
     15          6           0       -1.701001   -2.582556    0.957095
     16          7           0       -0.831769    2.625835   -0.505174
     17          7           0       -1.429399    2.514745    0.603399
     18          7           0       -1.994729    2.626671    1.581012
     19          1           0        4.090452    1.181766    0.550673
     20          1           0        3.373782    1.189048   -1.066987
     21          1           0        5.057652    0.691573   -0.855546
     22          1           0        3.550197   -1.285693   -1.197772
     23          1           0        4.735353   -1.140972    1.634337
     24          1           0        4.329710   -2.634941    0.767824
     25          1           0        5.619954   -1.581229    0.166555
     26          1           0        1.925318   -1.946208    0.530940
     27          1           0        2.244484   -0.437606    1.433366
     28          1           0       -0.452146    0.430384   -2.614288
     29          1           0       -2.527673   -0.832865    1.892612
     30          1           0       -3.982894   -1.953736   -0.559450
     31          1           0       -4.493811   -2.116261    1.137847
     32          1           0       -4.465373   -0.516357    0.372975
     33          1           0       -0.675689   -2.364942    1.273887
     34          1           0       -2.146890   -3.268889    1.684944
     35          1           0       -1.675521   -3.071754   -0.018634
 ---------------------------------------------------------------------

 SCF Done:  E(UB3LYP) =  -928.092780064     A.U. after   33 cycles
 SCF Done:  E(UB3LYP) =  -928.092780064     a.u. after    1 cycles

 The electronic state is 2-A.
 Alpha  occ. eigenvalues --  -19.07186 -19.07167 -19.01200 -19.00451 -14.30492
 Alpha  occ. eigenvalues --  -14.29112 -14.27363 -14.23875 -14.22604 -10.23344
 Alpha  occ. eigenvalues --  -10.22446 -10.14923 -10.13154 -10.09048 -10.07708
 Alpha  occ. eigenvalues --  -10.07498 -10.07237 -10.06908  -1.03315  -1.01544
 Alpha  occ. eigenvalues --   -0.99171  -0.93440  -0.93053  -0.92057  -0.82585
 Alpha  occ. eigenvalues --   -0.73185  -0.71623  -0.69869  -0.62229  -0.61052
 Alpha  occ. eigenvalues --   -0.59868  -0.57463  -0.53559  -0.50599  -0.48054
 Alpha  occ. eigenvalues --   -0.46965  -0.45978  -0.42503  -0.39653  -0.39048
 Alpha  occ. eigenvalues --   -0.38516  -0.37958  -0.37423  -0.36944  -0.36297
 Alpha  occ. eigenvalues --   -0.35088  -0.34185  -0.33131  -0.32998  -0.32390
 Alpha  occ. eigenvalues --   -0.31058  -0.30468  -0.30356  -0.29487  -0.28117
 Alpha  occ. eigenvalues --   -0.27649  -0.27328  -0.26979  -0.25754  -0.25372
 Alpha  occ. eigenvalues --   -0.24164  -0.23120  -0.21652  -0.21012  -0.20481
 Alpha  occ. eigenvalues --   -0.19796  -0.17861  -0.16027  -0.12049   0.04157
 Alpha virt. eigenvalues --    0.05522   0.06231   0.07682   0.08183   0.08782
 Alpha virt. eigenvalues --    0.09239   0.09926   0.10160   0.10808   0.11157
 Alpha virt. eigenvalues --    0.11698   0.12241   0.12563   0.12649   0.12798

  Beta  occ. eigenvalues --  -19.07177 -19.07165 -19.01196 -19.00450 -14.30040
  Beta  occ. eigenvalues --  -14.28951 -14.27365 -14.23893 -14.22033 -10.23342
  Beta  occ. eigenvalues --  -10.22443 -10.14913 -10.13134 -10.09043 -10.07701
  Beta  occ. eigenvalues --  -10.07483 -10.07199 -10.06901  -1.03242  -1.01523
  Beta  occ. eigenvalues --   -0.98464  -0.93421  -0.92909  -0.91918  -0.82284
  Beta  occ. eigenvalues --   -0.73084  -0.71534  -0.69778  -0.62104  -0.61028
  Beta  occ. eigenvalues --   -0.59822  -0.57434  -0.53376  -0.50382  -0.47968
  Beta  occ. eigenvalues --   -0.46921  -0.45908  -0.42425  -0.39612  -0.39022
  Beta  occ. eigenvalues --   -0.38439  -0.37840  -0.37096  -0.36825  -0.35360
  Beta  occ. eigenvalues --   -0.34688  -0.34068  -0.33012  -0.32959  -0.31974
  Beta  occ. eigenvalues --   -0.30435  -0.30336  -0.29816  -0.29450  -0.28093
  Beta  occ. eigenvalues --   -0.27615  -0.27305  -0.26895  -0.25728  -0.25316
  Beta  occ. eigenvalues --   -0.24130  -0.22513  -0.21585  -0.20790  -0.20344
  Beta  occ. eigenvalues --   -0.19763  -0.17757  -0.15637  -0.11860
  Beta virt. eigenvalues --    0.06182   0.06629   0.07950   0.08311   0.08937
  Beta virt. eigenvalues --    0.09358   0.09837   0.10288   0.10786   0.11032
  Beta virt. eigenvalues --    0.11424   0.11772   0.12249   0.12635   0.12678

 Mulliken charges and spin densities:
               1          2
     1  C   -0.262852  -0.362516
     2  C   -0.643855   1.135180
     3  C    0.742759  -1.355632
     4  C    0.163694  -0.635134
     5  O    0.053705   0.008109
     6  C   -0.403193   0.075162
     7  O   -0.217656  -0.003062
     8  N    0.586391   0.060312
     9  N   -0.633400  -0.009673
    10  C    0.051724  -0.073452
    11  O   -0.253210  -0.000587
    12  O    0.073276  -0.016624
    13  C   -0.404911   0.421513
    14  C   -0.164843  -0.305911
    15  C    0.176245  -0.711489
    16  N   -0.864845  -0.160212
    17  N    0.582797   0.183015
    18  N   -0.129617   0.422525
    19  H    0.127568   0.033081
    20  H    0.175017  -0.013707
    21  H    0.045186   0.099716
    22  H   -0.022619   0.186525
    23  H    0.002204   0.131983
    24  H   -0.420590   0.559785
    25  H   -0.341914   0.495327
    26  H    0.272479  -0.149127
    27  H    0.130933   0.094222
    28  H    0.331051   0.000606
    29  H    0.001804   0.194522
    30  H    0.150163   0.019437
    31  H    0.007875   0.134239
    32  H    0.158149  -0.002882
    33  H   -0.059008   0.211922
    34  H   -0.124811   0.267076
    35  H    0.114303   0.065749
 Sum of Mulliken charges =  -1.00000   1.00000

 Dipole moment (field-independent basis, Debye):
    X=             -2.0353    Y=             -1.3389    Z=             -2.7013  Tot=              3.6376
 Quadrupole moment (field-independent basis, Debye-Ang):
   XX=           -171.0134   YY=           -160.1187   ZZ=           -133.6965
   XY=             17.5242   XZ=             -1.4949   YZ=             -5.2476

 Summary of Natural Population Analysis:

                                       Natural Population
                Natural  -----------------------------------------------
    Atom  No    Charge         Core      Valence    Rydberg      Total
 -----------------------------------------------------------------------
      C    1   -0.28771      0.99965     2.28204    0.00602     3.28771
      C    2   -0.12555      0.99961     2.11686    0.00907     3.12555
      C    3   -0.28517      0.99965     2.27975    0.00578     3.28517
      C    4   -0.01208      0.99952     2.00023    0.01233     3.01208
      O    5   -0.28736      0.99985     3.27955    0.00795     4.28736
      C    6    0.46070      0.99967     1.51253    0.02709     2.53930
      O    7   -0.31290      0.99987     3.30813    0.00490     4.31290
      N    8   -0.08941      0.99965     2.57467    0.01509     3.58941
      N    9   -0.22934      0.99966     2.71743    0.01225     3.72934
      C   10    0.46254      0.99972     1.51076    0.02698     2.53746
      O   11   -0.32811      0.99987     3.32341    0.00483     4.32811
      O   12   -0.28819      0.99986     3.27824    0.01009     4.28819
      C   13    0.06422      0.99956     1.92315    0.01307     2.93578
      C   14   -0.30200      0.99964     2.29693    0.00543     3.30200
      C   15   -0.30145      0.99964     2.29633    0.00549     3.30145
      N   16   -0.14772      0.99972     2.63231    0.01569     3.64772
      N   17    0.14793      0.99970     2.33751    0.01486     3.35207
      N   18    0.04814      0.99981     2.43881    0.01324     3.45186
      H   19    0.10239      0.00000     0.39684    0.00077     0.39761
      H   20    0.10225      0.00000     0.39693    0.00082     0.39775
      H   21    0.09755      0.00000     0.40176    0.00069     0.40245
      H   22    0.09422      0.00000     0.40396    0.00181     0.40578
      H   23    0.09721      0.00000     0.40181    0.00098     0.40279
      H   24    0.10185      0.00000     0.39673    0.00142     0.39815
      H   25    0.10211      0.00000     0.39660    0.00129     0.39789
      H   26    0.09285      0.00000     0.40583    0.00132     0.40715
      H   27    0.10002      0.00000     0.39870    0.00128     0.39998
      H   28    0.19452      0.00000     0.30422    0.00126     0.30548
      H   29    0.09776      0.00000     0.40098    0.00126     0.40224
      H   30    0.11009      0.00000     0.38905    0.00086     0.38991
      H   31    0.10017      0.00000     0.39913    0.00070     0.39983
      H   32    0.10500      0.00000     0.39427    0.00073     0.39500
      H   33    0.10499      0.00000     0.39379    0.00122     0.39501
      H   34    0.10123      0.00000     0.39798    0.00079     0.39877
      H   35    0.10925      0.00000     0.38987    0.00088     0.39075
 =======================================================================
   * Total *    0.00000     17.99464    50.77710    0.22825    69.00000

 Normal termination of Gaussian 16 at Fri Dec 11 20:05:59 2020.
