 Gaussian 16, Revision A.03,

 -----------------------------------------------------------
 # opt freq B3LYP/6-31G(d) empiricaldispersion=gd3bj scf=xqc
 -----------------------------------------------------------

 -------------------------------
 CID_113257786_JID_7695_neutraal
 -------------------------------
 Symbolic Z-matrix:
 Charge =  0 Multiplicity = 1

 SCF Done:  E(RB3LYP) =  -1121.25794612     A.U. after   15 cycles
 SCF Done:  E(RB3LYP) =  -1121.26506729     A.U. after   12 cycles
 SCF Done:  E(RB3LYP) =  -1121.26583605     A.U. after   12 cycles
 SCF Done:  E(RB3LYP) =  -1121.26638971     A.U. after   12 cycles
 SCF Done:  E(RB3LYP) =  -1121.26666658     A.U. after   13 cycles
 SCF Done:  E(RB3LYP) =  -1121.26681288     A.U. after   12 cycles
 SCF Done:  E(RB3LYP) =  -1121.26682354     A.U. after   11 cycles
 SCF Done:  E(RB3LYP) =  -1121.26688830     A.U. after   11 cycles
 SCF Done:  E(RB3LYP) =  -1121.26690660     A.U. after   10 cycles
 SCF Done:  E(RB3LYP) =  -1121.26692084     A.U. after   10 cycles
 SCF Done:  E(RB3LYP) =  -1121.26696999     A.U. after    8 cycles
 SCF Done:  E(RB3LYP) =  -1121.26697151     A.U. after    8 cycles
 SCF Done:  E(RB3LYP) =  -1121.26697167     A.U. after    8 cycles
 SCF Done:  E(RB3LYP) =  -1121.26697193     A.U. after    8 cycles
 SCF Done:  E(RB3LYP) =  -1121.26697198     A.U. after    7 cycles
 Optimization completed.
    -- Stationary point found.
 Normal termination of Gaussian 16 at Fri Dec 11 13:11:48 2020.

 --------------------------------------------------------------------
 #N Geom=AllCheck Guess=TCheck SCRF=Check GenChk RB3LYP/6-31G(d) Freq
 --------------------------------------------------------------------

 Structure from the checkpoint file:  "JID_7695.chk"
 -------------------------------
 CID_113257786_JID_7695_neutraal
 -------------------------------
 Charge =  0 Multiplicity = 1

 SCF Done:  E(RB3LYP) =  -1121.26697198     A.U. after    1 cycles

  Exact polarizability: 191.043  -0.908 152.530  18.289  -5.780 116.293
 Approx polarizability: 255.117  -5.620 267.392  39.769 -15.013 183.953

                      1                      2                      3
                      A                      A                      A
 Frequencies --     28.1956                34.7464                45.3481
 Red. masses --      5.2305                 4.8238                 6.2555
 Frc consts  --      0.0024                 0.0034                 0.0076
 IR Inten    --      4.0340                 2.9081                 1.4523

                      4                      5                      6
                      A                      A                      A
 Frequencies --     63.0170                98.9605               134.1776
 Red. masses --      5.5071                 2.2178                 5.2765
 Frc consts  --      0.0129                 0.0128                 0.0560
 IR Inten    --      7.3010                 1.1012                 0.4548

                      7                      8                      9
                      A                      A                      A
 Frequencies --    150.5389               192.4561               224.4187
 Red. masses --      5.2365                 3.6036                 2.8734
 Frc consts  --      0.0699                 0.0786                 0.0853
 IR Inten    --      5.0182                 3.1464                 5.7717

                     10                     11                     12
                      A                      A                      A
 Frequencies --    244.0886               255.2592               282.6214
 Red. masses --      6.1147                 1.1932                 2.2517
 Frc consts  --      0.2146                 0.0458                 0.1060
 IR Inten    --      2.0786                 0.2110                54.5724

                     13                     14                     15
                      A                      A                      A
 Frequencies --    292.3396               297.0023               312.9861
 Red. masses --      2.4167                 1.8182                 2.2305
 Frc consts  --      0.1217                 0.0945                 0.1287
 IR Inten    --      7.1410               129.9135                16.4465

                     16                     17                     18
                      A                      A                      A
 Frequencies --    335.3760               351.0540               388.2636
 Red. masses --      1.2678                 2.6247                 3.5993
 Frc consts  --      0.0840                 0.1906                 0.3197
 IR Inten    --      4.5638                11.7529                 8.3371

                     19                     20                     21
                      A                      A                      A
 Frequencies --    437.9683               451.7589               470.4710
 Red. masses --      4.0938                 2.7365                 2.8226
 Frc consts  --      0.4627                 0.3291                 0.3681
 IR Inten    --      4.9468                10.7122                 1.1702

                     22                     23                     24
                      A                      A                      A
 Frequencies --    489.0951               504.4004               548.3168
 Red. masses --      3.8165                 4.7036                 5.9498
 Frc consts  --      0.5379                 0.7051                 1.0539
 IR Inten    --      4.9557                 5.7461                 9.2683

                     25                     26                     27
                      A                      A                      A
 Frequencies --    565.0761               580.8627               627.4311
 Red. masses --      1.1976                 5.8018                 2.8967
 Frc consts  --      0.2253                 1.1533                 0.6719
 IR Inten    --     10.5852                 8.3155                14.2112

                     28                     29                     30
                      A                      A                      A
 Frequencies --    645.9817               659.2227               674.9802
 Red. masses --      1.7330                 1.6423                 1.9401
 Frc consts  --      0.4261                 0.4205                 0.5208
 IR Inten    --     59.6988                72.8200                 9.0178

                     31                     32                     33
                      A                      A                      A
 Frequencies --    696.1555               712.9381               715.7348
 Red. masses --      2.1794                 2.2675                 2.9787
 Frc consts  --      0.6223                 0.6790                 0.8991
 IR Inten    --     27.3553                30.6963                10.6026

                     34                     35                     36
                      A                      A                      A
 Frequencies --    756.1382               769.5859               779.5337
 Red. masses --      3.4695                 3.6515                 1.8621
 Frc consts  --      1.1687                 1.2742                 0.6667
 IR Inten    --     26.6068                 2.5872                17.5509

                     37                     38                     39
                      A                      A                      A
 Frequencies --    822.6657               842.6671               866.7512
 Red. masses --      4.9614                 1.2465                 3.9003
 Frc consts  --      1.9783                 0.5215                 1.7264
 IR Inten    --     15.7412                 0.4987                 6.8344

                     40                     41                     42
                      A                      A                      A
 Frequencies --    874.3903               916.7204               972.0604
 Red. masses --      2.2435                 1.8643                 1.9523
 Frc consts  --      1.0106                 0.9231                 1.0869
 IR Inten    --     21.7793                 5.8132                 4.8158

                     43                     44                     45
                      A                      A                      A
 Frequencies --   1004.3293              1028.0684              1048.8583
 Red. masses --      5.7339                 1.8177                 2.3441
 Frc consts  --      3.4076                 1.1319                 1.5194
 IR Inten    --     12.2799                 3.6232                 1.6208

                     46                     47                     48
                      A                      A                      A
 Frequencies --   1081.0731              1091.5033              1105.3557
 Red. masses --      1.5656                 1.6478                 1.8473
 Frc consts  --      1.0780                 1.1567                 1.3298
 IR Inten    --     10.0761                 2.3580                 1.1473

                     49                     50                     51
                      A                      A                      A
 Frequencies --   1140.4504              1151.0698              1163.8290
 Red. masses --      2.4477                 2.0453                 2.6347
 Frc consts  --      1.8757                 1.5967                 2.1026
 IR Inten    --      3.9235                 2.3611                 3.4011

                     52                     53                     54
                      A                      A                      A
 Frequencies --   1178.0489              1186.0874              1239.3961
 Red. masses --      2.0143                 1.6352                 2.5290
 Frc consts  --      1.6471                 1.3553                 2.2889
 IR Inten    --     13.0546                22.9974                92.4980

                     55                     56                     57
                      A                      A                      A
 Frequencies --   1271.2602              1292.3547              1333.3006
 Red. masses --      2.7676                 2.2525                 1.2850
 Frc consts  --      2.6352                 2.2166                 1.3459
 IR Inten    --     18.8622                14.4697                50.2620

                     58                     59                     60
                      A                      A                      A
 Frequencies --   1356.1158              1359.2241              1371.3986
 Red. masses --      2.5576                 2.2244                 2.1094
 Frc consts  --      2.7712                 2.4213                 2.3375
 IR Inten    --     70.6574                70.4069                40.2442

                     61                     62                     63
                      A                      A                      A
 Frequencies --   1388.2530              1401.8489              1432.7487
 Red. masses --      1.4164                 1.4758                 1.2523
 Frc consts  --      1.6083                 1.7087                 1.5146
 IR Inten    --      2.9948                 1.5102                 2.1128

                     64                     65                     66
                      A                      A                      A
 Frequencies --   1447.0054              1455.2690              1498.4345
 Red. masses --      6.6660                 1.2219                 1.0872
 Frc consts  --      8.2235                 1.5247                 1.4383
 IR Inten    --      1.3060                 3.1065                 1.7222

                     67                     68                     69
                      A                      A                      A
 Frequencies --   1508.1845              1517.2707              1521.8570
 Red. masses --      1.7728                 1.8942                 1.1263
 Frc consts  --      2.3758                 2.5693                 1.5369
 IR Inten    --     66.0034               107.2776                 9.5276

                     70                     71                     72
                      A                      A                      A
 Frequencies --   1532.4947              1535.7403              1540.9822
 Red. masses --      1.1665                 1.0916                 1.0803
 Frc consts  --      1.6141                 1.5169                 1.5114
 IR Inten    --     18.3324                31.2829                 4.7291

                     73                     74                     75
                      A                      A                      A
 Frequencies --   1553.9004              1565.6433              1620.0250
 Red. masses --      1.0586                 5.2388                 5.9263
 Frc consts  --      1.5061                 7.5661                 9.1639
 IR Inten    --      1.5416                 6.6267                40.9929

                     76                     77                     78
                      A                      A                      A
 Frequencies --   1644.8950              1787.8747              3048.6971
 Red. masses --      1.2455                 8.2982                 1.0428
 Frc consts  --      1.9855                15.6282                 5.7105
 IR Inten    --    122.0501               241.2194                25.3204

                     79                     80                     81
                      A                      A                      A
 Frequencies --   3051.3923              3053.9663              3065.7451
 Red. masses --      1.0655                 1.0420                 1.0610
 Frc consts  --      5.8454                 5.7261                 5.8756
 IR Inten    --     48.7270                21.8847                36.2951

                     82                     83                     84
                      A                      A                      A
 Frequencies --   3094.6288              3113.0751              3115.1027
 Red. masses --      1.1014                 1.1004                 1.0966
 Frc consts  --      6.2145                 6.2833                 6.2695
 IR Inten    --     15.9308                43.4428                14.2543

                     85                     86                     87
                      A                      A                      A
 Frequencies --   3116.8821              3147.3545              3178.9145
 Red. masses --      1.0978                 1.1001                 1.0976
 Frc consts  --      6.2835                 6.4208                 6.5351
 IR Inten    --     35.8640                11.8229                 3.9355

                     88                     89                     90
                      A                      A                      A
 Frequencies --   3269.1097              3293.4089              3295.0857
 Red. masses --      1.0905                 1.0975                 1.1010
 Frc consts  --      6.8668                 7.0138                 7.0429
 IR Inten    --      4.6639                 0.1423                 1.8512

                     91                     92                     93
                      A                      A                      A
 Frequencies --   3539.1556              3595.3243              3720.6733
 Red. masses --      1.0740                 1.0458                 1.1032
 Frc consts  --      7.9260                 7.9650                 8.9978
 IR Inten    --     20.0241                28.2628                27.2597

 - Thermochemistry -
 -------------------
 Temperature   298.150 Kelvin.  Pressure   1.00000 Atm.
 Atom     1 has atomic number  6 and mass  12.00000

 Molecular mass:   252.10448 amu.
 Principal axes and moments of inertia in atomic units:
                           1         2         3
     Eigenvalues --  2032.564688188.653198732.77454
           X            0.99976   0.02179  -0.00203
           Y           -0.02178   0.99975   0.00516
           Z            0.00214  -0.00512   0.99998
 This molecule is an asymmetric top.
 Rotational symmetry number  1.
 Warning -- assumption of classical behavior for rotation
           may cause significant error
 Rotational temperatures (Kelvin)      0.04261     0.01058     0.00992
 Rotational constants (GHZ):           0.88791     0.22040     0.20666
 Zero-point vibrational energy     712761.5 (Joules/Mol)
                                  170.35410 (Kcal/Mol)
 Warning -- explicit consideration of  26 degrees of freedom as
           vibrations may cause significant error
 Vibrational temperatures:     40.57    49.99    65.25    90.67   142.38
          (Kelvin)            193.05   216.59   276.90   322.89   351.19
                              367.26   406.63   420.61   427.32   450.32
                              482.53   505.09   558.62   630.14   649.98
                              676.90   703.70   725.72   788.91   813.02
                              835.73   902.73   929.42   948.47   971.15
                             1001.61  1025.76  1029.78  1087.91  1107.26
                             1121.58  1183.63  1212.41  1247.06  1258.05
                             1318.96  1398.58  1445.01  1479.16  1509.07
                             1555.42  1570.43  1590.36  1640.85  1656.13
                             1674.49  1694.95  1706.52  1783.21  1829.06
                             1859.41  1918.32  1951.15  1955.62  1973.14
                             1997.39  2016.95  2061.41  2081.92  2093.81
                             2155.91  2169.94  2183.01  2189.61  2204.92
                             2209.59  2217.13  2235.72  2252.61  2330.85
                             2366.64  2572.35  4386.40  4390.27  4393.98
                             4410.92  4452.48  4479.02  4481.94  4484.50
                             4528.34  4573.75  4703.52  4738.48  4740.89
                             5092.06  5172.87  5353.22

 Zero-point correction=                           0.271477 (Hartree/Particle)
 Thermal correction to Energy=                    0.288275
 Thermal correction to Enthalpy=                  0.289219
 Thermal correction to Gibbs Free Energy=         0.226151
 Sum of electronic and zero-point Energies=          -1120.995495
 Sum of electronic and thermal Energies=             -1120.978697
 Sum of electronic and thermal Enthalpies=           -1120.977753
 Sum of electronic and thermal Free Energies=        -1121.040821

                     E (Thermal)             CV                S
                      KCal/Mol        Cal/Mol-Kelvin    Cal/Mol-Kelvin
 Total                  180.895             64.802            132.739
 Electronic               0.000              0.000              0.000
 Translational            0.889              2.981             42.474
 Rotational               0.889              2.981             33.341
 Vibrational            179.118             58.840             56.923
 Vibration     1          0.593              1.984              5.952
 Vibration     2          0.594              1.983              5.538
 Vibration     3          0.595              1.979              5.011
 Vibration     4          0.597              1.972              4.360
 Vibration     5          0.604              1.950              3.475
 Vibration     6          0.613              1.919              2.885
 Vibration     7          0.618              1.902              2.665
 Vibration     8          0.634              1.850              2.204
 Vibration     9          0.649              1.804              1.923
 Vibration    10          0.659              1.773              1.773
 Vibration    11          0.666              1.754              1.694
 Vibration    12          0.682              1.706              1.518
 Vibration    13          0.688              1.688              1.460
 Vibration    14          0.691              1.679              1.434
 Vibration    15          0.701              1.649              1.346
 Vibration    16          0.716              1.605              1.234
 Vibration    17          0.728              1.573              1.161
 Vibration    18          0.756              1.495              1.007
 Vibration    19          0.798              1.387              0.833
 Vibration    20          0.810              1.357              0.790
 Vibration    21          0.827              1.316              0.736
 Vibration    22          0.845              1.274              0.686
 Vibration    23          0.860              1.240              0.647
 Vibration    24          0.904              1.143              0.548
 Vibration    25          0.921              1.107              0.514
 Vibration    26          0.938              1.073              0.484

 Optimization completed.
    -- Stationary point found.
 Normal termination of Gaussian 16 at Fri Dec 11 13:24:33 2020.

 ----------------------------------------------------------------------
 # B3LYP/6-311++G(d,p) empiricaldispersion=gd3bj scf=xqc pop=npa geom=c
 heck
 ----------------------------------------------------------------------

 ---------------------------------------
 CID_113257786_JID_7695_Energie_neutraal
 ---------------------------------------
 Structure from the checkpoint file:  "JID_7695.chk"
 Charge =  0 Multiplicity = 1

 SCF Done:  E(RB3LYP) =  -1121.50213912     A.U. after   16 cycles
 Normal termination of Gaussian 16 at Fri Dec 11 13:31:10 2020.

 ----------------------------------------------------------------------
 # B3LYP/6-311++G(d,p) empiricaldispersion=gd3bj scf=xqc pop=npa geom=c
 heck
 ----------------------------------------------------------------------

 -------------------------------------
 CID_113257786_JID_7695_Energie_kation
 -------------------------------------
 Structure from the checkpoint file:  "JID_7695.chk"
 Charge =  1 Multiplicity = 2

 SCF Done:  E(UB3LYP) =  -1121.22559947     A.U. after   29 cycles
 Normal termination of Gaussian 16 at Fri Dec 11 13:47:49 2020.
 Gaussian 16:  ES64L-G16RevA.03 25-Dec-2016

 ----------------------------------------------------------------------
 # B3LYP/6-311++G(d,p) empiricaldispersion=gd3bj scf=xqc pop=npa geom=c
 heck
 ----------------------------------------------------------------------

 ------------------------------------
 CID_113257786_JID_7695_Energie_anion
 ------------------------------------
 Structure from the checkpoint file:  "JID_7695.chk"
 Charge = -1 Multiplicity = 2

                         Standard orientation:
 ---------------------------------------------------------------------
 Center     Atomic      Atomic             Coordinates (Angstroms)
 Number     Number       Type             X           Y           Z
 ---------------------------------------------------------------------
      1          6           0        1.747355    2.638447    0.241500
      2          6           0        2.778869    1.511826    0.393918
      3          6           0        2.320930    0.086398   -0.037012
      4          6           0        1.315936    0.135492   -1.223155
      5          6           0        3.489534   -0.786203   -0.574123
      6          8           0        3.562898   -1.984191   -0.330171
      7          7           0        4.393665   -0.176641   -1.398919
      8          7           0        1.858023   -0.648547    1.141236
      9          6           0        0.671571   -0.237602    1.879307
     10          6           0       -0.667250   -0.316867    1.185695
     11          6           0       -1.364568   -1.448164    0.814660
     12          7           0       -2.498575   -0.983875    0.163586
     13          6           0       -3.631147   -1.488226   -0.462359
     14          6           0       -4.435393   -0.508124   -0.929567
     15         16           0       -3.809359    1.109963   -0.602902
     16          6           0       -2.418391    0.396337    0.188732
     17          7           0       -1.338619    0.835539    0.792409
     18          1           0        1.550239    2.860426   -0.813309
     19          1           0        2.133187    3.555368    0.701490
     20          1           0        0.785395    2.403612    0.704309
     21          1           0        3.678960    1.806274   -0.156431
     22          1           0        3.095297    1.425188    1.438821
     23          1           0        1.762066    0.620476   -2.100276
     24          1           0        1.030321   -0.882652   -1.506300
     25          1           0        0.414080    0.685046   -0.955029
     26          1           0        4.239995    0.747989   -1.768696
     27          1           0        5.026220   -0.784343   -1.900614
     28          1           0        1.861562   -1.641409    0.927784
     29          1           0        0.642991   -0.869026    2.776013
     30          1           0        0.800612    0.789460    2.231862
     31          1           0       -1.164785   -2.500672    0.941643
     32          1           0       -3.784925   -2.555833   -0.532342
     33          1           0       -5.370781   -0.631016   -1.454901
 ---------------------------------------------------------------------

 SCF Done:  E(UB3LYP) =  -1121.49072949     A.U. after   33 cycles
 SCF Done:  E(UB3LYP) =  -1121.49294676     a.u. after    8 cycles

 The electronic state is 2-A.
 Alpha  occ. eigenvalues --  -88.80535 -19.00093 -14.30772 -14.23924 -14.21755
 Alpha  occ. eigenvalues --  -14.20167 -10.18303 -10.17372 -10.14329 -10.12838
 Alpha  occ. eigenvalues --  -10.12738 -10.11928 -10.11392 -10.11361 -10.07900
 Alpha  occ. eigenvalues --  -10.06740 -10.06683  -7.89093  -5.85426  -5.85077
 Alpha  occ. eigenvalues --   -5.84583  -0.96035  -0.95213  -0.83580  -0.81699
 Alpha  occ. eigenvalues --   -0.81297  -0.75956  -0.70159  -0.66624  -0.65585
 Alpha  occ. eigenvalues --   -0.63744  -0.59739  -0.56282  -0.53466  -0.51802
 Alpha  occ. eigenvalues --   -0.50399  -0.48728  -0.46363  -0.45377  -0.43070
 Alpha  occ. eigenvalues --   -0.41038  -0.38886  -0.38660  -0.37909  -0.36972
 Alpha  occ. eigenvalues --   -0.35431  -0.34962  -0.34501  -0.33345  -0.32802
 Alpha  occ. eigenvalues --   -0.31070  -0.30582  -0.29775  -0.29034  -0.28939
 Alpha  occ. eigenvalues --   -0.28448  -0.26658  -0.25481  -0.24559  -0.24028
 Alpha  occ. eigenvalues --   -0.23867  -0.20491  -0.18667  -0.16882  -0.15395
 Alpha  occ. eigenvalues --   -0.14170  -0.12845   0.03761
 Alpha virt. eigenvalues --    0.04644   0.06159   0.06426   0.07330   0.07915
 Alpha virt. eigenvalues --    0.08582   0.08938   0.09373   0.09622   0.09865
 Alpha virt. eigenvalues --    0.10181   0.10559   0.11029   0.11615   0.11913

  Beta  occ. eigenvalues --  -88.80532 -19.00087 -14.30774 -14.23855 -14.21757
  Beta  occ. eigenvalues --  -14.20164 -10.18296 -10.17363 -10.14299 -10.12837
  Beta  occ. eigenvalues --  -10.12670 -10.11920 -10.11391 -10.11360 -10.07884
  Beta  occ. eigenvalues --  -10.06730 -10.06674  -7.89090  -5.85420  -5.85076
  Beta  occ. eigenvalues --   -5.84577  -0.96021  -0.95198  -0.83568  -0.81668
  Beta  occ. eigenvalues --   -0.81226  -0.75920  -0.70138  -0.66583  -0.65556
  Beta  occ. eigenvalues --   -0.63716  -0.59708  -0.56244  -0.53405  -0.51742
  Beta  occ. eigenvalues --   -0.50351  -0.48690  -0.46288  -0.45340  -0.43006
  Beta  occ. eigenvalues --   -0.40994  -0.38855  -0.38634  -0.37844  -0.36958
  Beta  occ. eigenvalues --   -0.35414  -0.34935  -0.34483  -0.33323  -0.32766
  Beta  occ. eigenvalues --   -0.31051  -0.30557  -0.29757  -0.29018  -0.28884
  Beta  occ. eigenvalues --   -0.28430  -0.26630  -0.25420  -0.24543  -0.24009
  Beta  occ. eigenvalues --   -0.23843  -0.20488  -0.18613  -0.16859  -0.15332
  Beta  occ. eigenvalues --   -0.14126  -0.12829
  Beta virt. eigenvalues --    0.06116   0.06387   0.06582   0.07037   0.07680
  Beta virt. eigenvalues --    0.07980   0.08825   0.09356   0.09489   0.09861
  Beta virt. eigenvalues --    0.10185   0.10427   0.10854   0.11070   0.11616

 Mulliken charges and spin densities:
               1          2
     1  C   -0.601051   0.024850
     2  C    0.131724  -0.678723
     3  C    0.277243  -0.138307
     4  C   -0.206573  -0.372108
     5  C    0.160301   0.055908
     6  O   -0.326551  -0.014002
     7  N   -0.264620  -0.088292
     8  N   -0.021505   0.033907
     9  C   -0.622730  -0.119757
    10  C    0.527611   0.045198
    11  C   -0.386762   0.187727
    12  N    0.249603   0.062607
    13  C    0.676687  -0.869094
    14  C    0.649520  -0.887212
    15  S   -0.037511  -0.173375
    16  C   -0.151156  -0.209476
    17  N    0.042127   0.009976
    18  H    0.101637   0.046987
    19  H    0.007993   0.124648
    20  H    0.107589   0.067046
    21  H   -0.211263   0.346425
    22  H    0.206429  -0.032030
    23  H   -0.082023   0.235985
    24  H    0.197323  -0.031712
    25  H    0.205065  -0.015324
    26  H   -0.269633   0.525260
    27  H   -0.143182   0.448904
    28  H    0.249260  -0.010461
    29  H    0.182398  -0.005251
    30  H    0.184650  -0.005735
    31  H    0.106735   0.044410
    32  H   -0.570429   0.738767
    33  H   -1.368908   1.652255
 Sum of Mulliken charges =  -1.00000   1.00000

 Dipole moment (field-independent basis, Debye):
    X=              0.8924    Y=              1.6644    Z=              5.3522  Tot=              5.6756
 Quadrupole moment (field-independent basis, Debye-Ang):
   XX=           -245.0205   YY=           -147.1416   ZZ=           -144.1827
   XY=            -14.0098   XZ=             -3.6431   YZ=             -3.0347

 Summary of Natural Population Analysis:

                                       Natural Population
                Natural  -----------------------------------------------
    Atom  No    Charge         Core      Valence    Rydberg      Total
 -----------------------------------------------------------------------
      C    1   -0.29461      0.99966     2.28939    0.00555     3.29461
      C    2   -0.19551      0.99960     2.18604    0.00988     3.19551
      C    3    0.03039      0.99953     1.95610    0.01398     2.96961
      C    4   -0.29955      0.99962     2.29285    0.00708     3.29955
      C    5    0.34950      0.99963     1.62546    0.02541     2.65050
      O    6   -0.32958      0.99987     3.32385    0.00586     4.32958
      N    7   -0.40073      0.99969     2.89171    0.00932     3.90073
      N    8   -0.34511      0.99971     2.83391    0.01149     3.84511
      C    9   -0.10248      0.99958     2.09222    0.01069     3.10248
      C   10    0.05589      0.99954     1.93007    0.01450     2.94411
      C   11   -0.04450      0.99948     2.03416    0.01086     3.04450
      N   12   -0.20350      0.99959     2.69447    0.00944     3.70350
      C   13   -0.01063      0.99951     1.99803    0.01310     3.01063
      C   14   -0.18366      0.99953     2.17240    0.01172     3.18366
      S   15    0.18950      4.99946     2.79036    0.02068     7.81050
      C   16    0.11144      0.99954     1.86812    0.02089     2.88856
      N   17   -0.27476      0.99965     2.76594    0.00916     3.77476
      H   18    0.09788      0.00000     0.40125    0.00087     0.40212
      H   19    0.09736      0.00000     0.40200    0.00065     0.40264
      H   20    0.10774      0.00000     0.39104    0.00122     0.39226
      H   21    0.09929      0.00000     0.39922    0.00150     0.40071
      H   22    0.10297      0.00000     0.39592    0.00111     0.39703
      H   23    0.10062      0.00000     0.39835    0.00103     0.39938
      H   24    0.10376      0.00000     0.39547    0.00077     0.39624
      H   25    0.11072      0.00000     0.38779    0.00150     0.38928
      H   26    0.19897      0.00000     0.29208    0.00895     0.30103
      H   27    0.19723      0.00000     0.29988    0.00289     0.30277
      H   28    0.18878      0.00000     0.30953    0.00170     0.31122
      H   29    0.09955      0.00000     0.39962    0.00083     0.40045
      H   30    0.10067      0.00000     0.39820    0.00113     0.39933
      H   31    0.10631      0.00000     0.39282    0.00087     0.39369
      H   32    0.11382      0.00000     0.38423    0.00195     0.38618
      H   33    0.12223      0.00000     0.36934    0.00843     0.37777
 =======================================================================
   * Total *   -0.00000     20.99322    45.76177    0.24501    67.00000

 Normal termination of Gaussian 16 at Fri Dec 11 16:05:15 2020.
