 Gaussian 16, Revision A.03,

 -----------------------------------------------------------
 # opt freq B3LYP/6-31G(d) empiricaldispersion=gd3bj scf=xqc
 -----------------------------------------------------------

 ------------------------------
 CID_65984253_JID_1405_neutraal
 ------------------------------
 Symbolic Z-matrix:
 Charge =  0 Multiplicity = 1

 SCF Done:  E(RB3LYP) =  -519.091345228     A.U. after   14 cycles
 SCF Done:  E(RB3LYP) =  -519.095211656     A.U. after   11 cycles
 SCF Done:  E(RB3LYP) =  -519.095400588     A.U. after   12 cycles
 SCF Done:  E(RB3LYP) =  -519.095141474     A.U. after   12 cycles
 SCF Done:  E(RB3LYP) =  -519.095485008     A.U. after   11 cycles
 SCF Done:  E(RB3LYP) =  -519.095727135     A.U. after   11 cycles
 SCF Done:  E(RB3LYP) =  -519.095819831     A.U. after   10 cycles
 SCF Done:  E(RB3LYP) =  -519.096002730     A.U. after   12 cycles
 SCF Done:  E(RB3LYP) =  -519.096074620     A.U. after   11 cycles
 SCF Done:  E(RB3LYP) =  -519.096250862     A.U. after   11 cycles
 SCF Done:  E(RB3LYP) =  -519.096757702     A.U. after   11 cycles
 SCF Done:  E(RB3LYP) =  -519.096757647     A.U. after    9 cycles
 SCF Done:  E(RB3LYP) =  -519.096758094     A.U. after    9 cycles
 SCF Done:  E(RB3LYP) =  -519.096758126     A.U. after    8 cycles
 SCF Done:  E(RB3LYP) =  -519.096758151     A.U. after    7 cycles
 Optimization completed.
    -- Stationary point found.
 Normal termination of Gaussian 16 at Tue Dec  8 20:02:10 2020.

 --------------------------------------------------------------------
 #N Geom=AllCheck Guess=TCheck SCRF=Check GenChk RB3LYP/6-31G(d) Freq
 --------------------------------------------------------------------

 Structure from the checkpoint file:  "JID_1405.chk"
 ------------------------------
 CID_65984253_JID_1405_neutraal
 ------------------------------
 Charge =  0 Multiplicity = 1

 SCF Done:  E(RB3LYP) =  -519.096758151     A.U. after    1 cycles

  Exact polarizability: 101.651  -3.487  93.839  -2.935   0.323  82.126
 Approx polarizability: 126.655  -2.606 145.177  -4.626  -4.350 123.356

                      1                      2                      3
                      A                      A                      A
 Frequencies --     39.4626                61.7049                84.2977
 Red. masses --      2.2558                 3.6084                 4.7327
 Frc consts  --      0.0021                 0.0081                 0.0198
 IR Inten    --      0.6418                 6.8630                 3.5854

                      4                      5                      6
                      A                      A                      A
 Frequencies --    105.1015               182.1963               199.0711
 Red. masses --      2.6601                 2.8112                 2.5100
 Frc consts  --      0.0173                 0.0550                 0.0586
 IR Inten    --      1.9717                 2.4163                 1.4894

                      7                      8                      9
                      A                      A                      A
 Frequencies --    225.0112               246.2469               314.0248
 Red. masses --      1.1762                 2.3506                 4.3434
 Frc consts  --      0.0351                 0.0840                 0.2524
 IR Inten    --      2.8358                 1.9744                 8.6867

                     10                     11                     12
                      A                      A                      A
 Frequencies --    317.8435               352.8053               363.8077
 Red. masses --      2.8991                 1.6637                 1.6497
 Frc consts  --      0.1726                 0.1220                 0.1286
 IR Inten    --      3.4210                46.6073                70.8853

                     13                     14                     15
                      A                      A                      A
 Frequencies --    419.8863               483.0865               536.5865
 Red. masses --      2.8699                 2.8485                 3.3014
 Frc consts  --      0.2981                 0.3917                 0.5600
 IR Inten    --     25.2369                 8.4513                 3.5864

                     16                     17                     18
                      A                      A                      A
 Frequencies --    581.1363               602.7044               648.9912
 Red. masses --      2.4726                 2.3179                 2.2569
 Frc consts  --      0.4920                 0.4961                 0.5601
 IR Inten    --     15.0134                 3.8104                 1.7366

                     19                     20                     21
                      A                      A                      A
 Frequencies --    800.1243               815.5749               866.0618
 Red. masses --      3.6821                 1.3913                 2.2729
 Frc consts  --      1.3889                 0.5453                 1.0044
 IR Inten    --      6.3440                 3.8116                40.1635

                     22                     23                     24
                      A                      A                      A
 Frequencies --    883.3586               892.3424               911.7526
 Red. masses --      1.5797                 1.9613                 2.8519
 Frc consts  --      0.7263                 0.9202                 1.3968
 IR Inten    --     22.3159                 0.4283                10.9594

                     25                     26                     27
                      A                      A                      A
 Frequencies --    950.6787               963.6266               984.5080
 Red. masses --      2.1823                 2.0700                 2.0338
 Frc consts  --      1.1621                 1.1325                 1.1615
 IR Inten    --     35.9420                47.3442                 5.9238

                     28                     29                     30
                      A                      A                      A
 Frequencies --   1009.8379              1024.2896              1034.8064
 Red. masses --      2.2470                 1.7832                 1.7527
 Frc consts  --      1.3501                 1.1023                 1.1058
 IR Inten    --      3.4693                 5.4029                 0.5852

                     31                     32                     33
                      A                      A                      A
 Frequencies --   1042.7443              1088.5251              1124.5538
 Red. masses --      1.8014                 1.9270                 3.7116
 Frc consts  --      1.1540                 1.3452                 2.7655
 IR Inten    --      2.0810                23.3835                40.8173

                     34                     35                     36
                      A                      A                      A
 Frequencies --   1143.9959              1161.5212              1204.7951
 Red. masses --      2.2150                 1.8312                 1.8802
 Frc consts  --      1.7080                 1.4556                 1.6080
 IR Inten    --     43.2627                39.9193                 8.7590

                     37                     38                     39
                      A                      A                      A
 Frequencies --   1235.3978              1252.1954              1273.5557
 Red. masses --      1.3106                 1.4441                 1.4843
 Frc consts  --      1.1786                 1.3341                 1.4185
 IR Inten    --      6.6997                 5.4830                23.3717

                     40                     41                     42
                      A                      A                      A
 Frequencies --   1277.6970              1311.7316              1323.3312
 Red. masses --      1.3065                 1.3338                 1.5959
 Frc consts  --      1.2566                 1.3521                 1.6466
 IR Inten    --      3.5202                 5.7310                53.1817

                     43                     44                     45
                      A                      A                      A
 Frequencies --   1335.9632              1353.2684              1360.7256
 Red. masses --      1.3662                 1.4328                 1.2811
 Frc consts  --      1.4366                 1.5460                 1.3976
 IR Inten    --      4.3947                26.9419                 8.7245

                     46                     47                     48
                      A                      A                      A
 Frequencies --   1386.3353              1415.1139              1442.8777
 Red. masses --      1.2513                 1.4846                 1.2098
 Frc consts  --      1.4169                 1.7517                 1.4840
 IR Inten    --      4.3258                22.7370                 2.3012

                     49                     50                     51
                      A                      A                      A
 Frequencies --   1446.4425              1488.6965              1502.2433
 Red. masses --      1.3683                 1.1779                 1.0990
 Frc consts  --      1.6866                 1.5381                 1.4612
 IR Inten    --     21.1670                17.8920                 6.4823

                     52                     53                     54
                      A                      A                      A
 Frequencies --   1516.6361              1518.9950              1528.1460
 Red. masses --      1.0608                 1.0874                 1.0635
 Frc consts  --      1.4376                 1.4783                 1.4632
 IR Inten    --      1.4357                 1.0651                 7.7118

                     55                     56                     57
                      A                      A                      A
 Frequencies --   1528.5092              1543.8236              1822.6450
 Red. masses --      1.0786                 1.1030                 9.4464
 Frc consts  --      1.4848                 1.5488                18.4893
 IR Inten    --      1.3186                 0.9951               130.6902

                     58                     59                     60
                      A                      A                      A
 Frequencies --   2916.3262              3026.4376              3038.8317
 Red. masses --      1.0840                 1.0742                 1.0805
 Frc consts  --      5.4319                 5.7968                 5.8789
 IR Inten    --    107.6108                33.2728                25.5922

                     61                     62                     63
                      A                      A                      A
 Frequencies --   3048.7994              3060.3837              3068.2592
 Red. masses --      1.0688                 1.0572                 1.0442
 Frc consts  --      5.8534                 5.8339                 5.7917
 IR Inten    --     50.4637                11.6749                47.6054

                     64                     65                     66
                      A                      A                      A
 Frequencies --   3068.8373              3102.6124              3116.8456
 Red. masses --      1.0575                 1.0983                 1.1034
 Frc consts  --      5.8679                 6.2292                 6.3154
 IR Inten    --     12.9252                24.2060                 9.3214

                     67                     68                     69
                      A                      A                      A
 Frequencies --   3117.7744              3127.9154              3134.0372
 Red. masses --      1.1023                 1.0974                 1.1030
 Frc consts  --      6.3132                 6.3258                 6.3830
 IR Inten    --     35.1355                33.7814                28.0850

                     70                     71                     72
                      A                      A                      A
 Frequencies --   3166.8002              3459.9464              3727.4076
 Red. masses --      1.1004                 1.0731                 1.0654
 Frc consts  --      6.5017                 7.5691                 8.7209
 IR Inten    --      9.9640                 1.6090                 5.4383

 - Thermochemistry -
 -------------------
 Temperature   298.150 Kelvin.  Pressure   1.00000 Atm.
 Atom     1 has atomic number  6 and mass  12.00000

 Molecular mass:   157.11028 amu.
 Principal axes and moments of inertia in atomic units:
                           1         2         3
     Eigenvalues --  1216.750802088.673992650.60316
           X            0.99826  -0.05866  -0.00601
           Y            0.05886   0.99742   0.04116
           Z            0.00358  -0.04145   0.99913
 This molecule is an asymmetric top.
 Rotational symmetry number  1.
 Warning -- assumption of classical behavior for rotation
           may cause significant error
 Rotational temperatures (Kelvin)      0.07118     0.04147     0.03268
 Rotational constants (GHZ):           1.48325     0.86406     0.68088
 Zero-point vibrational energy     602395.2 (Joules/Mol)
                                  143.97590 (Kcal/Mol)
 Warning -- explicit consideration of  17 degrees of freedom as
           vibrations may cause significant error
 Vibrational temperatures:     56.78    88.78   121.29   151.22   262.14
          (Kelvin)            286.42   323.74   354.29   451.81   457.31
                              507.61   523.44   604.12   695.05   772.03
                              836.13   867.16   933.75  1151.20  1173.43
                             1246.07  1270.96  1283.88  1311.81  1367.81
                             1386.44  1416.49  1452.93  1473.72  1488.86
                             1500.28  1566.14  1617.98  1645.95  1671.17
                             1733.43  1777.46  1801.63  1832.36  1838.32
                             1887.29  1903.98  1922.15  1947.05  1957.78
                             1994.63  2036.03  2075.98  2081.11  2141.90
                             2161.39  2182.10  2185.49  2198.66  2199.18
                             2221.22  2622.38  4195.94  4354.37  4372.20
                             4386.54  4403.21  4414.54  4415.37  4463.97
                             4484.45  4485.78  4500.37  4509.18  4556.32
                             4978.09  5362.91

 Zero-point correction=                           0.229440 (Hartree/Particle)
 Thermal correction to Energy=                    0.241196
 Thermal correction to Enthalpy=                  0.242140
 Thermal correction to Gibbs Free Energy=         0.191301
 Sum of electronic and zero-point Energies=           -518.867318
 Sum of electronic and thermal Energies=              -518.855562
 Sum of electronic and thermal Enthalpies=            -518.854618
 Sum of electronic and thermal Free Energies=         -518.905457

                     E (Thermal)             CV                S
                      KCal/Mol        Cal/Mol-Kelvin    Cal/Mol-Kelvin
 Total                  151.353             43.864            106.999
 Electronic               0.000              0.000              0.000
 Translational            0.889              2.981             41.065
 Rotational               0.889              2.981             30.289
 Vibrational            149.575             37.902             35.646
 Vibration     1          0.594              1.981              5.286
 Vibration     2          0.597              1.973              4.402
 Vibration     3          0.601              1.960              3.788
 Vibration     4          0.605              1.945              3.357
 Vibration     5          0.630              1.864              2.306
 Vibration     6          0.637              1.841              2.142
 Vibration     7          0.650              1.803              1.918
 Vibration     8          0.661              1.769              1.757
 Vibration     9          0.702              1.647              1.341
 Vibration    10          0.704              1.639              1.321
 Vibration    11          0.729              1.570              1.154
 Vibration    12          0.737              1.547              1.106
 Vibration    13          0.783              1.427              0.892
 Vibration    14          0.839              1.288              0.702
 Vibration    15          0.892              1.169              0.573
 Vibration    16          0.938              1.072              0.483
 Vibration    17          0.961              1.026              0.445

                           ! Non-Optimized Parameters !
 Normal termination of Gaussian 16 at Tue Dec  8 20:07:47 2020.

 ----------------------------------------------------------------------
 # B3LYP/6-311++G(d,p) empiricaldispersion=gd3bj scf=xqc pop=npa geom=c
 heck
 ----------------------------------------------------------------------

 --------------------------------------
 CID_65984253_JID_1405_Energie_neutraal
 --------------------------------------
 Structure from the checkpoint file:  "JID_1405.chk"
 Charge =  0 Multiplicity = 1

 SCF Done:  E(RB3LYP) =  -519.259070942     A.U. after   15 cycles
 Normal termination of Gaussian 16 at Tue Dec  8 20:10:50 2020.

 ----------------------------------------------------------------------
 # B3LYP/6-311++G(d,p) empiricaldispersion=gd3bj scf=xqc pop=npa geom=c
 heck
 ----------------------------------------------------------------------

 ------------------------------------
 CID_65984253_JID_1405_Energie_kation
 ------------------------------------
 Structure from the checkpoint file:  "JID_1405.chk"
 Charge =  1 Multiplicity = 2

 SCF Done:  E(UB3LYP) =  -518.940042484     A.U. after   28 cycles
 Normal termination of Gaussian 16 at Tue Dec  8 20:18:06 2020.
 Gaussian 16:  ES64L-G16RevA.03 25-Dec-2016

 ----------------------------------------------------------------------
 # B3LYP/6-311++G(d,p) empiricaldispersion=gd3bj scf=xqc pop=npa geom=c
 heck
 ----------------------------------------------------------------------

 -----------------------------------
 CID_65984253_JID_1405_Energie_anion
 -----------------------------------
 Structure from the checkpoint file:  "JID_1405.chk"
 Charge = -1 Multiplicity = 2

                         Standard orientation:
 ---------------------------------------------------------------------
 Center     Atomic      Atomic             Coordinates (Angstroms)
 Number     Number       Type             X           Y           Z
 ---------------------------------------------------------------------
      1          6           0        1.161458   -1.818235   -0.926033
      2          6           0        0.711776   -0.859475    0.175269
      3          6           0        1.888153    0.029740    0.667409
      4          6           0        2.392307    0.989626   -0.383805
      5          8           0        2.100945    2.166464   -0.422808
      6          6           0       -0.469292    0.009224   -0.302805
      7          6           0       -1.001280    1.053359    0.719669
      8          6           0       -2.520780    1.139453    0.425444
      9          6           0       -2.747557    0.104350   -0.711522
     10          7           0       -1.613832   -0.826701   -0.685271
     11          8           0        0.299370   -1.703428    1.259317
     12          1           0        1.488702   -1.266558   -1.813159
     13          1           0        0.327279   -2.458823   -1.217381
     14          1           0        1.987735   -2.441883   -0.570735
     15          1           0        1.567173    0.619947    1.531954
     16          1           0        2.699769   -0.640271    0.975159
     17          1           0        3.053252    0.548998   -1.162097
     18          1           0       -0.144834    0.552377   -1.200770
     19          1           0       -0.838601    0.711086    1.750774
     20          1           0       -0.481414    2.009400    0.618769
     21          1           0       -3.103676    0.874448    1.313959
     22          1           0       -2.828973    2.146454    0.127423
     23          1           0       -3.691823   -0.440862   -0.623648
     24          1           0       -2.751084    0.612275   -1.684195
     25          1           0       -1.747515   -1.502491    0.068813
     26          1           0        0.069601   -1.129732    2.008193
 ---------------------------------------------------------------------

 SCF Done:  E(UB3LYP) =  -519.248929800     A.U. after   33 cycles
 SCF Done:  E(UB3LYP) =  -519.248929800     a.u. after    1 cycles

 The electronic state is 2-A.
 Alpha  occ. eigenvalues --  -19.00709 -18.97508 -14.17985 -10.11953 -10.10668
 Alpha  occ. eigenvalues --  -10.07941 -10.07862 -10.05268 -10.05168 -10.04756
 Alpha  occ. eigenvalues --  -10.04538  -0.91376  -0.90788  -0.80592  -0.67921
 Alpha  occ. eigenvalues --   -0.64369  -0.60520  -0.59394  -0.50532  -0.47804
 Alpha  occ. eigenvalues --   -0.46558  -0.43440  -0.40905  -0.36965  -0.35960
 Alpha  occ. eigenvalues --   -0.33672  -0.33204  -0.32229  -0.31458  -0.29422
 Alpha  occ. eigenvalues --   -0.28865  -0.27176  -0.26560  -0.25407  -0.24934
 Alpha  occ. eigenvalues --   -0.23625  -0.23112  -0.22798  -0.21191  -0.20353
 Alpha  occ. eigenvalues --   -0.16731  -0.12227  -0.12127   0.05220
 Alpha virt. eigenvalues --    0.07092   0.08445   0.08528   0.09798   0.10377
 Alpha virt. eigenvalues --    0.10485   0.11207   0.12003   0.12696   0.13196
 Alpha virt. eigenvalues --    0.13661   0.14354   0.15014   0.15814   0.16760

  Beta  occ. eigenvalues --  -19.00666 -18.97198 -14.17975 -10.11919 -10.10362
  Beta  occ. eigenvalues --  -10.07928 -10.07858 -10.05249 -10.05185 -10.04729
  Beta  occ. eigenvalues --  -10.04513  -0.91270  -0.90216  -0.80566  -0.67799
  Beta  occ. eigenvalues --   -0.64318  -0.60397  -0.59284  -0.50405  -0.47696
  Beta  occ. eigenvalues --   -0.46266  -0.43063  -0.40830  -0.36810  -0.35915
  Beta  occ. eigenvalues --   -0.33435  -0.33107  -0.32151  -0.31311  -0.29309
  Beta  occ. eigenvalues --   -0.28617  -0.27123  -0.25981  -0.25084  -0.24881
  Beta  occ. eigenvalues --   -0.23331  -0.22806  -0.22589  -0.21087  -0.20220
  Beta  occ. eigenvalues --   -0.16587  -0.12199  -0.11885
  Beta virt. eigenvalues --    0.07799   0.08601   0.09280   0.09938   0.10314
  Beta virt. eigenvalues --    0.10823   0.10895   0.11241   0.12289   0.12930
  Beta virt. eigenvalues --    0.13602   0.13907   0.14483   0.15091   0.16001

 Mulliken charges and spin densities:
               1          2
     1  C    0.266882  -0.628540
     2  C    0.786098  -1.021014
     3  C    0.055649  -0.076473
     4  C   -0.345091   0.295597
     5  O   -0.302124   0.091710
     6  C   -1.846367   1.377469
     7  C    0.443016  -0.811363
     8  C    0.620251  -1.016445
     9  C    0.026942  -0.311431
    10  N    0.147463  -0.008423
    11  O   -0.146339   0.004678
    12  H   -0.038166   0.177940
    13  H    0.054651   0.101458
    14  H    0.005825   0.146659
    15  H   -0.138981   0.294291
    16  H   -0.037591   0.201904
    17  H    0.042119  -0.012130
    18  H    0.090415   0.124237
    19  H   -0.350083   0.474970
    20  H    0.308628  -0.118900
    21  H   -0.363685   0.503173
    22  H   -0.014394   0.128442
    23  H   -0.350201   0.523245
    24  H    0.174784  -0.055570
    25  H    0.267047  -0.021522
    26  H   -0.356746   0.636036
 Sum of Mulliken charges =  -1.00000   1.00000

 Dipole moment (field-independent basis, Debye):
    X=              1.0017    Y=             -0.0834    Z=             -3.8880  Tot=              4.0158
 Quadrupole moment (field-independent basis, Debye-Ang):
   XX=           -110.2537   YY=           -102.0122   ZZ=           -101.4658
   XY=             -6.4910   XZ=              4.5134   YZ=              2.5726

 Summary of Natural Population Analysis:

                                       Natural Population
                Natural  -----------------------------------------------
    Atom  No    Charge         Core      Valence    Rydberg      Total
 -----------------------------------------------------------------------
      C    1   -0.29008      0.99961     2.28406    0.00641     3.29008
      C    2    0.13882      0.99949     1.84499    0.01670     2.86118
      C    3   -0.25217      0.99957     2.24109    0.01151     3.25217
      C    4    0.25923      0.99973     1.72115    0.01988     2.74077
      O    5   -0.26031      0.99988     3.25374    0.00669     4.26031
      C    6   -0.02186      0.99954     2.00886    0.01346     3.02186
      C    7   -0.20444      0.99962     2.19544    0.00938     3.20444
      C    8   -0.20219      0.99965     2.19469    0.00786     3.20219
      C    9   -0.08910      0.99965     2.07854    0.01091     3.08910
      N   10   -0.34028      0.99975     2.82912    0.01141     3.84028
      O   11   -0.38222      0.99989     3.37514    0.00720     4.38222
      H   12    0.09996      0.00000     0.39906    0.00097     0.40004
      H   13    0.10941      0.00000     0.38947    0.00113     0.39059
      H   14    0.09977      0.00000     0.39925    0.00099     0.40023
      H   15    0.10906      0.00000     0.38949    0.00145     0.39094
      H   16    0.10734      0.00000     0.39135    0.00131     0.39266
      H   17    0.03425      0.00000     0.46337    0.00238     0.46575
      H   18    0.09702      0.00000     0.40147    0.00151     0.40298
      H   19    0.09396      0.00000     0.40330    0.00274     0.40604
      H   20    0.11016      0.00000     0.38866    0.00118     0.38984
      H   21    0.09921      0.00000     0.39837    0.00242     0.40079
      H   22    0.09452      0.00000     0.40453    0.00095     0.40548
      H   23    0.09451      0.00000     0.40444    0.00105     0.40549
      H   24    0.08380      0.00000     0.41505    0.00115     0.41620
      H   25    0.17634      0.00000     0.32074    0.00291     0.32366
      H   26    0.23529      0.00000     0.25520    0.00951     0.26471
 =======================================================================
   * Total *   -0.00000     10.99638    31.85057    0.15305    43.00000

 Normal termination of Gaussian 16 at Tue Dec  8 20:27:54 2020.
