 Gaussian 16, Revision A.03,

 -----------------------------------------------------------
 # opt freq B3LYP/6-31G(d) empiricaldispersion=gd3bj scf=xqc
 -----------------------------------------------------------

 -------------------------------
 CID_130586157_JID_4636_neutraal
 -------------------------------
 Symbolic Z-matrix:
 Charge =  0 Multiplicity = 1

 SCF Done:  E(RB3LYP) =  -665.500075890     A.U. after   16 cycles
 SCF Done:  E(RB3LYP) =  -665.502666081     A.U. after   14 cycles
 SCF Done:  E(RB3LYP) =  -665.503795360     A.U. after   14 cycles
 SCF Done:  E(RB3LYP) =  -665.507616705     A.U. after   14 cycles
 SCF Done:  E(RB3LYP) =  -665.509224591     A.U. after   13 cycles
 SCF Done:  E(RB3LYP) =  -665.510094665     A.U. after   14 cycles
 SCF Done:  E(RB3LYP) =  -665.510860898     A.U. after   12 cycles
 SCF Done:  E(RB3LYP) =  -665.511285997     A.U. after   13 cycles
 SCF Done:  E(RB3LYP) =  -665.511568372     A.U. after   12 cycles
 SCF Done:  E(RB3LYP) =  -665.511635222     A.U. after   12 cycles
 SCF Done:  E(RB3LYP) =  -665.511765603     A.U. after   11 cycles
 SCF Done:  E(RB3LYP) =  -665.511772334     A.U. after   10 cycles
 SCF Done:  E(RB3LYP) =  -665.511773100     A.U. after    9 cycles
 SCF Done:  E(RB3LYP) =  -665.511773348     A.U. after    8 cycles
 SCF Done:  E(RB3LYP) =  -665.511773559     A.U. after    8 cycles
 SCF Done:  E(RB3LYP) =  -665.511773653     A.U. after    7 cycles
 Optimization completed.
    -- Stationary point found.
 Normal termination of Gaussian 16 at Thu Dec 10 10:21:42 2020.

 --------------------------------------------------------------------
 #N Geom=AllCheck Guess=TCheck SCRF=Check GenChk RB3LYP/6-31G(d) Freq
 --------------------------------------------------------------------

 Structure from the checkpoint file:  "JID_4636.chk"
 -------------------------------
 CID_130586157_JID_4636_neutraal
 -------------------------------
 Charge =  0 Multiplicity = 1

 SCF Done:  E(RB3LYP) =  -665.511773653     A.U. after    1 cycles

  Exact polarizability: 152.275 -11.204 121.735  -2.988   3.838  79.650
 Approx polarizability: 214.540 -27.512 197.283 -14.004  11.451 122.610

                      1                      2                      3
                      A                      A                      A
 Frequencies --     35.6038                44.3916                53.4853
 Red. masses --      5.7580                 5.2927                 4.1559
 Frc consts  --      0.0043                 0.0061                 0.0070
 IR Inten    --      7.0684                 1.6984                 0.2945

                      4                      5                      6
                      A                      A                      A
 Frequencies --     78.9025                95.2515               139.4094
 Red. masses --      7.3481                 3.5774                 3.4609
 Frc consts  --      0.0270                 0.0191                 0.0396
 IR Inten    --      2.2834                 0.7914                 3.4943

                      7                      8                      9
                      A                      A                      A
 Frequencies --    175.8121               206.1151               282.5923
 Red. masses --      2.4143                 3.1274                 2.6981
 Frc consts  --      0.0440                 0.0783                 0.1269
 IR Inten    --      5.4701                 0.8042                 8.7557

                     10                     11                     12
                      A                      A                      A
 Frequencies --    296.3851               311.2160               326.5300
 Red. masses --      1.7390                 1.8790                 5.0273
 Frc consts  --      0.0900                 0.1072                 0.3158
 IR Inten    --     17.0023                10.7444                 5.4648

                     13                     14                     15
                      A                      A                      A
 Frequencies --    342.0762               366.9242               466.1567
 Red. masses --      2.4191                 4.9428                 3.0280
 Frc consts  --      0.1668                 0.3921                 0.3877
 IR Inten    --      0.3814                 3.1981                 4.9779

                     16                     17                     18
                      A                      A                      A
 Frequencies --    492.7860               509.9608               531.4282
 Red. masses --      4.0065                 2.6600                 1.9605
 Frc consts  --      0.5732                 0.4076                 0.3262
 IR Inten    --      9.2439                 8.1470                27.1319

                     19                     20                     21
                      A                      A                      A
 Frequencies --    550.6723               610.0718               632.8734
 Red. masses --      3.6904                 3.1395                 3.3582
 Frc consts  --      0.6593                 0.6884                 0.7925
 IR Inten    --     18.1152                29.9171                 7.8628

                     22                     23                     24
                      A                      A                      A
 Frequencies --    641.2545               676.6118               751.2167
 Red. masses --      3.2511                 2.7187                 2.1313
 Frc consts  --      0.7877                 0.7333                 0.7087
 IR Inten    --     24.5052                32.9377                 4.6790

                     25                     26                     27
                      A                      A                      A
 Frequencies --    777.1510               835.0454               859.5805
 Red. masses --      6.2429                 2.5637                 2.1464
 Frc consts  --      2.2215                 1.0532                 0.9344
 IR Inten    --     10.4568                21.3041                24.2206

                     28                     29                     30
                      A                      A                      A
 Frequencies --    900.3468               901.1960               930.7555
 Red. masses --      1.7105                 2.2377                 2.0202
 Frc consts  --      0.8170                 1.0707                 1.0311
 IR Inten    --     25.9167                14.8640                49.9498

                     31                     32                     33
                      A                      A                      A
 Frequencies --    952.1352               974.1693               988.4582
 Red. masses --      1.8396                 3.0446                 1.7472
 Frc consts  --      0.9826                 1.7024                 1.0058
 IR Inten    --      6.2604                29.0797                 3.7830

                     34                     35                     36
                      A                      A                      A
 Frequencies --   1031.3528              1042.7449              1073.2696
 Red. masses --      1.5236                 1.7217                 2.1838
 Frc consts  --      0.9549                 1.1029                 1.4821
 IR Inten    --      6.8530                 4.2557                15.2730

                     37                     38                     39
                      A                      A                      A
 Frequencies --   1083.0633              1107.6894              1161.2084
 Red. masses --      1.8740                 2.0787                 2.1807
 Frc consts  --      1.2952                 1.5027                 1.7325
 IR Inten    --     23.8858                 6.9332                19.1979

                     40                     41                     42
                      A                      A                      A
 Frequencies --   1167.0022              1215.7022              1219.2524
 Red. masses --      1.4459                 1.5782                 1.8262
 Frc consts  --      1.1602                 1.3743                 1.5995
 IR Inten    --     18.7458                 4.1747                48.5540

                     43                     44                     45
                      A                      A                      A
 Frequencies --   1236.0665              1305.5420              1324.8513
 Red. masses --      1.6285                 1.7684                 1.1785
 Frc consts  --      1.4660                 1.7759                 1.2187
 IR Inten    --     38.6279               128.3383                 9.8014

                     46                     47                     48
                      A                      A                      A
 Frequencies --   1338.5059              1342.6623              1395.2233
 Red. masses --      1.8598                 1.4577                 1.4422
 Frc consts  --      1.9631                 1.5483                 1.6541
 IR Inten    --     12.6085                53.7393                11.4180

                     49                     50                     51
                      A                      A                      A
 Frequencies --   1407.2461              1420.4302              1433.9761
 Red. masses --      1.4029                 1.7721                 1.4224
 Frc consts  --      1.6369                 2.1066                 1.7233
 IR Inten    --     10.3721                93.4280                41.8787

                     52                     53                     54
                      A                      A                      A
 Frequencies --   1446.6723              1451.2196              1505.3656
 Red. masses --      1.4516                 1.0846                 1.3121
 Frc consts  --      1.7900                 1.3459                 1.7518
 IR Inten    --      3.6478                13.0030                14.1960

                     55                     56                     57
                      A                      A                      A
 Frequencies --   1507.2019              1515.3499              1549.0747
 Red. masses --      1.5052                 1.1399                 1.0833
 Frc consts  --      2.0145                 1.5421                 1.5315
 IR Inten    --     52.0885                34.9687                 3.8298

                     58                     59                     60
                      A                      A                      A
 Frequencies --   1624.2409              1693.0263              1731.9363
 Red. masses --      9.0891                 1.0874                 6.5392
 Frc consts  --     14.1277                 1.8364                11.5568
 IR Inten    --    249.9270                30.7488                 5.7817

                     61                     62                     63
                      A                      A                      A
 Frequencies --   1781.7321              1817.3916              2986.0744
 Red. masses --      7.7379                12.3434                 1.0734
 Frc consts  --     14.4730                24.0206                 5.6393
 IR Inten    --    422.2372               209.5091                96.0998

                     64                     65                     66
                      A                      A                      A
 Frequencies --   3000.5285              3043.4106              3061.7623
 Red. masses --      1.0726                 1.0687                 1.0729
 Frc consts  --      5.6894                 5.8322                 5.9261
 IR Inten    --      4.6708                30.1910                14.9441

                     67                     68                     69
                      A                      A                      A
 Frequencies --   3087.4701              3088.3928              3100.7097
 Red. masses --      1.0890                 1.0872                 1.0891
 Frc consts  --      6.1162                 6.1096                 6.1696
 IR Inten    --     26.6777                 6.7416                40.0694

                     70                     71                     72
                      A                      A                      A
 Frequencies --   3113.3699              3123.8905              3172.7564
 Red. masses --      1.0953                 1.0976                 1.0896
 Frc consts  --      6.2551                 6.3109                 6.4624
 IR Inten    --     11.5723               103.5924                14.8223

                     73                     74                     75
                      A                      A                      A
 Frequencies --   3457.0353              3541.5568              3557.7673
 Red. masses --      1.0504                 1.0918                 1.0748
 Frc consts  --      7.3965                 8.0679                 8.0153
 IR Inten    --      0.6476                 0.0381                24.3847

 - Thermochemistry -
 -------------------
 Temperature   298.150 Kelvin.  Pressure   1.00000 Atm.
 Atom     1 has atomic number  6 and mass  12.00000

 Molecular mass:   195.10078 amu.
 Principal axes and moments of inertia in atomic units:
                           1         2         3
     Eigenvalues --  1462.028094740.441335724.37080
           X            0.99977   0.02046   0.00675
           Y           -0.02039   0.99974  -0.01052
           Z           -0.00697   0.01038   0.99992
 This molecule is an asymmetric top.
 Rotational symmetry number  1.
 Warning -- assumption of classical behavior for rotation
           may cause significant error
 Rotational temperatures (Kelvin)      0.05924     0.01827     0.01513
 Rotational constants (GHZ):           1.23441     0.38071     0.31527
 Zero-point vibrational energy     586171.9 (Joules/Mol)
                                  140.09845 (Kcal/Mol)
 Warning -- explicit consideration of  20 degrees of freedom as
           vibrations may cause significant error
 Vibrational temperatures:     51.23    63.87    76.95   113.52   137.05
          (Kelvin)            200.58   252.95   296.55   406.59   426.43
                              447.77   469.80   492.17   527.92   670.70
                              709.01   733.72   764.61   792.29   877.76
                              910.56   922.62   973.49  1080.83  1118.15
                             1201.44  1236.74  1295.40  1296.62  1339.15
                             1369.91  1401.61  1422.17  1483.89  1500.28
                             1544.20  1558.29  1593.72  1670.72  1679.06
                             1749.12  1754.23  1778.42  1878.38  1906.17
                             1925.81  1931.79  2007.42  2024.71  2043.68
                             2063.17  2081.44  2087.98  2165.89  2168.53
                             2180.25  2228.77  2336.92  2435.89  2491.87
                             2563.52  2614.82  4296.30  4317.09  4378.79
                             4405.19  4442.18  4443.51  4461.23  4479.44
                             4494.58  4564.89  4973.90  5095.51  5118.83

 Zero-point correction=                           0.223261 (Hartree/Particle)
 Thermal correction to Energy=                    0.236911
 Thermal correction to Enthalpy=                  0.237855
 Thermal correction to Gibbs Free Energy=         0.181457
 Sum of electronic and zero-point Energies=           -665.288513
 Sum of electronic and thermal Energies=              -665.274862
 Sum of electronic and thermal Enthalpies=            -665.273918
 Sum of electronic and thermal Free Energies=         -665.330317

                     E (Thermal)             CV                S
                      KCal/Mol        Cal/Mol-Kelvin    Cal/Mol-Kelvin
 Total                  148.664             50.572            118.700
 Electronic               0.000              0.000              0.000
 Translational            0.889              2.981             41.710
 Rotational               0.889              2.981             32.051
 Vibrational            146.887             44.610             44.939
 Vibration     1          0.594              1.982              5.490
 Vibration     2          0.595              1.980              5.053
 Vibration     3          0.596              1.976              4.684
 Vibration     4          0.600              1.963              3.918
 Vibration     5          0.603              1.953              3.549
 Vibration     6          0.615              1.914              2.812
 Vibration     7          0.628              1.872              2.372
 Vibration     8          0.641              1.831              2.078
 Vibration     9          0.682              1.706              1.518
 Vibration    10          0.690              1.680              1.437
 Vibration    11          0.700              1.652              1.356
 Vibration    12          0.710              1.622              1.277
 Vibration    13          0.721              1.591              1.202
 Vibration    14          0.740              1.540              1.093
 Vibration    15          0.824              1.325              0.748
 Vibration    16          0.848              1.266              0.676
 Vibration    17          0.865              1.228              0.634
 Vibration    18          0.886              1.180              0.584
 Vibration    19          0.906              1.138              0.543
 Vibration    20          0.969              1.010              0.433

                           ! Non-Optimized Parameters !
 Normal termination of Gaussian 16 at Thu Dec 10 10:28:44 2020.

 ----------------------------------------------------------------------
 # B3LYP/6-311++G(d,p) empiricaldispersion=gd3bj scf=xqc pop=npa geom=c
 heck
 ----------------------------------------------------------------------

 ---------------------------------------
 CID_130586157_JID_4636_Energie_neutraal
 ---------------------------------------
 Structure from the checkpoint file:  "JID_4636.chk"
 Charge =  0 Multiplicity = 1

 SCF Done:  E(RB3LYP) =  -665.711954659     A.U. after   16 cycles
 Normal termination of Gaussian 16 at Thu Dec 10 10:32:11 2020.

 ----------------------------------------------------------------------
 # B3LYP/6-311++G(d,p) empiricaldispersion=gd3bj scf=xqc pop=npa geom=c
 heck
 ----------------------------------------------------------------------

 -------------------------------------
 CID_130586157_JID_4636_Energie_kation
 -------------------------------------
 Structure from the checkpoint file:  "JID_4636.chk"
 Charge =  1 Multiplicity = 2

 SCF Done:  E(UB3LYP) =  -665.393732460     A.U. after   31 cycles
 Normal termination of Gaussian 16 at Thu Dec 10 10:42:23 2020.
 Gaussian 16:  ES64L-G16RevA.03 25-Dec-2016

 ----------------------------------------------------------------------
 # B3LYP/6-311++G(d,p) empiricaldispersion=gd3bj scf=xqc pop=npa geom=c
 heck
 ----------------------------------------------------------------------

 ------------------------------------
 CID_130586157_JID_4636_Energie_anion
 ------------------------------------
 Structure from the checkpoint file:  "JID_4636.chk"
 Charge = -1 Multiplicity = 2

                         Standard orientation:
 ---------------------------------------------------------------------
 Center     Atomic      Atomic             Coordinates (Angstroms)
 Number     Number       Type             X           Y           Z
 ---------------------------------------------------------------------
      1          6           0       -2.149715    1.346806   -0.283656
      2          6           0       -0.836442    0.642281   -0.416517
      3          6           0       -0.807287   -0.703028   -0.354154
      4          6           0       -2.080174   -1.429611   -0.260498
      5          7           0       -3.246180   -0.922808   -0.055892
      6          6           0       -3.312622    0.476082    0.183374
      7          8           0       -4.285566    0.954557    0.726220
      8          7           0        0.351323   -1.504335   -0.441298
      9          6           0        1.615238   -1.350284    0.098923
     10          8           0        2.505857   -2.120507   -0.235383
     11          6           0        1.850919   -0.277505    1.150170
     12          6           0        3.167273    0.468222    0.890049
     13          6           0        3.206701    1.214274   -0.444134
     14          7           0        2.112951    2.195068   -0.545968
     15          1           0       -2.428203    1.769238   -1.264383
     16          1           0       -2.086267    2.210134    0.388465
     17          1           0        0.070266    1.229367   -0.571635
     18          1           0       -2.031470   -2.515902   -0.392461
     19          1           0        0.293381   -2.335747   -1.020987
     20          1           0        1.014705    0.414591    1.232782
     21          1           0        1.927681   -0.811188    2.106352
     22          1           0        3.343656    1.173223    1.713733
     23          1           0        3.988038   -0.255492    0.901562
     24          1           0        4.205815    1.664723   -0.565357
     25          1           0        3.084441    0.493601   -1.260669
     26          1           0        2.235316    2.913731    0.167816
     27          1           0        2.170308    2.678421   -1.441146
 ---------------------------------------------------------------------

 SCF Done:  E(UB3LYP) =  -665.744852590     A.U. after   27 cycles

 The electronic state is 2-A.
 Alpha  occ. eigenvalues --  -18.97120 -18.92428 -14.21892 -14.21233 -14.11922
 Alpha  occ. eigenvalues --  -10.15489 -10.10677 -10.09279 -10.07879 -10.06758
 Alpha  occ. eigenvalues --  -10.05458 -10.03470 -10.02944 -10.00659  -0.92480
 Alpha  occ. eigenvalues --   -0.87227  -0.80366  -0.80159  -0.74556  -0.68524
 Alpha  occ. eigenvalues --   -0.63940  -0.59820  -0.57528  -0.51536  -0.48372
 Alpha  occ. eigenvalues --   -0.46194  -0.42575  -0.41065  -0.39465  -0.38116
 Alpha  occ. eigenvalues --   -0.37547  -0.34184  -0.32865  -0.31928  -0.31279
 Alpha  occ. eigenvalues --   -0.30374  -0.29746  -0.28830  -0.26176  -0.25825
 Alpha  occ. eigenvalues --   -0.25359  -0.24617  -0.23903  -0.23569  -0.21662
 Alpha  occ. eigenvalues --   -0.19996  -0.16107  -0.15032  -0.14698  -0.11075
 Alpha  occ. eigenvalues --   -0.08663  -0.07563   0.03266
 Alpha virt. eigenvalues --    0.05826   0.08111   0.08735   0.09559   0.10992
 Alpha virt. eigenvalues --    0.11399   0.11646   0.12084   0.12269   0.12976
 Alpha virt. eigenvalues --    0.14006   0.14612   0.15705   0.16041   0.16343

  Beta  occ. eigenvalues --  -18.97087 -18.92172 -14.21906 -14.21235 -14.11659
  Beta  occ. eigenvalues --  -10.15453 -10.10676 -10.09156 -10.07874 -10.06752
  Beta  occ. eigenvalues --  -10.05544 -10.03012 -10.02999 -10.00157  -0.92421
  Beta  occ. eigenvalues --   -0.86752  -0.80313  -0.80151  -0.73884  -0.68507
  Beta  occ. eigenvalues --   -0.63355  -0.59753  -0.57191  -0.51464  -0.47703
  Beta  occ. eigenvalues --   -0.45677  -0.42314  -0.41056  -0.39254  -0.38067
  Beta  occ. eigenvalues --   -0.37489  -0.34128  -0.32519  -0.31848  -0.30854
  Beta  occ. eigenvalues --   -0.29950  -0.29451  -0.28618  -0.26000  -0.25712
  Beta  occ. eigenvalues --   -0.25221  -0.24460  -0.23669  -0.23174  -0.20353
  Beta  occ. eigenvalues --   -0.19034  -0.16058  -0.14657  -0.13802  -0.10423
  Beta  occ. eigenvalues --   -0.07292  -0.07054
  Beta virt. eigenvalues --    0.05775   0.08056   0.08678   0.09504   0.10087
  Beta virt. eigenvalues --    0.10953   0.11543   0.11840   0.12073   0.12232
  Beta virt. eigenvalues --    0.13282   0.14053   0.14616   0.15768   0.16107

 Mulliken charges and spin densities:
               1          2
     1  C   -0.534931  -0.075363
     2  C    0.297806   0.411545
     3  C   -0.215716  -0.022958
     4  C   -0.502798   0.316885
     5  N   -0.158466   0.118995
     6  C   -0.059000   0.094521
     7  O   -0.374759   0.091048
     8  N   -0.194998   0.026749
     9  C   -0.186260  -0.062928
    10  O   -0.348227   0.010268
    11  C    0.219546   0.028671
    12  C   -0.555916  -0.020688
    13  C   -0.341666   0.006348
    14  N   -0.432239   0.000514
    15  H    0.106357   0.067782
    16  H    0.135476   0.023693
    17  H    0.405915  -0.025583
    18  H    0.115734  -0.026302
    19  H    0.274037  -0.003658
    20  H    0.165379   0.001344
    21  H    0.182077   0.007359
    22  H    0.132668   0.006359
    23  H    0.157180   0.001430
    24  H    0.119788   0.013847
    25  H    0.180577   0.004631
    26  H    0.194640   0.001964
    27  H    0.217797   0.003524
 Sum of Mulliken charges =  -1.00000   1.00000

 Dipole moment (field-independent basis, Debye):
    X=             11.1269    Y=              3.7141    Z=             -0.9659  Tot=             11.7702
 Quadrupole moment (field-independent basis, Debye-Ang):
   XX=           -158.7950   YY=            -97.0304   ZZ=            -88.4368
   XY=             14.1210   XZ=              8.3445   YZ=             -2.2578

 Summary of Natural Population Analysis:

                                       Natural Population
                Natural  -----------------------------------------------
    Atom  No    Charge         Core      Valence    Rydberg      Total
 -----------------------------------------------------------------------
      C    1   -0.25820      0.99959     2.25048    0.00813     3.25820
      C    2    0.01340      0.99950     1.97915    0.00796     2.98660
      C    3    0.00064      0.99941     1.99007    0.00987     2.99936
      C    4    0.14470      0.99961     1.83970    0.01599     2.85530
      N    5   -0.24503      0.99966     2.73109    0.01428     3.74503
      C    6    0.35437      0.99968     1.62131    0.02464     2.64563
      O    7   -0.28905      0.99987     3.28048    0.00870     4.28905
      N    8   -0.30574      0.99964     2.79452    0.01158     3.80574
      C    9    0.34510      0.99969     1.63194    0.02327     2.65490
      O   10   -0.34109      0.99988     3.33464    0.00658     4.34109
      C   11   -0.23663      0.99958     2.22948    0.00756     3.23663
      C   12   -0.19084      0.99963     2.18315    0.00806     3.19084
      C   13   -0.09076      0.99964     2.08218    0.00894     3.09076
      N   14   -0.41891      0.99978     2.90916    0.00997     3.91891
      H   15    0.11668      0.00000     0.38195    0.00137     0.38332
      H   16    0.11102      0.00000     0.38750    0.00148     0.38898
      H   17    0.10386      0.00000     0.39503    0.00111     0.39614
      H   18    0.06417      0.00000     0.43370    0.00214     0.43583
      H   19    0.19042      0.00000     0.30744    0.00213     0.30958
      H   20    0.11876      0.00000     0.37992    0.00132     0.38124
      H   21    0.10660      0.00000     0.39234    0.00106     0.39340
      H   22    0.08860      0.00000     0.41026    0.00114     0.41140
      H   23    0.10613      0.00000     0.39256    0.00130     0.39387
      H   24    0.07401      0.00000     0.42438    0.00161     0.42599
      H   25    0.09639      0.00000     0.40246    0.00116     0.40361
      H   26    0.16847      0.00000     0.32993    0.00159     0.33153
      H   27    0.17292      0.00000     0.32560    0.00148     0.32708
 =======================================================================
   * Total *    0.00000     13.99516    37.82040    0.18443    52.00000

 Normal termination of Gaussian 16 at Thu Dec 10 10:50:37 2020.
