 Gaussian 16, Revision A.03,

 -----------------------------------------------------------
 # opt freq B3LYP/6-31G(d) empiricaldispersion=gd3bj scf=xqc
 -----------------------------------------------------------

 -------------------------------
 CID_151365713_JID_2259_neutraal
 -------------------------------
 Symbolic Z-matrix:
 Charge =  0 Multiplicity = 1

 SCF Done:  E(RB3LYP) =  -948.034890701     A.U. after   15 cycles
 SCF Done:  E(RB3LYP) =  -948.048775977     A.U. after   14 cycles
 SCF Done:  E(RB3LYP) =  -948.050435659     A.U. after   13 cycles
 SCF Done:  E(RB3LYP) =  -948.051011559     A.U. after   13 cycles
 SCF Done:  E(RB3LYP) =  -948.051177272     A.U. after   12 cycles
 SCF Done:  E(RB3LYP) =  -948.051199998     A.U. after   11 cycles
 SCF Done:  E(RB3LYP) =  -948.051208030     A.U. after   10 cycles
 SCF Done:  E(RB3LYP) =  -948.051210239     A.U. after    9 cycles
 SCF Done:  E(RB3LYP) =  -948.051210825     A.U. after    8 cycles
 SCF Done:  E(RB3LYP) =  -948.051211431     A.U. after    8 cycles
 SCF Done:  E(RB3LYP) =  -948.052179433     A.U. after   13 cycles
 SCF Done:  E(RB3LYP) =  -948.052196398     A.U. after   12 cycles
 SCF Done:  E(RB3LYP) =  -948.052198285     A.U. after    9 cycles
 SCF Done:  E(RB3LYP) =  -948.052198903     A.U. after    9 cycles
 SCF Done:  E(RB3LYP) =  -948.052198976     A.U. after    8 cycles
 Optimization completed.
    -- Stationary point found.
 Normal termination of Gaussian 16 at Wed Dec  9 17:05:35 2020.

 --------------------------------------------------------------------
 #N Geom=AllCheck Guess=TCheck SCRF=Check GenChk RB3LYP/6-31G(d) Freq
 --------------------------------------------------------------------

 Structure from the checkpoint file:  "JID_2259.chk"
 -------------------------------
 CID_151365713_JID_2259_neutraal
 -------------------------------
 Charge =  0 Multiplicity = 1

 SCF Done:  E(RB3LYP) =  -948.052198976     A.U. after    1 cycles

  Exact polarizability: 114.397 -14.596 106.129   4.370  -6.775  87.655
 Approx polarizability: 165.511 -37.506 179.842  21.195 -30.437 155.249

                      1                      2                      3
                      A                      A                      A
 Frequencies --     19.7123                47.3471               112.0858
 Red. masses --      9.1850                 4.5234                 2.9815
 Frc consts  --      0.0021                 0.0060                 0.0221
 IR Inten    --      0.3519                 0.2339                 0.9578

                      4                      5                      6
                      A                      A                      A
 Frequencies --    148.6330               157.9566               203.9355
 Red. masses --      4.1868                 6.5853                 4.9097
 Frc consts  --      0.0545                 0.0968                 0.1203
 IR Inten    --      0.5195                 1.9528                 0.2209

                      7                      8                      9
                      A                      A                      A
 Frequencies --    214.4347               253.7414               256.3919
 Red. masses --      1.2516                 1.5233                 2.9308
 Frc consts  --      0.0339                 0.0578                 0.1135
 IR Inten    --      0.1409                 0.1376                 0.9626

                     10                     11                     12
                      A                      A                      A
 Frequencies --    277.2097               286.5717               310.8435
 Red. masses --      3.6075                 1.5049                 4.4883
 Frc consts  --      0.1633                 0.0728                 0.2555
 IR Inten    --      8.4656                 0.9252                 1.4080

                     13                     14                     15
                      A                      A                      A
 Frequencies --    374.0394               398.0383               401.6169
 Red. masses --      3.5939                 3.0522                 9.8522
 Frc consts  --      0.2962                 0.2849                 0.9363
 IR Inten    --      2.9339                 5.1030                 2.6351

                     16                     17                     18
                      A                      A                      A
 Frequencies --    447.4751               506.8859               562.2696
 Red. masses --      4.3841                 3.6369                 6.4879
 Frc consts  --      0.5172                 0.5506                 1.2085
 IR Inten    --      3.2334                13.8705                43.1917

                     19                     20                     21
                      A                      A                      A
 Frequencies --    565.6862               608.6079               690.1071
 Red. masses --     14.0250                 7.8486                 2.7392
 Frc consts  --      2.6443                 1.7128                 0.7686
 IR Inten    --     10.9023               191.6642                18.7797

                     22                     23                     24
                      A                      A                      A
 Frequencies --    702.4930               794.6707               825.8146
 Red. masses --     11.2889                 1.5160                 2.5851
 Frc consts  --      3.2824                 0.5641                 1.0387
 IR Inten    --     50.7548                 7.0989                 5.9891

                     25                     26                     27
                      A                      A                      A
 Frequencies --    901.8973               917.3299               933.5098
 Red. masses --      2.1328                 1.8700                 1.7105
 Frc consts  --      1.0222                 0.9272                 0.8782
 IR Inten    --      2.1725                10.8128                 1.2148

                     28                     29                     30
                      A                      A                      A
 Frequencies --    973.8435               991.9189              1084.4686
 Red. masses --      1.9021                 1.3898                 1.3906
 Frc consts  --      1.0628                 0.8057                 0.9636
 IR Inten    --      0.0616                 1.1359                 8.9022

                     31                     32                     33
                      A                      A                      A
 Frequencies --   1108.3990              1132.3366              1169.5262
 Red. masses --      2.4368                 5.6104                 1.9918
 Frc consts  --      1.7638                 4.2384                 1.6051
 IR Inten    --     59.2931                90.0925                 7.2284

                     34                     35                     36
                      A                      A                      A
 Frequencies --   1190.6586              1200.0532              1208.5660
 Red. masses --      2.0854                 1.8222                 2.0385
 Frc consts  --      1.7419                 1.5462                 1.7543
 IR Inten    --      5.5946                 0.4999                10.7958

                     37                     38                     39
                      A                      A                      A
 Frequencies --   1269.9866              1280.1438              1285.5216
 Red. masses --      2.2543                 3.7458                 1.5528
 Frc consts  --      2.1422                 3.6167                 1.5119
 IR Inten    --     39.1148               126.8521                12.8407

                     40                     41                     42
                      A                      A                      A
 Frequencies --   1291.0957              1330.4664              1344.1142
 Red. masses --      1.4187                 2.1980                 2.9115
 Frc consts  --      1.3933                 2.2924                 3.0991
 IR Inten    --      6.5491                83.4595                76.5672

                     43                     44                     45
                      A                      A                      A
 Frequencies --   1396.3315              1439.1189              1445.1739
 Red. masses --      1.4377                 1.2870                 1.2337
 Frc consts  --      1.6515                 1.5705                 1.5181
 IR Inten    --      3.4835                 3.3841                10.4265

                     46                     47                     48
                      A                      A                      A
 Frequencies --   1508.2536              1516.2265              1521.9781
 Red. masses --      1.0808                 1.0497                 1.0452
 Frc consts  --      1.4486                 1.4219                 1.4265
 IR Inten    --      4.8613                 1.3498                 7.3949

                     49                     50                     51
                      A                      A                      A
 Frequencies --   1530.3037              1530.8391              1537.2116
 Red. masses --      1.1066                 1.0589                 1.0525
 Frc consts  --      1.5269                 1.4621                 1.4653
 IR Inten    --      0.8706                 8.7760                 3.3163

                     52                     53                     54
                      A                      A                      A
 Frequencies --   2263.4871              3054.0589              3069.9450
 Red. masses --     13.9975                 1.0354                 1.0374
 Frc consts  --     42.2528                 5.6900                 5.7604
 IR Inten    --    518.1344                16.6287                 8.0556

                     55                     56                     57
                      A                      A                      A
 Frequencies --   3078.2839              3084.8878              3098.1745
 Red. masses --      1.0671                 1.0768                 1.0586
 Frc consts  --      5.9575                 6.0376                 5.9870
 IR Inten    --     19.5775                13.2320                18.4750

                     58                     59                     60
                      A                      A                      A
 Frequencies --   3120.8634              3125.6612              3134.6961
 Red. masses --      1.1020                 1.1022                 1.1066
 Frc consts  --      6.3240                 6.3444                 6.4067
 IR Inten    --     17.2893                19.1360                22.0257

                     61                     62                     63
                      A                      A                      A
 Frequencies --   3140.5072              3156.9014              3158.2849
 Red. masses --      1.1015                 1.1090                 1.1043
 Frc consts  --      6.4009                 6.5120                 6.4900
 IR Inten    --     12.6777                13.2609                 8.3089

 - Thermochemistry -
 -------------------
 Temperature   298.150 Kelvin.  Pressure   1.00000 Atm.
 Atom     1 has atomic number  6 and mass  12.00000

 Molecular mass:   189.05720 amu.
 Principal axes and moments of inertia in atomic units:
                           1         2         3
     Eigenvalues --  1558.705982364.709942943.97169
           X            0.99953   0.03043   0.00266
           Y           -0.03045   0.99949   0.00933
           Z           -0.00237  -0.00941   0.99995
 This molecule is an asymmetric top.
 Rotational symmetry number  1.
 Warning -- assumption of classical behavior for rotation
           may cause significant error
 Rotational temperatures (Kelvin)      0.05557     0.03663     0.02942
 Rotational constants (GHZ):           1.15785     0.76320     0.61303
 Zero-point vibrational energy     476661.6 (Joules/Mol)
                                  113.92485 (Kcal/Mol)
 Warning -- explicit consideration of  20 degrees of freedom as
           vibrations may cause significant error
 Vibrational temperatures:     28.36    68.12   161.27   213.85   227.26
          (Kelvin)            293.42   308.52   365.08   368.89   398.84
                              412.31   447.23   538.16   572.69   577.84
                              643.82   729.30   808.98   813.90   875.65
                              992.91  1010.73  1143.35  1188.16  1297.63
                             1319.83  1343.11  1401.14  1427.15  1560.31
                             1594.74  1629.18  1682.69  1713.09  1726.61
                             1738.86  1827.23  1841.84  1849.58  1857.60
                             1914.24  1933.88  2009.01  2070.57  2079.28
                             2170.04  2181.51  2189.79  2201.77  2202.54
                             2211.70  3256.65  4394.11  4416.97  4428.96
                             4438.47  4457.58  4490.23  4497.13  4510.13
                             4518.49  4542.08  4544.07

 Zero-point correction=                           0.181551 (Hartree/Particle)
 Thermal correction to Energy=                    0.194279
 Thermal correction to Enthalpy=                  0.195223
 Thermal correction to Gibbs Free Energy=         0.141770
 Sum of electronic and zero-point Energies=           -947.870648
 Sum of electronic and thermal Energies=              -947.857920
 Sum of electronic and thermal Enthalpies=            -947.856976
 Sum of electronic and thermal Free Energies=         -947.910429

                     E (Thermal)             CV                S
                      KCal/Mol        Cal/Mol-Kelvin    Cal/Mol-Kelvin
 Total                  121.912             46.617            112.503
 Electronic               0.000              0.000              0.000
 Translational            0.889              2.981             41.616
 Rotational               0.889              2.981             30.763
 Vibrational            120.135             40.655             40.124
 Vibration     1          0.593              1.986              6.663
 Vibration     2          0.595              1.979              4.925
 Vibration     3          0.607              1.939              3.232
 Vibration     4          0.618              1.904              2.690
 Vibration     5          0.621              1.894              2.574
 Vibration     6          0.640              1.834              2.097
 Vibration     7          0.644              1.819              2.006
 Vibration     8          0.665              1.756              1.704
 Vibration     9          0.666              1.752              1.686
 Vibration    10          0.678              1.716              1.551
 Vibration    11          0.684              1.699              1.494
 Vibration    12          0.700              1.653              1.358
 Vibration    13          0.745              1.525              1.063
 Vibration    14          0.764              1.474              0.970
 Vibration    15          0.767              1.467              0.957
 Vibration    16          0.807              1.366              0.803
 Vibration    17          0.862              1.235              0.641
 Vibration    18          0.918              1.113              0.519
 Vibration    19          0.922              1.105              0.513
 Vibration    20          0.967              1.014              0.435

                           ! Non-Optimized Parameters !
 Normal termination of Gaussian 16 at Wed Dec  9 17:11:35 2020.

 ----------------------------------------------------------------------
 # B3LYP/6-311++G(d,p) empiricaldispersion=gd3bj scf=xqc pop=npa geom=c
 heck
 ----------------------------------------------------------------------

 ---------------------------------------
 CID_151365713_JID_2259_Energie_neutraal
 ---------------------------------------
 Structure from the checkpoint file:  "JID_2259.chk"
 Charge =  0 Multiplicity = 1

 SCF Done:  E(RB3LYP) =  -948.233285833     A.U. after   17 cycles
 Normal termination of Gaussian 16 at Wed Dec  9 17:14:40 2020.

 ----------------------------------------------------------------------
 # B3LYP/6-311++G(d,p) empiricaldispersion=gd3bj scf=xqc pop=npa geom=c
 heck
 ----------------------------------------------------------------------

 -------------------------------------
 CID_151365713_JID_2259_Energie_kation
 -------------------------------------
 Structure from the checkpoint file:  "JID_2259.chk"
 Charge =  1 Multiplicity = 2

 SCF Done:  E(UB3LYP) =  -947.863303689     A.U. after   29 cycles
 Normal termination of Gaussian 16 at Wed Dec  9 17:22:04 2020.
 Gaussian 16:  ES64L-G16RevA.03 25-Dec-2016

 ----------------------------------------------------------------------
 # B3LYP/6-311++G(d,p) empiricaldispersion=gd3bj scf=xqc pop=npa geom=c
 heck
 ----------------------------------------------------------------------

 ------------------------------------
 CID_151365713_JID_2259_Energie_anion
 ------------------------------------
 Structure from the checkpoint file:  "JID_2259.chk"
 Charge = -1 Multiplicity = 2

                         Standard orientation:
 ---------------------------------------------------------------------
 Center     Atomic      Atomic             Coordinates (Angstroms)
 Number     Number       Type             X           Y           Z
 ---------------------------------------------------------------------
      1          6           0        1.304670    2.270744    0.556442
      2          6           0        1.267818    1.064284   -0.365592
      3          6           0        2.592110    0.478361   -0.927871
      4          6           0        2.008876   -0.948526   -0.765445
      5          6           0        0.970411   -0.350878    0.225476
      6          6           0        1.297317   -0.563075    1.696681
      7         16           0       -0.724304   -0.936270   -0.106007
      8          8           0       -1.053701   -0.721227   -1.518552
      9          8           0       -0.955123   -2.225092    0.538595
     10          7           0       -1.639290    0.255059    0.857253
     11          7           0       -2.303520    1.023324    0.140619
     12          7           0       -2.942170    1.761139   -0.441981
     13          1           0        1.618783    3.160300   -0.000891
     14          1           0        2.011321    2.128057    1.380693
     15          1           0        0.318610    2.473910    0.987889
     16          1           0        0.582621    1.245654   -1.200099
     17          1           0        2.878277    0.786334   -1.936511
     18          1           0        3.433576    0.658818   -0.251375
     19          1           0        2.652877   -1.729851   -0.354888
     20          1           0        1.543135   -1.305310   -1.686844
     21          1           0        0.636845    0.021564    2.342713
     22          1           0        1.201777   -1.619458    1.959157
     23          1           0        2.329278   -0.251263    1.886535
 ---------------------------------------------------------------------

 SCF Done:  E(UB3LYP) =  -948.243044856     A.U. after   33 cycles
 SCF Done:  E(UB3LYP) =  -948.243044856     a.u. after    1 cycles

 The electronic state is 2-A.
 Alpha  occ. eigenvalues --  -88.89015 -18.97947 -18.97900 -14.27679 -14.19855
 Alpha  occ. eigenvalues --  -14.18849 -10.09853 -10.07418 -10.06993 -10.06832
 Alpha  occ. eigenvalues --  -10.06429 -10.05761  -7.95768  -5.92004  -5.91957
 Alpha  occ. eigenvalues --   -5.91780  -0.98176  -0.95276  -0.87080  -0.79974
 Alpha  occ. eigenvalues --   -0.76324  -0.64259  -0.62637  -0.56967  -0.52690
 Alpha  occ. eigenvalues --   -0.50929  -0.43747  -0.41490  -0.37831  -0.35895
 Alpha  occ. eigenvalues --   -0.34874  -0.34439  -0.33041  -0.31939  -0.31562
 Alpha  occ. eigenvalues --   -0.30145  -0.29729  -0.28833  -0.28317  -0.26778
 Alpha  occ. eigenvalues --   -0.24563  -0.24069  -0.22696  -0.21615  -0.20463
 Alpha  occ. eigenvalues --   -0.19315  -0.17650  -0.17261  -0.14106  -0.10995
 Alpha  occ. eigenvalues --    0.05124
 Alpha virt. eigenvalues --    0.06978   0.08654   0.08833   0.10172   0.11280
 Alpha virt. eigenvalues --    0.11771   0.12931   0.13419   0.13761   0.14770
 Alpha virt. eigenvalues --    0.15570   0.15725   0.16484   0.17550   0.17622

  Beta  occ. eigenvalues --  -88.88836 -18.97864 -18.97842 -14.27180 -14.19826
  Beta  occ. eigenvalues --  -14.18060 -10.09793 -10.07417 -10.06982 -10.06810
  Beta  occ. eigenvalues --  -10.06429 -10.05753  -7.95571  -5.91862  -5.91652
  Beta  occ. eigenvalues --   -5.91578  -0.97694  -0.94380  -0.86892  -0.79320
  Beta  occ. eigenvalues --   -0.76237  -0.64163  -0.62599  -0.56494  -0.52594
  Beta  occ. eigenvalues --   -0.50492  -0.43270  -0.41368  -0.37610  -0.35870
  Beta  occ. eigenvalues --   -0.34322  -0.33488  -0.32488  -0.31866  -0.30859
  Beta  occ. eigenvalues --   -0.29993  -0.29599  -0.28771  -0.26901  -0.26348
  Beta  occ. eigenvalues --   -0.24350  -0.23648  -0.22358  -0.21558  -0.20405
  Beta  occ. eigenvalues --   -0.18865  -0.17362  -0.17133  -0.12925  -0.10638
  Beta virt. eigenvalues --    0.07160   0.08766   0.08913   0.10152   0.11288
  Beta virt. eigenvalues --    0.11759   0.12490   0.13330   0.13656   0.13819
  Beta virt. eigenvalues --    0.14851   0.15611   0.15872   0.16541   0.17491

 Mulliken charges and spin densities:
               1          2
     1  C   -0.329584  -0.410666
     2  C   -0.314415   0.574285
     3  C    0.328440  -0.850933
     4  C   -0.526743   0.308570
     5  C   -0.044899  -0.232514
     6  C   -0.519850  -0.060576
     7  S    0.605865   0.051837
     8  O   -0.272119   0.025334
     9  O   -0.203945   0.026971
    10  N   -0.230540   0.032787
    11  N    0.292284   0.104832
    12  N   -0.545912   0.435713
    13  H   -0.088063   0.233258
    14  H    0.066077   0.062674
    15  H    0.184600  -0.033174
    16  H    0.096667   0.156260
    17  H   -0.294920   0.450636
    18  H    0.063463   0.055469
    19  H    0.120533   0.013260
    20  H    0.131777   0.057613
    21  H    0.173267   0.000425
    22  H    0.162542   0.002831
    23  H    0.145477  -0.004894
 Sum of Mulliken charges =  -1.00000   1.00000

 Dipole moment (field-independent basis, Debye):
    X=              6.2150    Y=             -0.9726    Z=              3.1964  Tot=              7.0562
 Quadrupole moment (field-independent basis, Debye-Ang):
   XX=           -114.8749   YY=           -106.9237   ZZ=            -99.4445
   XY=             -0.1002   XZ=              2.4986   YZ=              5.3357

 Summary of Natural Population Analysis:

                                       Natural Population
                Natural  -----------------------------------------------
    Atom  No    Charge         Core      Valence    Rydberg      Total
 -----------------------------------------------------------------------
      C    1   -0.28984      0.99964     2.28396    0.00623     3.28984
      C    2   -0.11669      0.99955     2.10430    0.01284     3.11669
      C    3   -0.18565      0.99963     2.17694    0.00908     3.18565
      C    4   -0.19241      0.99959     2.18226    0.01056     3.19241
      C    5   -0.11217      0.99949     2.09435    0.01832     3.11217
      C    6   -0.29950      0.99960     2.29297    0.00693     3.29950
      S    7    1.11320      4.99911     1.79197    0.09571     6.88680
      O    8   -0.46406      0.99991     3.45818    0.00597     4.46406
      O    9   -0.46141      0.99990     3.45566    0.00585     4.46141
      N   10   -0.33614      0.99974     2.82077    0.01562     3.83614
      N   11    0.14310      0.99971     2.34200    0.01520     3.35690
      N   12    0.06410      0.99981     2.42334    0.01275     3.43590
      H   13    0.10049      0.00000     0.39879    0.00072     0.39951
      H   14    0.09258      0.00000     0.40662    0.00080     0.40742
      H   15    0.10951      0.00000     0.38968    0.00081     0.39049
      H   16    0.11628      0.00000     0.38207    0.00165     0.38372
      H   17    0.10047      0.00000     0.39784    0.00169     0.39953
      H   18    0.09095      0.00000     0.40795    0.00110     0.40905
      H   19    0.09468      0.00000     0.40441    0.00091     0.40532
      H   20    0.11168      0.00000     0.38686    0.00146     0.38832
      H   21    0.11326      0.00000     0.38581    0.00093     0.38674
      H   22    0.11130      0.00000     0.38779    0.00091     0.38870
      H   23    0.09627      0.00000     0.40287    0.00086     0.40373
 =======================================================================
   * Total *   -0.00000     15.99570    33.77742    0.22688    50.00000

 Normal termination of Gaussian 16 at Wed Dec  9 17:30:47 2020.
