 Gaussian 16, Revision A.03,

 -----------------------------------------------------------
 # opt freq B3LYP/6-31G(d) empiricaldispersion=gd3bj scf=xqc
 -----------------------------------------------------------

 ------------------------------
 CID_88731677_JID_1150_neutraal
 ------------------------------
 Symbolic Z-matrix:
 Charge =  0 Multiplicity = 1

 SCF Done:  E(RB3LYP) =  -519.105894286     A.U. after   15 cycles
 SCF Done:  E(RB3LYP) =  -519.108288908     A.U. after   12 cycles
 SCF Done:  E(RB3LYP) =  -519.108516900     A.U. after   12 cycles
 SCF Done:  E(RB3LYP) =  -519.108671216     A.U. after   11 cycles
 SCF Done:  E(RB3LYP) =  -519.108692196     A.U. after   10 cycles
 SCF Done:  E(RB3LYP) =  -519.108710152     A.U. after    9 cycles
 SCF Done:  E(RB3LYP) =  -519.108715669     A.U. after    9 cycles
 SCF Done:  E(RB3LYP) =  -519.108717119     A.U. after    9 cycles
 SCF Done:  E(RB3LYP) =  -519.108718413     A.U. after    8 cycles
 SCF Done:  E(RB3LYP) =  -519.108719367     A.U. after    8 cycles
 SCF Done:  E(RB3LYP) =  -519.108719927     A.U. after    8 cycles
 SCF Done:  E(RB3LYP) =  -519.108720148     A.U. after    8 cycles
 SCF Done:  E(RB3LYP) =  -519.108720269     A.U. after    7 cycles
 Optimization completed.
    -- Stationary point found.
 Normal termination of Gaussian 16 at Tue Dec  8 19:15:54 2020.

 --------------------------------------------------------------------
 #N Geom=AllCheck Guess=TCheck SCRF=Check GenChk RB3LYP/6-31G(d) Freq
 --------------------------------------------------------------------

 Structure from the checkpoint file:  "JID_1150.chk"
 ------------------------------
 CID_88731677_JID_1150_neutraal
 ------------------------------
 Charge =  0 Multiplicity = 1

 SCF Done:  E(RB3LYP) =  -519.108720269     A.U. after    1 cycles

  Exact polarizability: 105.573   4.357  90.689   2.312   4.044  86.629
 Approx polarizability: 129.216   3.521 132.659   4.121  20.342 136.944

                      1                      2                      3
                      A                      A                      A
 Frequencies --     32.2552                43.7147                56.0301
 Red. masses --      3.4228                 3.7063                 6.1110
 Frc consts  --      0.0021                 0.0042                 0.0113
 IR Inten    --      1.0078                 0.0622                 0.8236

                      4                      5                      6
                      A                      A                      A
 Frequencies --    103.6466               119.6442               149.3488
 Red. masses --      2.4234                 2.3305                 2.6153
 Frc consts  --      0.0153                 0.0197                 0.0344
 IR Inten    --      0.0661                 0.5442                 4.9241

                      7                      8                      9
                      A                      A                      A
 Frequencies --    191.7300               202.6209               217.6118
 Red. masses --      1.9502                 1.4301                 1.7362
 Frc consts  --      0.0422                 0.0346                 0.0484
 IR Inten    --      0.5135                 3.7005                 2.9547

                     10                     11                     12
                      A                      A                      A
 Frequencies --    253.2579               280.4595               325.5349
 Red. masses --      2.9679                 1.5138                 2.6824
 Frc consts  --      0.1122                 0.0702                 0.1675
 IR Inten    --      0.6033                 1.9417                 1.8995

                     13                     14                     15
                      A                      A                      A
 Frequencies --    386.6071               410.6790               444.8407
 Red. masses --      2.5526                 3.7219                 2.6256
 Frc consts  --      0.2248                 0.3698                 0.3061
 IR Inten    --      0.2571                 2.4928                 3.9239

                     16                     17                     18
                      A                      A                      A
 Frequencies --    528.9714               557.6486               601.1064
 Red. masses --      1.9866                 3.5138                 1.5171
 Frc consts  --      0.3275                 0.6438                 0.3230
 IR Inten    --     15.5669                36.3918                45.5600

                     19                     20                     21
                      A                      A                      A
 Frequencies --    704.0930               709.4839               727.1849
 Red. masses --      2.6650                 2.1455                 2.0593
 Frc consts  --      0.7784                 0.6363                 0.6416
 IR Inten    --      7.9624                 5.6253                15.7936

                     22                     23                     24
                      A                      A                      A
 Frequencies --    760.6778               802.4298               831.0562
 Red. masses --      1.7721                 3.0840                 1.3420
 Frc consts  --      0.6041                 1.1700                 0.5461
 IR Inten    --      4.6299                45.0020                55.8490

                     25                     26                     27
                      A                      A                      A
 Frequencies --    860.7742               891.7119               913.4676
 Red. masses --      2.1767                 2.3563                 1.3679
 Frc consts  --      0.9502                 1.1039                 0.6725
 IR Inten    --      4.3784                 1.9410                 7.3383

                     28                     29                     30
                      A                      A                      A
 Frequencies --    961.6547               999.2657              1003.3189
 Red. masses --      1.8192                 1.6613                 1.1627
 Frc consts  --      0.9912                 0.9774                 0.6896
 IR Inten    --     28.8997                21.7595                15.4005

                     31                     32                     33
                      A                      A                      A
 Frequencies --   1064.1355              1078.1806              1110.4297
 Red. masses --      2.0744                 2.3342                 1.8698
 Frc consts  --      1.3840                 1.5987                 1.3584
 IR Inten    --      3.3762                42.0651                 7.2676

                     34                     35                     36
                      A                      A                      A
 Frequencies --   1132.4150              1154.2500              1208.2786
 Red. masses --      1.6713                 2.0522                 2.9283
 Frc consts  --      1.2628                 1.6109                 2.5188
 IR Inten    --     19.1292                70.2214               230.3384

                     37                     38                     39
                      A                      A                      A
 Frequencies --   1226.9052              1243.8293              1303.5517
 Red. masses --      2.9243                 1.5325                 1.3016
 Frc consts  --      2.5935                 1.3969                 1.3031
 IR Inten    --     76.9841                26.0028                 3.2324

                     40                     41                     42
                      A                      A                      A
 Frequencies --   1331.7041              1370.0321              1383.4506
 Red. masses --      1.6061                 1.2631                 1.1897
 Frc consts  --      1.6782                 1.3968                 1.3416
 IR Inten    --     82.5405                 0.9421                33.2455

                     43                     44                     45
                      A                      A                      A
 Frequencies --   1388.3028              1414.2757              1429.8595
 Red. masses --      1.3869                 1.8150                 1.2127
 Frc consts  --      1.5749                 2.1389                 1.4608
 IR Inten    --      5.3122                95.1703                 7.3172

                     46                     47                     48
                      A                      A                      A
 Frequencies --   1440.1412              1443.5012              1477.1455
 Red. masses --      1.2467                 1.2621                 1.2187
 Frc consts  --      1.5234                 1.5494                 1.5667
 IR Inten    --     26.9553                 5.5006                19.4206

                     49                     50                     51
                      A                      A                      A
 Frequencies --   1493.5940              1519.1943              1520.8944
 Red. masses --      1.5553                 1.0691                 1.0693
 Frc consts  --      2.0443                 1.4537                 1.4573
 IR Inten    --     73.1347                 2.1937                 3.5371

                     52                     53                     54
                      A                      A                      A
 Frequencies --   1525.0035              1530.7334              1534.6786
 Red. masses --      1.0930                 1.0570                 1.0493
 Frc consts  --      1.4976                 1.4592                 1.4561
 IR Inten    --      8.6636                 0.7833                11.2983

                     55                     56                     57
                      A                      A                      A
 Frequencies --   1537.8897              1717.2856              1795.6153
 Red. masses --      1.0814                 4.3874                 8.2848
 Frc consts  --      1.5069                 7.6232                15.7383
 IR Inten    --     17.5543               131.5545               310.8430

                     58                     59                     60
                      A                      A                      A
 Frequencies --   3041.5131              3055.9377              3077.3266
 Red. masses --      1.0377                 1.0629                 1.0359
 Frc consts  --      5.6559                 5.8481                 5.7797
 IR Inten    --     20.2990                31.9857                 8.5539

                     61                     62                     63
                      A                      A                      A
 Frequencies --   3082.2841              3090.7967              3111.7781
 Red. masses --      1.0641                 1.0975                 1.1020
 Frc consts  --      5.9563                 6.1775                 6.2872
 IR Inten    --     10.9780                 0.5922                37.0835

                     64                     65                     66
                      A                      A                      A
 Frequencies --   3113.2924              3119.0294              3135.2347
 Red. masses --      1.0886                 1.1018                 1.1005
 Frc consts  --      6.2168                 6.3151                 6.3736
 IR Inten    --     18.8921                39.5568                27.6988

                     67                     68                     69
                      A                      A                      A
 Frequencies --   3151.4175              3162.2925              3193.5478
 Red. masses --      1.1024                 1.1025                 1.0779
 Frc consts  --      6.4506                 6.4960                 6.4771
 IR Inten    --     16.9765                16.2130                14.8799

                     70                     71                     72
                      A                      A                      A
 Frequencies --   3210.3271              3291.8883              3591.4453
 Red. masses --      1.0764                 1.1134                 1.0762
 Frc consts  --      6.5363                 7.1084                 8.1789
 IR Inten    --      3.3338                18.0206                15.2948

 - Thermochemistry -
 -------------------
 Temperature   298.150 Kelvin.  Pressure   1.00000 Atm.
 Atom     1 has atomic number  6 and mass  12.00000

 Molecular mass:   157.11028 amu.
 Principal axes and moments of inertia in atomic units:
                           1         2         3
     Eigenvalues --  1099.829742668.320852937.52106
           X            0.99951   0.02340   0.02065
           Y           -0.02112   0.99430  -0.10452
           Z           -0.02298   0.10404   0.99431
 This molecule is an asymmetric top.
 Rotational symmetry number  1.
 Warning -- assumption of classical behavior for rotation
           may cause significant error
 Rotational temperatures (Kelvin)      0.07875     0.03246     0.02949
 Rotational constants (GHZ):           1.64093     0.67636     0.61438
 Zero-point vibrational energy     597380.5 (Joules/Mol)
                                  142.77736 (Kcal/Mol)
 Warning -- explicit consideration of  18 degrees of freedom as
           vibrations may cause significant error
 Vibrational temperatures:     46.41    62.90    80.61   149.12   172.14
          (Kelvin)            214.88   275.86   291.53   313.09   364.38
                              403.52   468.37   556.24   590.88   640.03
                              761.07   802.33   864.86  1013.03  1020.79
                             1046.26  1094.45  1154.52  1195.70  1238.46
                             1282.97  1314.28  1383.61  1437.72  1443.55
                             1531.05  1551.26  1597.66  1629.29  1660.71
                             1738.44  1765.24  1789.59  1875.52  1916.03
                             1971.17  1990.48  1997.46  2034.83  2057.25
                             2072.04  2076.88  2125.28  2148.95  2185.78
                             2188.23  2194.14  2202.38  2208.06  2212.68
                             2470.79  2583.49  4376.06  4396.81  4427.59
                             4434.72  4446.97  4477.15  4479.33  4487.59
                             4510.90  4534.19  4549.83  4594.80  4618.94
                             4736.29  5167.29

 Zero-point correction=                           0.227530 (Hartree/Particle)
 Thermal correction to Energy=                    0.240518
 Thermal correction to Enthalpy=                  0.241462
 Thermal correction to Gibbs Free Energy=         0.187208
 Sum of electronic and zero-point Energies=           -518.881190
 Sum of electronic and thermal Energies=              -518.868202
 Sum of electronic and thermal Enthalpies=            -518.867258
 Sum of electronic and thermal Free Energies=         -518.921512

                     E (Thermal)             CV                S
                      KCal/Mol        Cal/Mol-Kelvin    Cal/Mol-Kelvin
 Total                  150.927             46.593            114.187
 Electronic               0.000              0.000              0.000
 Translational            0.889              2.981             41.065
 Rotational               0.889              2.981             30.534
 Vibrational            149.150             40.632             42.589
 Vibration     1          0.594              1.983              5.686
 Vibration     2          0.595              1.980              5.083
 Vibration     3          0.596              1.975              4.592
 Vibration     4          0.605              1.946              3.385
 Vibration     5          0.609              1.933              3.106
 Vibration     6          0.618              1.903              2.681
 Vibration     7          0.634              1.851              2.211
 Vibration     8          0.639              1.836              2.109
 Vibration     9          0.646              1.814              1.979
 Vibration    10          0.664              1.757              1.708
 Vibration    11          0.680              1.710              1.531
 Vibration    12          0.710              1.624              1.282
 Vibration    13          0.755              1.499              1.013
 Vibration    14          0.775              1.447              0.924
 Vibration    15          0.804              1.372              0.812
 Vibration    16          0.884              1.186              0.590
 Vibration    17          0.913              1.123              0.529
 Vibration    18          0.959              1.029              0.448

 Optimization completed.
    -- Stationary point found.
 Normal termination of Gaussian 16 at Tue Dec  8 19:21:35 2020.

 ----------------------------------------------------------------------
 # B3LYP/6-311++G(d,p) empiricaldispersion=gd3bj scf=xqc pop=npa geom=c
 heck
 ----------------------------------------------------------------------

 --------------------------------------
 CID_88731677_JID_1150_Energie_neutraal
 --------------------------------------
 Structure from the checkpoint file:  "JID_1150.chk"
 Charge =  0 Multiplicity = 1

 SCF Done:  E(RB3LYP) =  -519.266934641     A.U. after   14 cycles
 Normal termination of Gaussian 16 at Tue Dec  8 19:24:03 2020.

 ----------------------------------------------------------------------
 # B3LYP/6-311++G(d,p) empiricaldispersion=gd3bj scf=xqc pop=npa geom=c
 heck
 ----------------------------------------------------------------------

 ------------------------------------
 CID_88731677_JID_1150_Energie_kation
 ------------------------------------
 Structure from the checkpoint file:  "JID_1150.chk"
 Charge =  1 Multiplicity = 2

 SCF Done:  E(UB3LYP) =  -518.946267264     A.U. after   24 cycles
 Normal termination of Gaussian 16 at Tue Dec  8 19:30:14 2020.
 Gaussian 16:  ES64L-G16RevA.03 25-Dec-2016

 ----------------------------------------------------------------------
 # B3LYP/6-311++G(d,p) empiricaldispersion=gd3bj scf=xqc pop=npa geom=c
 heck
 ----------------------------------------------------------------------

 -----------------------------------
 CID_88731677_JID_1150_Energie_anion
 -----------------------------------
 Structure from the checkpoint file:  "JID_1150.chk"
 Charge = -1 Multiplicity = 2

                         Standard orientation:
 ---------------------------------------------------------------------
 Center     Atomic      Atomic             Coordinates (Angstroms)
 Number     Number       Type             X           Y           Z
 ---------------------------------------------------------------------
      1          6           0        2.959355    1.293028    0.066948
      2          6           0        2.936954   -0.118209    0.660017
      3          6           0        1.512822   -0.670496    0.853392
      4          6           0        0.841224   -0.899634   -0.492608
      5          8           0        1.227518   -1.769355   -1.260377
      6          7           0       -0.196757   -0.066701   -0.858792
      7          6           0       -0.829494    0.959813   -0.075360
      8          6           0       -1.748232    1.814182   -0.942091
      9          8           0       -1.504087    0.474225    1.102867
     10          6           0       -2.497400   -0.455895    1.036111
     11          6           0       -2.980076   -1.153027    0.004474
     12          1           0        2.474306    1.318970   -0.915847
     13          1           0        3.985912    1.652720   -0.060936
     14          1           0        2.437553    2.005117    0.719004
     15          1           0        3.484590   -0.806920    0.007275
     16          1           0        3.447658   -0.120162    1.630600
     17          1           0        1.565651   -1.653402    1.333020
     18          1           0        0.925686   -0.021159    1.507546
     19          1           0       -0.620287   -0.328159   -1.740750
     20          1           0       -0.058566    1.596041    0.363769
     21          1           0       -2.200214    2.596017   -0.327096
     22          1           0       -1.169446    2.284537   -1.742767
     23          1           0       -2.552672    1.222123   -1.385235
     24          1           0       -2.900642   -0.596061    2.035753
     25          1           0       -3.785590   -1.853583    0.192794
     26          1           0       -2.615018   -1.086706   -1.010802
 ---------------------------------------------------------------------

 SCF Done:  E(UB3LYP) =  -519.252956345     A.U. after   32 cycles

 The electronic state is 2-A.
 Alpha  occ. eigenvalues --  -19.05777 -18.99269 -14.24227 -10.17733 -10.17453
 Alpha  occ. eigenvalues --  -10.13346 -10.07620 -10.07421 -10.07249 -10.06098
 Alpha  occ. eigenvalues --  -10.05976  -0.97510  -0.94320  -0.82877  -0.69860
 Alpha  occ. eigenvalues --   -0.68129  -0.64943  -0.60781  -0.56459  -0.52402
 Alpha  occ. eigenvalues --   -0.49550  -0.46707  -0.42555  -0.39981  -0.39385
 Alpha  occ. eigenvalues --   -0.37267  -0.36017  -0.34451  -0.33774  -0.31382
 Alpha  occ. eigenvalues --   -0.30862  -0.30698  -0.30321  -0.29400  -0.27336
 Alpha  occ. eigenvalues --   -0.26915  -0.24923  -0.24488  -0.24108  -0.23914
 Alpha  occ. eigenvalues --   -0.17135  -0.16267  -0.14255   0.04496
 Alpha virt. eigenvalues --    0.06645   0.07024   0.08193   0.08550   0.09642
 Alpha virt. eigenvalues --    0.09685   0.10311   0.10569   0.10820   0.11125
 Alpha virt. eigenvalues --    0.11855   0.13137   0.13425   0.13856   0.14419

  Beta  occ. eigenvalues --  -19.05776 -18.99255 -14.24217 -10.17721 -10.17436
  Beta  occ. eigenvalues --  -10.13328 -10.07609 -10.07406 -10.07195 -10.06079
  Beta  occ. eigenvalues --  -10.05935  -0.97496  -0.94294  -0.82852  -0.69825
  Beta  occ. eigenvalues --   -0.68089  -0.64898  -0.60726  -0.56388  -0.52336
  Beta  occ. eigenvalues --   -0.49503  -0.46650  -0.42509  -0.39929  -0.39345
  Beta  occ. eigenvalues --   -0.37227  -0.35969  -0.34397  -0.33745  -0.31345
  Beta  occ. eigenvalues --   -0.30824  -0.30643  -0.30275  -0.29354  -0.27296
  Beta  occ. eigenvalues --   -0.26875  -0.24875  -0.24447  -0.24072  -0.23877
  Beta  occ. eigenvalues --   -0.17093  -0.16249  -0.14232
  Beta virt. eigenvalues --    0.06826   0.07425   0.07946   0.08805   0.09011
  Beta virt. eigenvalues --    0.09986   0.10086   0.10734   0.11030   0.11228
  Beta virt. eigenvalues --    0.11747   0.12072   0.13649   0.13898   0.14163

 Mulliken charges and spin densities:
               1          2
     1  C    0.717215  -1.241082
     2  C   -0.440658   0.104809
     3  C   -0.166632   0.160203
     4  C    0.567299  -0.536213
     5  O   -0.353382   0.020800
     6  N   -0.070711   0.055047
     7  C   -1.939259   1.134835
     8  C    2.740598  -3.123488
     9  O    0.068091  -0.005140
    10  C   -0.457568   0.394319
    11  C    1.020903  -1.258861
    12  H   -0.082603   0.245075
    13  H   -0.236351   0.381601
    14  H   -0.315704   0.455474
    15  H    0.198799  -0.050417
    16  H   -0.267003   0.426786
    17  H   -0.040257   0.242021
    18  H   -0.127816   0.323956
    19  H    0.264283   0.032132
    20  H   -0.026565   0.263570
    21  H   -0.575537   0.760454
    22  H   -0.213906   0.386059
    23  H   -0.365043   0.497964
    24  H   -0.698640   0.882217
    25  H   -0.159129   0.308202
    26  H   -0.040422   0.139677
 Sum of Mulliken charges =  -1.00000   1.00000

 Dipole moment (field-independent basis, Debye):
    X=              0.8881    Y=             -2.9799    Z=             -0.8296  Tot=              3.2182
 Quadrupole moment (field-independent basis, Debye-Ang):
   XX=           -128.4520   YY=           -118.2009   ZZ=           -105.3973
   XY=              0.1665   XZ=              1.0514   YZ=             -0.1425

 Summary of Natural Population Analysis:

                                       Natural Population
                Natural  -----------------------------------------------
    Atom  No    Charge         Core      Valence    Rydberg      Total
 -----------------------------------------------------------------------
      C    1   -0.28883      0.99967     2.28401    0.00515     3.28883
      C    2   -0.18714      0.99964     2.17875    0.00876     3.18714
      C    3   -0.23589      0.99958     2.22775    0.00856     3.23589
      C    4    0.35676      0.99967     1.62083    0.02274     2.64324
      O    5   -0.32145      0.99988     3.31603    0.00555     4.32145
      N    6   -0.32998      0.99965     2.82053    0.00980     3.82998
      C    7    0.14671      0.99956     1.83629    0.01744     2.85329
      C    8   -0.29850      0.99964     2.29277    0.00610     3.29850
      O    9   -0.28652      0.99987     3.27466    0.01199     4.28652
      C   10    0.09209      0.99945     1.89298    0.01548     2.90791
      C   11   -0.26097      0.99958     2.25420    0.00718     3.26097
      H   12    0.09819      0.00000     0.40059    0.00122     0.40181
      H   13    0.09964      0.00000     0.39938    0.00098     0.40036
      H   14    0.09838      0.00000     0.39969    0.00193     0.40162
      H   15    0.09921      0.00000     0.39961    0.00118     0.40079
      H   16    0.09668      0.00000     0.40219    0.00113     0.40332
      H   17    0.11275      0.00000     0.38621    0.00104     0.38725
      H   18    0.10738      0.00000     0.39069    0.00193     0.39262
      H   19    0.19364      0.00000     0.30367    0.00269     0.30636
      H   20    0.09949      0.00000     0.39754    0.00297     0.40051
      H   21    0.11195      0.00000     0.38617    0.00188     0.38805
      H   22    0.10864      0.00000     0.38943    0.00193     0.39136
      H   23    0.10391      0.00000     0.39443    0.00166     0.39609
      H   24    0.08924      0.00000     0.40940    0.00137     0.41076
      H   25    0.10167      0.00000     0.39732    0.00101     0.39833
      H   26    0.09297      0.00000     0.40578    0.00125     0.40703
 =======================================================================
   * Total *   -0.00000     10.99619    31.86089    0.14291    43.00000

 Normal termination of Gaussian 16 at Tue Dec  8 19:38:22 2020.
