 Gaussian 16, Revision A.03,

 -----------------------------------------------------------
 # opt freq B3LYP/6-31G(d) empiricaldispersion=gd3bj scf=xqc
 -----------------------------------------------------------

 ------------------------------
 CID_141975943_JID_755_neutraal
 ------------------------------
 Symbolic Z-matrix:
 Charge =  0 Multiplicity = 1

 SCF Done:  E(RB3LYP) =  -818.988757151     A.U. after   15 cycles
 SCF Done:  E(RB3LYP) =  -818.989814050     A.U. after   14 cycles
 SCF Done:  E(RB3LYP) =  -818.989761700     A.U. after   14 cycles
 SCF Done:  E(RB3LYP) =  -818.991781420     A.U. after   13 cycles
 SCF Done:  E(RB3LYP) =  -818.991810147     A.U. after   11 cycles
 SCF Done:  E(RB3LYP) =  -818.991815778     A.U. after   11 cycles
 SCF Done:  E(RB3LYP) =  -818.991816838     A.U. after   10 cycles
 SCF Done:  E(RB3LYP) =  -818.991824002     A.U. after    9 cycles
 SCF Done:  E(RB3LYP) =  -818.991826461     A.U. after   11 cycles
 SCF Done:  E(RB3LYP) =  -818.991827726     A.U. after   11 cycles
 SCF Done:  E(RB3LYP) =  -818.991828205     A.U. after    9 cycles
 SCF Done:  E(RB3LYP) =  -818.991828295     A.U. after    8 cycles
 Optimization completed.
    -- Stationary point found.
 Normal termination of Gaussian 16 at Tue Dec  8 12:29:08 2020.

 --------------------------------------------------------------------
 #N Geom=AllCheck Guess=TCheck SCRF=Check GenChk RB3LYP/6-31G(d) Freq
 --------------------------------------------------------------------

 Structure from the checkpoint file:  "JID_755.chk"
 ------------------------------
 CID_141975943_JID_755_neutraal
 ------------------------------
 Charge =  0 Multiplicity = 1

 SCF Done:  E(RB3LYP) =  -818.991828295     A.U. after    1 cycles

  Exact polarizability: 109.661  -0.957 109.522  -8.364  -5.968  51.718
 Approx polarizability: 177.078  -5.927 195.761 -18.433 -10.018  82.553

                      1                      2                      3
                      A                      A                      A
 Frequencies --     44.6327                73.2217               108.1694
 Red. masses --      8.9636                 5.0787                 4.8555
 Frc consts  --      0.0105                 0.0160                 0.0335
 IR Inten    --      4.0004                 0.7815                 8.6970

                      4                      5                      6
                      A                      A                      A
 Frequencies --    159.6111               215.6597               224.2045
 Red. masses --      3.4776                 5.7974                 2.7514
 Frc consts  --      0.0522                 0.1589                 0.0815
 IR Inten    --      1.6398                 7.9249                 4.6139

                      7                      8                      9
                      A                      A                      A
 Frequencies --    304.4782               339.4692               430.2876
 Red. masses --      3.9442                 3.5924                 5.2898
 Frc consts  --      0.2154                 0.2439                 0.5770
 IR Inten    --      0.6997                 7.0788                 4.5986

                     10                     11                     12
                      A                      A                      A
 Frequencies --    489.8244               518.2198               612.1940
 Red. masses --      3.7948                 4.4867                 4.8906
 Frc consts  --      0.5364                 0.7099                 1.0799
 IR Inten    --      8.6573                 9.1931                 0.8957

                     13                     14                     15
                      A                      A                      A
 Frequencies --    633.6220               657.1824               724.7399
 Red. masses --      4.1391                 3.3934                 1.6843
 Frc consts  --      0.9791                 0.8635                 0.5212
 IR Inten    --     13.1497                19.8356                47.8586

                     16                     17                     18
                      A                      A                      A
 Frequencies --    740.9717               830.2275               859.1779
 Red. masses --      3.3817                 2.5013                 3.2934
 Frc consts  --      1.0939                 1.0158                 1.4324
 IR Inten    --     15.7972                16.4184                14.1367

                     19                     20                     21
                      A                      A                      A
 Frequencies --    897.6267               936.8799              1024.5280
 Red. masses --      1.2791                 2.6631                 1.8163
 Frc consts  --      0.6072                 1.3772                 1.1233
 IR Inten    --      1.0814                 3.1604                 1.2677

                     22                     23                     24
                      A                      A                      A
 Frequencies --   1042.0701              1082.8707              1116.9834
 Red. masses --      2.5265                 1.9972                 1.4878
 Frc consts  --      1.6165                 1.3798                 1.0937
 IR Inten    --     24.0640                21.5903                24.2856

                     25                     26                     27
                      A                      A                      A
 Frequencies --   1188.8456              1239.1791              1268.8268
 Red. masses --      2.4860                 1.9070                 1.3469
 Frc consts  --      2.0702                 1.7253                 1.2776
 IR Inten    --      7.4634                53.8468                 6.9456

                     28                     29                     30
                      A                      A                      A
 Frequencies --   1310.4634              1398.6180              1424.8672
 Red. masses --      1.5292                 1.9664                 1.1772
 Frc consts  --      1.5473                 2.2663                 1.4082
 IR Inten    --     10.4419                 0.4471                 3.6341

                     31                     32                     33
                      A                      A                      A
 Frequencies --   1457.7537              1474.1455              1503.6163
 Red. masses --      1.7226                 1.1162                 5.7687
 Frc consts  --      2.1568                 1.4292                 7.6843
 IR Inten    --     21.2881                13.7253                51.6984

                     34                     35                     36
                      A                      A                      A
 Frequencies --   1574.9673              1775.4082              1835.5132
 Red. masses --      5.9739                 9.1905                 9.5592
 Frc consts  --      8.7308                17.0681                18.9752
 IR Inten    --     95.0734               214.2873               223.4839

                     37                     38                     39
                      A                      A                      A
 Frequencies --   2926.4384              2976.0326              3072.4553
 Red. masses --      1.0839                 1.0867                 1.0589
 Frc consts  --      5.4694                 5.6707                 5.8895
 IR Inten    --    139.5755                55.9466                 4.9151

                     40                     41                     42
                      A                      A                      A
 Frequencies --   3140.0725              3221.1403              3276.6582
 Red. masses --      1.1048                 1.0913                 1.0970
 Frc consts  --      6.4184                 6.6713                 6.9394
 IR Inten    --      4.8201                 3.4815                 0.6265

 - Thermochemistry -
 -------------------
 Temperature   298.150 Kelvin.  Pressure   1.00000 Atm.
 Atom     1 has atomic number  6 and mass  12.00000

 Molecular mass:   154.00885 amu.
 Principal axes and moments of inertia in atomic units:
                           1         2         3
     Eigenvalues --  1237.525361698.898212716.62422
           X            0.99963   0.02242  -0.01540
           Y           -0.02259   0.99969  -0.01045
           Z            0.01517   0.01080   0.99983
 This molecule is an asymmetric top.
 Rotational symmetry number  1.
 Warning -- assumption of classical behavior for rotation
           may cause significant error
 Rotational temperatures (Kelvin)      0.06999     0.05098     0.03188
 Rotational constants (GHZ):           1.45835     1.06230     0.66433
 Zero-point vibrational energy     299855.1 (Joules/Mol)
                                   71.66708 (Kcal/Mol)
 Warning -- explicit consideration of  12 degrees of freedom as
           vibrations may cause significant error
 Vibrational temperatures:     64.22   105.35   155.63   229.64   310.29
          (Kelvin)            322.58   438.08   488.42   619.09   704.75
                              745.60   880.81   911.64   945.54  1042.74
                             1066.09  1194.51  1236.17  1291.48  1347.96
                             1474.07  1499.31  1558.01  1607.09  1710.48
                             1782.90  1825.56  1885.46  2012.30  2050.07
                             2097.38  2120.97  2163.37  2266.03  2554.42
                             2640.89  4210.49  4281.85  4420.58  4517.86
                             4634.50  4714.38

 Zero-point correction=                           0.114209 (Hartree/Particle)
 Thermal correction to Energy=                    0.123661
 Thermal correction to Enthalpy=                  0.124605
 Thermal correction to Gibbs Free Energy=         0.078221
 Sum of electronic and zero-point Energies=           -818.877620
 Sum of electronic and thermal Energies=              -818.868168
 Sum of electronic and thermal Enthalpies=            -818.867223
 Sum of electronic and thermal Free Energies=         -818.913607

                     E (Thermal)             CV                S
                      KCal/Mol        Cal/Mol-Kelvin    Cal/Mol-Kelvin
 Total                   77.598             33.543             97.623
 Electronic               0.000              0.000              0.000
 Translational            0.889              2.981             41.005
 Rotational               0.889              2.981             30.125
 Vibrational             75.821             27.582             26.492
 Vibration     1          0.595              1.980              5.042
 Vibration     2          0.599              1.967              4.065
 Vibration     3          0.606              1.943              3.302
 Vibration     4          0.621              1.892              2.554
 Vibration     5          0.645              1.817              1.995
 Vibration     6          0.649              1.804              1.925
 Vibration     7          0.695              1.665              1.392
 Vibration     8          0.719              1.597              1.215
 Vibration     9          0.791              1.404              0.858
 Vibration    10          0.846              1.273              0.684
 Vibration    11          0.873              1.210              0.614
 Vibration    12          0.971              1.006              0.429

 Optimization completed.
    -- Stationary point found.
 Normal termination of Gaussian 16 at Tue Dec  8 12:32:29 2020.

 ----------------------------------------------------------------------
 # B3LYP/6-311++G(d,p) empiricaldispersion=gd3bj scf=xqc pop=npa geom=c
 heck
 ----------------------------------------------------------------------

 --------------------------------------
 CID_141975943_JID_755_Energie_neutraal
 --------------------------------------
 Structure from the checkpoint file:  "JID_755.chk"
 Charge =  0 Multiplicity = 1

 SCF Done:  E(RB3LYP) =  -819.140728799     A.U. after   16 cycles
 Normal termination of Gaussian 16 at Tue Dec  8 12:41:00 2020.

 ----------------------------------------------------------------------
 # B3LYP/6-311++G(d,p) empiricaldispersion=gd3bj scf=xqc pop=npa geom=c
 heck
 ----------------------------------------------------------------------

 ------------------------------------
 CID_141975943_JID_755_Energie_kation
 ------------------------------------
 Structure from the checkpoint file:  "JID_755.chk"
 Charge =  1 Multiplicity = 2

 SCF Done:  E(UB3LYP) =  -818.816381213     A.U. after   28 cycles
 Normal termination of Gaussian 16 at Tue Dec  8 12:49:36 2020.
 Gaussian 16:  ES64L-G16RevA.03 25-Dec-2016

 ----------------------------------------------------------------------
 # B3LYP/6-311++G(d,p) empiricaldispersion=gd3bj scf=xqc pop=npa geom=c
 heck
 ----------------------------------------------------------------------

 -----------------------------------
 CID_141975943_JID_755_Energie_anion
 -----------------------------------
 Structure from the checkpoint file:  "JID_755.chk"
 Charge = -1 Multiplicity = 2

                         Standard orientation:
 ---------------------------------------------------------------------
 Center     Atomic      Atomic             Coordinates (Angstroms)
 Number     Number       Type             X           Y           Z
 ---------------------------------------------------------------------
      1          6           0        2.112778    0.664144   -0.439742
      2          6           0        2.453778   -0.651212   -0.348202
      3         16           0        1.125891   -1.609635    0.240372
      4          6           0        0.093441   -0.224606    0.372936
      5          6           0        0.758677    0.921333   -0.039494
      6          6           0        0.174636    2.265734   -0.036993
      7          8           0       -0.988041    2.533128    0.224734
      8          6           0       -1.332343   -0.368741    0.811273
      9          6           0       -2.255102   -0.417244   -0.406961
     10          8           0       -2.991950   -1.343522   -0.649710
     11          1           0        2.790176    1.440445   -0.779440
     12          1           0        3.399749   -1.120835   -0.579565
     13          1           0        0.889938    3.075482   -0.296764
     14          1           0       -1.490417   -1.277040    1.398003
     15          1           0       -1.610417    0.512272    1.400689
     16          1           0       -2.188547    0.470531   -1.065962
 ---------------------------------------------------------------------

 SCF Done:  E(UB3LYP) =  -819.163257612     A.U. after   25 cycles

 The electronic state is 2-A.
 Alpha  occ. eigenvalues --  -88.72271 -18.98127 -18.92287 -10.11324 -10.06350
 Alpha  occ. eigenvalues --  -10.05356 -10.04060 -10.03970 -10.03948 -10.01719
 Alpha  occ. eigenvalues --   -7.80945  -5.77239  -5.76870  -5.76573  -0.91280
 Alpha  occ. eigenvalues --   -0.86064  -0.73642  -0.63690  -0.59881  -0.55527
 Alpha  occ. eigenvalues --   -0.46367  -0.44112  -0.42448  -0.37613  -0.34566
 Alpha  occ. eigenvalues --   -0.32841  -0.30595  -0.29205  -0.28321  -0.26597
 Alpha  occ. eigenvalues --   -0.25262  -0.24565  -0.22661  -0.22004  -0.21319
 Alpha  occ. eigenvalues --   -0.20149  -0.12929  -0.11428  -0.09260  -0.08300
 Alpha  occ. eigenvalues --    0.04239
 Alpha virt. eigenvalues --    0.09091   0.10603   0.10766   0.11401   0.12963
 Alpha virt. eigenvalues --    0.13352   0.13550   0.13913   0.15066   0.15845
 Alpha virt. eigenvalues --    0.16444   0.16765   0.17116   0.18260   0.19305

  Beta  occ. eigenvalues --  -88.72209 -18.98035 -18.91754 -10.11186 -10.06042
  Beta  occ. eigenvalues --  -10.05307 -10.04106 -10.04005 -10.03365 -10.01739
  Beta  occ. eigenvalues --   -7.80889  -5.77213  -5.76847  -5.76364  -0.91089
  Beta  occ. eigenvalues --   -0.85097  -0.73289  -0.63306  -0.59534  -0.55189
  Beta  occ. eigenvalues --   -0.45412  -0.43779  -0.42282  -0.37233  -0.34230
  Beta  occ. eigenvalues --   -0.32648  -0.30235  -0.28926  -0.27973  -0.26300
  Beta  occ. eigenvalues --   -0.24780  -0.23440  -0.22282  -0.21797  -0.19779
  Beta  occ. eigenvalues --   -0.19209  -0.12486  -0.10518  -0.08106  -0.07352
  Beta virt. eigenvalues --    0.09068   0.10359   0.10670   0.11462   0.12354
  Beta virt. eigenvalues --    0.13043   0.13376   0.13881   0.14452   0.15146
  Beta virt. eigenvalues --    0.15909   0.16543   0.16871   0.17185   0.18315

 Mulliken charges and spin densities:
               1          2
     1  C    0.126147   0.024510
     2  C   -0.280401  -0.011474
     3  S   -0.612987   0.147471
     4  C    1.251143   0.410110
     5  C   -0.686280  -0.034939
     6  C   -0.768725   0.228280
     7  O   -0.383675   0.167105
     8  C    0.087329  -0.064432
     9  C   -0.167276   0.083185
    10  O   -0.295652   0.030410
    11  H    0.099595   0.002360
    12  H    0.189465  -0.002831
    13  H    0.026504  -0.021419
    14  H    0.148396   0.013646
    15  H    0.149040   0.022494
    16  H    0.117375   0.005525
 Sum of Mulliken charges =  -1.00000   1.00000

 Dipole moment (field-independent basis, Debye):
    X=              3.5582    Y=             -1.4680    Z=              0.1925  Tot=              3.8540
 Quadrupole moment (field-independent basis, Debye-Ang):
   XX=            -88.2962   YY=            -92.8485   ZZ=            -73.2575
   XY=             -0.7959   XZ=             -4.5960   YZ=             -3.1826

 Summary of Natural Population Analysis:

                                       Natural Population
                Natural  -----------------------------------------------
    Atom  No    Charge         Core      Valence    Rydberg      Total
 -----------------------------------------------------------------------
      C    1   -0.12098      0.99951     2.11167    0.00980     3.12098
      C    2   -0.21169      0.99955     2.20042    0.01172     3.21169
      S    3    0.21294      4.99940     2.76456    0.02310     7.78706
      C    4    0.03340      0.99945     1.95486    0.01229     2.96660
      C    5   -0.11574      0.99941     2.10418    0.01216     3.11574
      C    6    0.24367      0.99967     1.73636    0.02030     2.75633
      O    7   -0.25910      0.99988     3.25152    0.00769     4.25910
      C    8   -0.26042      0.99957     2.25092    0.00993     3.26042
      C    9    0.25358      0.99974     1.72588    0.02080     2.74642
      O   10   -0.28702      0.99988     3.27910    0.00805     4.28702
      H   11    0.09807      0.00000     0.40072    0.00121     0.40193
      H   12    0.09795      0.00000     0.40106    0.00099     0.40205
      H   13    0.02914      0.00000     0.46765    0.00321     0.47086
      H   14    0.10047      0.00000     0.39747    0.00207     0.39953
      H   15    0.13066      0.00000     0.36815    0.00119     0.36934
      H   16    0.05508      0.00000     0.44301    0.00191     0.44492
 =======================================================================
   * Total *    0.00000     13.99606    25.85753    0.14641    40.00000

 Normal termination of Gaussian 16 at Tue Dec  8 13:04:40 2020.
