 Gaussian 16, Revision A.03,

 -----------------------------------------------------------
 # opt freq B3LYP/6-31G(d) empiricaldispersion=gd3bj scf=xqc
 -----------------------------------------------------------

 ------------------------------
 CID_145080482_JID_946_neutraal
 ------------------------------
 Symbolic Z-matrix:
 Charge =  0 Multiplicity = 1

 SCF Done:  E(RB3LYP) =  -437.566247632     A.U. after   15 cycles
 SCF Done:  E(RB3LYP) =  -437.572029888     A.U. after   12 cycles
 SCF Done:  E(RB3LYP) =  -437.573565387     A.U. after   12 cycles
 SCF Done:  E(RB3LYP) =  -437.575144673     A.U. after   13 cycles
 SCF Done:  E(RB3LYP) =  -437.575481283     A.U. after   12 cycles
 SCF Done:  E(RB3LYP) =  -437.575726780     A.U. after   11 cycles
 SCF Done:  E(RB3LYP) =  -437.575797179     A.U. after   11 cycles
 SCF Done:  E(RB3LYP) =  -437.575816623     A.U. after   10 cycles
 SCF Done:  E(RB3LYP) =  -437.575823531     A.U. after   10 cycles
 SCF Done:  E(RB3LYP) =  -437.575824426     A.U. after    9 cycles
 SCF Done:  E(RB3LYP) =  -437.575824628     A.U. after    8 cycles
 SCF Done:  E(RB3LYP) =  -437.575824702     A.U. after    7 cycles
 Optimization completed.
    -- Stationary point found.

 1\1\GINC-NODE112\FOpt\RB3LYP\6-31G(d)\C7H11N3\VSC10255\08-Dec-2020\0\\
 # opt freq B3LYP/6-31G(d) empiricaldispersion=gd3bj scf=xqc\\CID_14508
 0482_JID_946_neutraal\\0,1\C,0.9042556682,-0.3159611619,0.3528186374\N
 ,-0.101615591,0.7320296132,0.5732315221\N,-1.3886083911,0.1595781064,0
 .6914542012\C,-1.899314671,-0.1466311478,1.9391965664\N,-1.0725874074,
 -0.1277753097,2.9476230489\C,-1.4486439711,-0.4068786448,4.2477512891\
 C,-2.3626630623,-1.3007676743,4.6754740447\C,-3.1369228411,-2.15874454
 92,3.702871776\C,-3.9375157874,-1.2408351524,2.8156995309\C,-3.3498939

 Normal termination of Gaussian 16 at Tue Dec  8 13:30:39 2020.

 --------------------------------------------------------------------
 #N Geom=AllCheck Guess=TCheck SCRF=Check GenChk RB3LYP/6-31G(d) Freq
 --------------------------------------------------------------------

 Structure from the checkpoint file:  "JID_946.chk"
 ------------------------------
 CID_145080482_JID_946_neutraal
 ------------------------------
 Charge =  0 Multiplicity = 1

 SCF Done:  E(RB3LYP) =  -437.575824702     A.U. after    1 cycles

  Exact polarizability: 129.211  -4.914  91.919   6.383   2.745  59.426
 Approx polarizability: 193.074 -14.823 148.654  17.961   7.300  89.011

                      1                      2                      3
                      A                      A                      A
 Frequencies --     73.5798                91.2010               152.4846
 Red. masses --      3.2766                 2.6868                 2.8211
 Frc consts  --      0.0105                 0.0132                 0.0386
 IR Inten    --      0.0270                 3.6909                 1.3031

                      4                      5                      6
                      A                      A                      A
 Frequencies --    180.9459               232.7803               258.2850
 Red. masses --      1.5393                 3.1302                 1.7270
 Frc consts  --      0.0297                 0.0999                 0.0679
 IR Inten    --      4.9892                 6.0952                 1.2248

                      7                      8                      9
                      A                      A                      A
 Frequencies --    322.0502               368.8883               382.0628
 Red. masses --      3.7720                 3.1838                 3.6303
 Frc consts  --      0.2305                 0.2553                 0.3122
 IR Inten    --      2.3246                 5.3958                11.4359

                     10                     11                     12
                      A                      A                      A
 Frequencies --    446.5118               487.1088               529.7970
 Red. masses --      3.9592                 1.3995                 3.5013
 Frc consts  --      0.4651                 0.1956                 0.5790
 IR Inten    --      9.2244               125.5661                14.1354

                     13                     14                     15
                      A                      A                      A
 Frequencies --    577.8434               661.8240               693.6342
 Red. masses --      3.5257                 2.2156                 2.0721
 Frc consts  --      0.6936                 0.5718                 0.5874
 IR Inten    --     47.0159                15.4178                59.2983

                     16                     17                     18
                      A                      A                      A
 Frequencies --    750.4309               788.9195               812.1004
 Red. masses --      1.5853                 2.3529                 2.2671
 Frc consts  --      0.5260                 0.8628                 0.8809
 IR Inten    --     15.6110                15.5077                54.1061

                     19                     20                     21
                      A                      A                      A
 Frequencies --    865.1071               896.8790               932.3707
 Red. masses --      2.6992                 3.3958                 2.6135
 Frc consts  --      1.1902                 1.6094                 1.3386
 IR Inten    --     45.0538                 6.4541                 6.1504

                     22                     23                     24
                      A                      A                      A
 Frequencies --    960.5473               977.0427               995.3016
 Red. masses --      1.4016                 1.3609                 1.9313
 Frc consts  --      0.7619                 0.7654                 1.1272
 IR Inten    --      0.7316                 0.3933                 2.2927

                     25                     26                     27
                      A                      A                      A
 Frequencies --   1010.1837              1054.1373              1137.8240
 Red. masses --      1.9860                 2.3789                 5.2436
 Frc consts  --      1.1941                 1.5575                 3.9997
 IR Inten    --      1.2863                 0.5231                12.7664

                     28                     29                     30
                      A                      A                      A
 Frequencies --   1153.8177              1178.6633              1219.5121
 Red. masses --      1.6941                 1.4546                 1.2187
 Frc consts  --      1.3288                 1.1906                 1.0679
 IR Inten    --      6.2262                 0.9088                19.2731

                     31                     32                     33
                      A                      A                      A
 Frequencies --   1243.6233              1264.0943              1292.7871
 Red. masses --      1.4546                 1.2555                 1.7103
 Frc consts  --      1.3255                 1.1820                 1.6841
 IR Inten    --      5.4493                 3.7821                65.8711

                     34                     35                     36
                      A                      A                      A
 Frequencies --   1334.5007              1346.6124              1427.3630
 Red. masses --      1.8964                 1.5205                 1.5059
 Frc consts  --      1.9898                 1.6245                 1.8076
 IR Inten    --     10.4710                12.8455                 9.7154

                     37                     38                     39
                      A                      A                      A
 Frequencies --   1446.6155              1465.8996              1503.5621
 Red. masses --      1.5001                 1.1913                 1.6347
 Frc consts  --      1.8496                 1.5083                 2.1774
 IR Inten    --      3.2973                 0.0788               210.1358

                     40                     41                     42
                      A                      A                      A
 Frequencies --   1509.9962              1513.0548              1536.4486
 Red. masses --      1.1017                 1.0849                 1.0636
 Frc consts  --      1.4800                 1.4634                 1.4793
 IR Inten    --      3.5173                 3.6330                 2.3072

                     43                     44                     45
                      A                      A                      A
 Frequencies --   1581.4505              1611.5645              1671.4660
 Red. masses --      1.1572                 5.6935                 5.5807
 Frc consts  --      1.7052                 8.7122                 9.1862
 IR Inten    --     33.3640               110.3040                14.9492

                     46                     47                     48
                      A                      A                      A
 Frequencies --   1712.5900              3009.8890              3034.3071
 Red. masses --      6.5378                 1.0711                 1.0384
 Frc consts  --     11.2977                 5.7170                 5.6331
 IR Inten    --     98.7908                27.6696                43.1296

                     49                     50                     51
                      A                      A                      A
 Frequencies --   3107.1267              3114.1439              3135.5992
 Red. masses --      1.0975                 1.0916                 1.1041
 Frc consts  --      6.2427                 6.2371                 6.3960
 IR Inten    --     47.0876                21.7271                26.3882

                     52                     53                     54
                      A                      A                      A
 Frequencies --   3152.7642              3154.3364              3179.0045
 Red. masses --      1.0860                 1.0856                 1.0959
 Frc consts  --      6.3601                 6.3639                 6.5253
 IR Inten    --     28.4038                 9.0167                33.3678

                     55                     56                     57
                      A                      A                      A
 Frequencies --   3197.8969              3432.1120              3587.7397
 Red. masses --      1.0940                 1.0720                 1.0775
 Frc consts  --      6.5917                 7.4400                 8.1718
 IR Inten    --     30.2973                 8.2566                26.1320

 - Thermochemistry -
 -------------------
 Temperature   298.150 Kelvin.  Pressure   1.00000 Atm.
 Atom     1 has atomic number  6 and mass  12.00000

 Molecular mass:   137.09530 amu.
 Principal axes and moments of inertia in atomic units:
                           1         2         3
     Eigenvalues --   653.782052044.656542394.10671
           X            0.99993   0.01045  -0.00599
           Y           -0.01051   0.99989  -0.01061
           Z            0.00587   0.01067   0.99993
 This molecule is an asymmetric top.
 Rotational symmetry number  1.
 Warning -- assumption of classical behavior for rotation
           may cause significant error
 Rotational temperatures (Kelvin)      0.13248     0.04236     0.03618
 Rotational constants (GHZ):           2.76046     0.88266     0.75383
 Zero-point vibrational energy     471079.7 (Joules/Mol)
                                  112.59076 (Kcal/Mol)
 Warning -- explicit consideration of  13 degrees of freedom as
           vibrations may cause significant error
 Vibrational temperatures:    105.86   131.22   219.39   260.34   334.92
          (Kelvin)            371.61   463.36   530.75   549.70   642.43
                              700.84   762.26   831.39   952.22   997.98
                             1079.70  1135.08  1168.43  1244.70  1290.41
                             1341.47  1382.01  1405.75  1432.02  1453.43
                             1516.67  1637.07  1660.09  1695.83  1754.61
                             1789.30  1818.75  1860.03  1920.05  1937.47
                             2053.66  2081.36  2109.10  2163.29  2172.55
                             2176.95  2210.61  2275.35  2318.68  2404.87
                             2464.04  4330.56  4365.69  4470.46  4480.56
                             4511.43  4536.12  4538.39  4573.88  4601.06
                             4938.04  5161.96

 Zero-point correction=                           0.179425 (Hartree/Particle)
 Thermal correction to Energy=                    0.188975
 Thermal correction to Enthalpy=                  0.189919
 Thermal correction to Gibbs Free Energy=         0.144758
 Sum of electronic and zero-point Energies=           -437.396400
 Sum of electronic and thermal Energies=              -437.386850
 Sum of electronic and thermal Enthalpies=            -437.385906
 Sum of electronic and thermal Free Energies=         -437.431067

                     E (Thermal)             CV                S
                      KCal/Mol        Cal/Mol-Kelvin    Cal/Mol-Kelvin
 Total                  118.583             36.354             95.050
 Electronic               0.000              0.000              0.000
 Translational            0.889              2.981             40.658
 Rotational               0.889              2.981             29.549
 Vibrational            116.806             30.393             24.842
 Vibration     1          0.599              1.966              4.055
 Vibration     2          0.602              1.955              3.634
 Vibration     3          0.619              1.900              2.641
 Vibration     4          0.630              1.866              2.319
 Vibration     5          0.654              1.791              1.857
 Vibration     6          0.667              1.749              1.673
 Vibration     7          0.707              1.631              1.300
 Vibration     8          0.741              1.536              1.084
 Vibration     9          0.752              1.508              1.031
 Vibration    10          0.806              1.369              0.806
 Vibration    11          0.843              1.279              0.691
 Vibration    12          0.885              1.184              0.588
 Vibration    13          0.934              1.079              0.489

 Optimization completed.
    -- Stationary point found.

 1\1\GINC-NODE112\Freq\RB3LYP\6-31G(d)\C7H11N3\VSC10255\08-Dec-2020\0\\
 #N Geom=AllCheck Guess=TCheck SCRF=Check GenChk RB3LYP/6-31G(d) Freq\\
 CID_145080482_JID_946_neutraal\\0,1\C,0.9042556682,-0.3159611619,0.352
 8186374\N,-0.101615591,0.7320296132,0.5732315221\N,-1.3886083911,0.159
 5781064,0.6914542012\C,-1.899314671,-0.1466311478,1.9391965664\N,-1.07
 25874074,-0.1277753097,2.9476230489\C,-1.4486439711,-0.4068786448,4.24
 77512891\C,-2.3626630623,-1.3007676743,4.6754740447\C,-3.1369228411,-2
 .1587445492,3.702871776\C,-3.9375157874,-1.2408351524,2.8156995309\C,-

 Normal termination of Gaussian 16 at Tue Dec  8 13:35:50 2020.

 ----------------------------------------------------------------------
 # B3LYP/6-311++G(d,p) empiricaldispersion=gd3bj scf=xqc pop=npa geom=c
 heck
 ----------------------------------------------------------------------

 --------------------------------------
 CID_145080482_JID_946_Energie_neutraal
 --------------------------------------
 Structure from the checkpoint file:  "JID_946.chk"
 Charge =  0 Multiplicity = 1

 SCF Done:  E(RB3LYP) =  -437.703371197     A.U. after   15 cycles
 Normal termination of Gaussian 16 at Tue Dec  8 13:38:21 2020.

 ----------------------------------------------------------------------
 # B3LYP/6-311++G(d,p) empiricaldispersion=gd3bj scf=xqc pop=npa geom=c
 heck
 ----------------------------------------------------------------------

 ------------------------------------
 CID_145080482_JID_946_Energie_kation
 ------------------------------------
 Structure from the checkpoint file:  "JID_946.chk"
 Charge =  1 Multiplicity = 2

 SCF Done:  E(UB3LYP) =  -437.423193354     A.U. after   23 cycles
 Normal termination of Gaussian 16 at Tue Dec  8 13:45:14 2020.
 Gaussian 16:  ES64L-G16RevA.03 25-Dec-2016

 -----------------------------------
 CID_145080482_JID_946_Energie_anion
 -----------------------------------
 Structure from the checkpoint file:  "JID_946.chk"
 Charge = -1 Multiplicity = 2

                         Standard orientation:
 ---------------------------------------------------------------------
 Center     Atomic      Atomic             Coordinates (Angstroms)
 Number     Number       Type             X           Y           Z
 ---------------------------------------------------------------------
      1          6           0       -3.124153   -0.547338    0.842864
      2          7           0       -2.656352    0.082999   -0.399103
      3          7           0       -1.544120    0.915342   -0.138003
      4          6           0       -0.260406    0.422411   -0.281331
      5          7           0       -0.123558   -0.868114   -0.410077
      6          6           0        1.098533   -1.493802   -0.567112
      7          6           0        2.281392   -1.159217   -0.013658
      8          6           0        2.408593    0.030883    0.907775
      9          6           0        2.031008    1.261666    0.124714
     10          6           0        0.793543    1.439801   -0.367703
     11          1           0       -3.523458    0.223489    1.508279
     12          1           0       -2.336280   -1.103056    1.368992
     13          1           0       -3.936093   -1.234751    0.582699
     14          1           0       -2.297209   -0.661653   -1.001824
     15          1           0       -1.693091    1.874996   -0.422399
     16          1           0        1.038694   -2.398228   -1.171943
     17          1           0        3.159570   -1.759847   -0.232856
     18          1           0        1.729060   -0.081703    1.766417
     19          1           0        3.423438    0.116120    1.304621
     20          1           0        2.788348    2.021595   -0.059730
     21          1           0        0.544184    2.365034   -0.885276
 ---------------------------------------------------------------------

 SCF Done:  E(UB3LYP) =  -437.687804333     A.U. after   33 cycles
 SCF Done:  E(UB3LYP) =  -437.687804333     a.u. after    1 cycles

 The electronic state is 2-A.
 Alpha  occ. eigenvalues --  -14.20758 -14.19651 -14.13649 -10.08669 -10.05138
 Alpha  occ. eigenvalues --  -10.04979 -10.04010 -10.02352 -10.02219 -10.01747
 Alpha  occ. eigenvalues --   -0.86291  -0.76955  -0.68515  -0.66330  -0.61235
 Alpha  occ. eigenvalues --   -0.54087  -0.53126  -0.48921  -0.42562  -0.40669
 Alpha  occ. eigenvalues --   -0.36852  -0.36110  -0.33347  -0.31992  -0.30731
 Alpha  occ. eigenvalues --   -0.29952  -0.28231  -0.25651  -0.25262  -0.23184
 Alpha  occ. eigenvalues --   -0.22439  -0.20955  -0.16273  -0.13231  -0.11977
 Alpha  occ. eigenvalues --   -0.10032  -0.06893   0.06275
 Alpha virt. eigenvalues --    0.08272   0.08914   0.09837   0.10339   0.10941
 Alpha virt. eigenvalues --    0.11911   0.12217   0.12934   0.13731   0.14577
 Alpha virt. eigenvalues --    0.14940   0.15388   0.17057   0.17978   0.18946

  Beta  occ. eigenvalues --  -14.20724 -14.19639 -14.13463 -10.08435 -10.05088
  Beta  occ. eigenvalues --  -10.05021 -10.04043 -10.02233 -10.01899 -10.01562
  Beta  occ. eigenvalues --   -0.86157  -0.76629  -0.68363  -0.65852  -0.60945
  Beta  occ. eigenvalues --   -0.53987  -0.52928  -0.48489  -0.42131  -0.40520
  Beta  occ. eigenvalues --   -0.36664  -0.35965  -0.33197  -0.31791  -0.30449
  Beta  occ. eigenvalues --   -0.29666  -0.28137  -0.25304  -0.25129  -0.23038
  Beta  occ. eigenvalues --   -0.22029  -0.20513  -0.15952  -0.12872  -0.10792
  Beta  occ. eigenvalues --   -0.09647  -0.06181
  Beta virt. eigenvalues --    0.08494   0.09362   0.09757   0.10438   0.11056
  Beta virt. eigenvalues --    0.11917   0.11942   0.12417   0.13155   0.14047
  Beta virt. eigenvalues --    0.14745   0.15107   0.15482   0.17063   0.18101

 Mulliken charges and spin densities:
               1          2
     1  C    1.045825  -1.402533
     2  N   -0.299955   0.197691
     3  N   -0.148968   0.018905
     4  C   -0.425792   0.193959
     5  N   -0.168126   0.096291
     6  C   -0.315444  -0.176578
     7  C    0.086618   0.096803
     8  C   -0.390695  -0.030984
     9  C   -0.155845   0.389039
    10  C   -0.101612  -0.084973
    11  H   -0.355388   0.488482
    12  H   -0.038854   0.184523
    13  H   -0.667791   0.793761
    14  H    0.124164   0.104253
    15  H    0.243605   0.011320
    16  H   -0.006269   0.127791
    17  H    0.115351  -0.007217
    18  H    0.127044   0.012484
    19  H    0.093786   0.001282
    20  H    0.118432  -0.021985
    21  H    0.119913   0.007687
 Sum of Mulliken charges =  -1.00000   1.00000

 Dipole moment (field-independent basis, Debye):
    X=              5.1885    Y=              2.7336    Z=             -1.2342  Tot=              5.9930
 Quadrupole moment (field-independent basis, Debye-Ang):
   XX=           -113.8178   YY=            -80.2518   ZZ=            -77.8766
   XY=             -8.8746   XZ=              6.4754   YZ=             -0.8649

 Summary of Natural Population Analysis:

                                       Natural Population
                Natural  -----------------------------------------------
    Atom  No    Charge         Core      Valence    Rydberg      Total
 -----------------------------------------------------------------------
      C    1   -0.17828      0.99966     2.16937    0.00925     3.17828
      N    2   -0.25253      0.99976     2.73786    0.01490     3.75253
      N    3   -0.22429      0.99966     2.71119    0.01344     3.72429
      C    4    0.24217      0.99955     1.74153    0.01675     2.75783
      N    5   -0.28059      0.99963     2.76876    0.01220     3.78059
      C    6   -0.00707      0.99951     1.99162    0.01594     3.00707
      C    7   -0.10012      0.99955     2.08832    0.01226     3.10012
      C    8   -0.23331      0.99962     2.22555    0.00814     3.23331
      C    9    0.02654      0.99956     1.96451    0.00940     2.97346
      C   10   -0.15896      0.99950     2.15101    0.00845     3.15896
      H   11    0.08832      0.00000     0.40992    0.00176     0.41168
      H   12    0.08930      0.00000     0.40867    0.00203     0.41070
      H   13    0.09059      0.00000     0.40645    0.00296     0.40941
      H   14    0.17698      0.00000     0.31926    0.00376     0.32302
      H   15    0.18101      0.00000     0.31725    0.00173     0.31899
      H   16    0.08422      0.00000     0.41448    0.00130     0.41578
      H   17    0.08717      0.00000     0.41193    0.00090     0.41283
      H   18    0.10069      0.00000     0.39679    0.00253     0.39931
      H   19    0.09496      0.00000     0.40400    0.00104     0.40504
      H   20    0.08121      0.00000     0.41775    0.00105     0.41879
      H   21    0.09199      0.00000     0.40644    0.00157     0.40801
 =======================================================================
   * Total *   -0.00000      9.99599    26.86267    0.14134    37.00000

 Normal termination of Gaussian 16 at Tue Dec  8 13:54:01 2020.
