 Gaussian 16, Revision A.03,

 -----------------------------------------------------------
 # opt freq B3LYP/6-31G(d) empiricaldispersion=gd3bj scf=xqc
 -----------------------------------------------------------

 ------------------------------
 CID_22626867_JID_6347_neutraal
 ------------------------------
 Symbolic Z-matrix:
 Charge =  0 Multiplicity = 1

 SCF Done:  E(RB3LYP) =  -782.589371016     A.U. after   17 cycles
 SCF Done:  E(RB3LYP) =  -782.599817774     A.U. after   14 cycles
 SCF Done:  E(RB3LYP) =  -782.601402574     A.U. after   14 cycles
 SCF Done:  E(RB3LYP) =  -782.601219049     A.U. after   14 cycles
 SCF Done:  E(RB3LYP) =  -782.601991694     A.U. after   14 cycles
 SCF Done:  E(RB3LYP) =  -782.603094091     A.U. after   13 cycles
 SCF Done:  E(RB3LYP) =  -782.603287557     A.U. after   14 cycles
 SCF Done:  E(RB3LYP) =  -782.603377458     A.U. after   13 cycles
 SCF Done:  E(RB3LYP) =  -782.603401426     A.U. after   13 cycles
 SCF Done:  E(RB3LYP) =  -782.603418762     A.U. after   13 cycles
 SCF Done:  E(RB3LYP) =  -782.603463416     A.U. after   13 cycles
 SCF Done:  E(RB3LYP) =  -782.603471901     A.U. after   13 cycles
 SCF Done:  E(RB3LYP) =  -782.603473134     A.U. after   11 cycles
 SCF Done:  E(RB3LYP) =  -782.603473600     A.U. after   10 cycles
 SCF Done:  E(RB3LYP) =  -782.603473693     A.U. after    9 cycles
 Optimization completed.
    -- Stationary point found.
 Normal termination of Gaussian 16 at Thu Dec 10 22:25:12 2020.

 --------------------------------------------------------------------
 #N Geom=AllCheck Guess=TCheck SCRF=Check GenChk RB3LYP/6-31G(d) Freq
 --------------------------------------------------------------------

 Structure from the checkpoint file:  "JID_6347.chk"
 ------------------------------
 CID_22626867_JID_6347_neutraal
 ------------------------------
 Charge =  0 Multiplicity = 1

 SCF Done:  E(RB3LYP) =  -782.603473693     A.U. after    1 cycles

  Exact polarizability: 164.873 -11.709 116.149   5.694   3.791 123.665
 Approx polarizability: 227.790 -19.222 174.396  21.025   5.626 212.930

                      1                      2                      3
                      A                      A                      A
 Frequencies --     25.7141                30.6119                53.9762
 Red. masses --      6.0454                 7.3355                12.4538
 Frc consts  --      0.0024                 0.0041                 0.0214
 IR Inten    --      0.0326                 0.4059                 0.0222

                      4                      5                      6
                      A                      A                      A
 Frequencies --     80.5778                95.1546               128.7833
 Red. masses --      3.3079                 7.3228                 5.9769
 Frc consts  --      0.0127                 0.0391                 0.0584
 IR Inten    --      5.0836                 1.6876                 0.0678

                      7                      8                      9
                      A                      A                      A
 Frequencies --    153.6401               167.7960               213.1588
 Red. masses --      4.6615                 4.5079                 3.4457
 Frc consts  --      0.0648                 0.0748                 0.0922
 IR Inten    --      2.9546                 0.9500                 1.3599

                     10                     11                     12
                      A                      A                      A
 Frequencies --    219.4232               240.2084               271.4487
 Red. masses --      2.1049                 1.0786                 5.0001
 Frc consts  --      0.0597                 0.0367                 0.2171
 IR Inten    --      0.3119                 0.2402                23.5367

                     13                     14                     15
                      A                      A                      A
 Frequencies --    276.8876               285.9492               291.8180
 Red. masses --      2.5382                 1.8173                 2.9597
 Frc consts  --      0.1147                 0.0875                 0.1485
 IR Inten    --      0.2769                 1.6474                 1.5130

                     16                     17                     18
                      A                      A                      A
 Frequencies --    313.5296               335.9182               363.6624
 Red. masses --      1.2305                 2.5539                 4.2055
 Frc consts  --      0.0713                 0.1698                 0.3277
 IR Inten    --      2.3980                 1.2537                 6.7448

                     19                     20                     21
                      A                      A                      A
 Frequencies --    413.4690               471.3100               479.6658
 Red. masses --      3.9284                 4.0955                 3.8985
 Frc consts  --      0.3957                 0.5360                 0.5285
 IR Inten    --     37.5930                 0.6382                17.5548

                     22                     23                     24
                      A                      A                      A
 Frequencies --    491.6749               574.8887               578.9427
 Red. masses --      3.9279                 5.8931                 7.1926
 Frc consts  --      0.5595                 1.1475                 1.4204
 IR Inten    --      1.3830                 2.9870               133.7606

                     25                     26                     27
                      A                      A                      A
 Frequencies --    597.6678               637.7480               677.9391
 Red. masses --      6.1952                 5.1569                 5.4900
 Frc consts  --      1.3038                 1.2358                 1.4866
 IR Inten    --    165.9141                16.9702               125.2213

                     28                     29                     30
                      A                      A                      A
 Frequencies --    714.4832               739.4364               789.2432
 Red. masses --      2.6722                 3.9773                 2.6833
 Frc consts  --      0.8037                 1.2813                 0.9848
 IR Inten    --      6.7891                79.8815                 7.8377

                     31                     32                     33
                      A                      A                      A
 Frequencies --    801.0641               880.8531               891.2444
 Red. masses --      1.9461                 2.4028                 1.5261
 Frc consts  --      0.7358                 1.0984                 0.7142
 IR Inten    --     44.1866                39.2435                12.6801

                     34                     35                     36
                      A                      A                      A
 Frequencies --    895.6845               933.5007               966.8348
 Red. masses --      1.8522                 3.6538                 1.3968
 Frc consts  --      0.8755                 1.8760                 0.7693
 IR Inten    --      0.9154               104.8741                 1.7243

                     37                     38                     39
                      A                      A                      A
 Frequencies --    973.0087               980.7436              1018.9225
 Red. masses --      1.3308                 3.0737                 6.0833
 Frc consts  --      0.7423                 1.7419                 3.7211
 IR Inten    --      2.6518                31.9326                 0.7455

                     40                     41                     42
                      A                      A                      A
 Frequencies --   1042.2343              1095.7458              1108.4292
 Red. masses --      1.3579                 4.3588                 3.2224
 Frc consts  --      0.8690                 3.0834                 2.3326
 IR Inten    --     20.8884                90.4611               182.9385

                     43                     44                     45
                      A                      A                      A
 Frequencies --   1133.8373              1145.3252              1186.6360
 Red. masses --      2.1799                 1.6372                 1.2714
 Frc consts  --      1.6511                 1.2653                 1.0548
 IR Inten    --     89.1493                23.9770                 0.7022

                     46                     47                     48
                      A                      A                      A
 Frequencies --   1207.5079              1213.8579              1219.2701
 Red. masses --      2.9687                 1.1537                 1.4358
 Frc consts  --      2.5503                 1.0016                 1.2576
 IR Inten    --      4.2811                 9.1434                 3.7336

                     49                     50                     51
                      A                      A                      A
 Frequencies --   1253.8617              1261.1987              1304.2284
 Red. masses --      2.5533                 3.0663                 4.6188
 Frc consts  --      2.3651                 2.8737                 4.6290
 IR Inten    --     35.8529                48.4129               125.4705

                     52                     53                     54
                      A                      A                      A
 Frequencies --   1342.3546              1381.4836              1427.6792
 Red. masses --      1.6262                 3.9328                 1.2163
 Frc consts  --      1.7265                 4.4222                 1.4607
 IR Inten    --     74.8819                35.7409                 4.0491

                     55                     56                     57
                      A                      A                      A
 Frequencies --   1449.4791              1489.0617              1506.4114
 Red. masses --      1.2117                 1.8389                 1.6369
 Frc consts  --      1.4999                 2.4023                 2.1885
 IR Inten    --      7.0956                67.6042                 3.8711

                     58                     59                     60
                      A                      A                      A
 Frequencies --   1514.5660              1516.6366              1521.0405
 Red. masses --      1.0617                 1.0544                 1.0478
 Frc consts  --      1.4349                 1.4290                 1.4282
 IR Inten    --      0.9300                 4.8344                 5.4382

                     61                     62                     63
                      A                      A                      A
 Frequencies --   1535.0838              1536.9783              1540.4398
 Red. masses --      1.0506                 1.0651                 1.3219
 Frc consts  --      1.4587                 1.4825                 1.8481
 IR Inten    --      5.5690                16.1014                38.4578

                     64                     65                     66
                      A                      A                      A
 Frequencies --   1542.2661              1643.6681              1671.9536
 Red. masses --      1.5873                 5.4362                 5.9279
 Frc consts  --      2.2244                 8.6532                 9.7633
 IR Inten    --     16.2743                69.6245                95.8242

                     67                     68                     69
                      A                      A                      A
 Frequencies --   1828.6087              1863.2721              3026.2374
 Red. masses --     13.1968                14.3820                 1.0348
 Frc consts  --     25.9992                29.4187                 5.5835
 IR Inten    --    272.0964               253.7298                57.0020

                     70                     71                     72
                      A                      A                      A
 Frequencies --   3063.4528              3069.2039              3084.9588
 Red. masses --      1.0359                 1.0362                 1.1066
 Frc consts  --      5.7280                 5.7511                 6.2052
 IR Inten    --      9.7790                26.1173                42.2883

                     73                     74                     75
                      A                      A                      A
 Frequencies --   3127.1328              3137.0812              3156.8149
 Red. masses --      1.1029                 1.1033                 1.1022
 Frc consts  --      6.3545                 6.3973                 6.4713
 IR Inten    --     10.3081                38.0774                14.5871

                     76                     77                     78
                      A                      A                      A
 Frequencies --   3160.1357              3160.8584              3189.4363
 Red. masses --      1.0998                 1.1011                 1.0868
 Frc consts  --      6.4709                 6.4817                 6.5136
 IR Inten    --     24.7104                16.2640                 7.6073

                     79                     80                     81
                      A                      A                      A
 Frequencies --   3206.7852              3232.5334              3236.3020
 Red. masses --      1.0934                 1.0919                 1.0895
 Frc consts  --      6.6250                 6.7222                 6.7230
 IR Inten    --     11.6109                11.8053                 2.5204

 - Thermochemistry -
 -------------------
 Temperature   298.150 Kelvin.  Pressure   1.00000 Atm.
 Atom     1 has atomic number  6 and mass  12.00000

 Molecular mass:   223.08446 amu.
 Principal axes and moments of inertia in atomic units:
                           1         2         3
     Eigenvalues --  2232.317285778.737636344.44351
           X            0.99944  -0.03285  -0.00595
           Y            0.03310   0.99832   0.04762
           Z            0.00438  -0.04779   0.99885
 This molecule is an asymmetric top.
 Rotational symmetry number  1.
 Warning -- assumption of classical behavior for rotation
           may cause significant error
 Rotational temperatures (Kelvin)      0.03880     0.01499     0.01365
 Rotational constants (GHZ):           0.80846     0.31231     0.28446
 Zero-point vibrational energy     600469.3 (Joules/Mol)
                                  143.51561 (Kcal/Mol)
 Warning -- explicit consideration of  25 degrees of freedom as
           vibrations may cause significant error
 Vibrational temperatures:     37.00    44.04    77.66   115.93   136.91
          (Kelvin)            185.29   221.05   241.42   306.69   315.70
                              345.61   390.55   398.38   411.42   419.86
                              451.10   483.31   523.23   594.89   678.11
                              690.13   707.41   827.14   832.97   859.91
                              917.58   975.40  1027.98  1063.88  1135.54
                             1152.55  1267.35  1282.30  1288.69  1343.10
                             1391.06  1399.94  1411.07  1466.00  1499.54
                             1576.53  1594.78  1631.34  1647.87  1707.30
                             1737.33  1746.47  1754.26  1804.03  1814.58
                             1876.49  1931.35  1987.65  2054.11  2085.48
                             2142.43  2167.39  2179.12  2182.10  2188.44
                             2208.64  2211.37  2216.35  2218.98  2364.87
                             2405.57  2630.96  2680.83  4354.08  4407.63
                             4415.90  4438.57  4499.25  4513.56  4541.95
                             4546.73  4547.77  4588.89  4613.85  4650.89
                             4656.32

 Zero-point correction=                           0.228707 (Hartree/Particle)
 Thermal correction to Energy=                    0.244874
 Thermal correction to Enthalpy=                  0.245818
 Thermal correction to Gibbs Free Energy=         0.183865
 Sum of electronic and zero-point Energies=           -782.374767
 Sum of electronic and thermal Energies=              -782.358599
 Sum of electronic and thermal Enthalpies=            -782.357655
 Sum of electronic and thermal Free Energies=         -782.419609

                     E (Thermal)             CV                S
                      KCal/Mol        Cal/Mol-Kelvin    Cal/Mol-Kelvin
 Total                  153.661             59.218            130.392
 Electronic               0.000              0.000              0.000
 Translational            0.889              2.981             42.110
 Rotational               0.889              2.981             32.770
 Vibrational            151.883             53.257             55.512
 Vibration     1          0.593              1.985              6.135
 Vibration     2          0.594              1.984              5.789
 Vibration     3          0.596              1.976              4.666
 Vibration     4          0.600              1.962              3.877
 Vibration     5          0.603              1.953              3.551
 Vibration     6          0.611              1.924              2.964
 Vibration     7          0.619              1.899              2.627
 Vibration     8          0.625              1.882              2.460
 Vibration     9          0.644              1.821              2.016
 Vibration    10          0.647              1.811              1.964
 Vibration    11          0.657              1.779              1.801
 Vibration    12          0.675              1.726              1.587
 Vibration    13          0.678              1.716              1.553
 Vibration    14          0.684              1.700              1.498
 Vibration    15          0.687              1.689              1.463
 Vibration    16          0.701              1.648              1.344
 Vibration    17          0.717              1.604              1.231
 Vibration    18          0.737              1.547              1.106
 Vibration    19          0.777              1.441              0.914
 Vibration    20          0.828              1.314              0.734
 Vibration    21          0.836              1.295              0.711
 Vibration    22          0.847              1.268              0.679
 Vibration    23          0.931              1.086              0.495
 Vibration    24          0.936              1.077              0.487
 Vibration    25          0.956              1.037              0.454

 Optimization completed.
    -- Stationary point found.
 Normal termination of Gaussian 16 at Thu Dec 10 22:35:00 2020.

 ----------------------------------------------------------------------
 # B3LYP/6-311++G(d,p) empiricaldispersion=gd3bj scf=xqc pop=npa geom=c
 heck
 ----------------------------------------------------------------------

 --------------------------------------
 CID_22626867_JID_6347_Energie_neutraal
 --------------------------------------
 Structure from the checkpoint file:  "JID_6347.chk"
 Charge =  0 Multiplicity = 1

 SCF Done:  E(RB3LYP) =  -782.826261980     A.U. after   17 cycles
 Normal termination of Gaussian 16 at Thu Dec 10 22:40:35 2020.

 ----------------------------------------------------------------------
 # B3LYP/6-311++G(d,p) empiricaldispersion=gd3bj scf=xqc pop=npa geom=c
 heck
 ----------------------------------------------------------------------

 ------------------------------------
 CID_22626867_JID_6347_Energie_kation
 ------------------------------------
 Structure from the checkpoint file:  "JID_6347.chk"
 Charge =  1 Multiplicity = 2

 SCF Done:  E(UB3LYP) =  -782.525004194     A.U. after   26 cycles
 Normal termination of Gaussian 16 at Thu Dec 10 22:51:44 2020.
 Gaussian 16:  ES64L-G16RevA.03 25-Dec-2016

 ----------------------------------------------------------------------
 # B3LYP/6-311++G(d,p) empiricaldispersion=gd3bj scf=xqc pop=npa geom=c
 heck
 ----------------------------------------------------------------------

 -----------------------------------
 CID_22626867_JID_6347_Energie_anion
 -----------------------------------
 Structure from the checkpoint file:  "JID_6347.chk"
 Charge = -1 Multiplicity = 2

                         Standard orientation:
 ---------------------------------------------------------------------
 Center     Atomic      Atomic             Coordinates (Angstroms)
 Number     Number       Type             X           Y           Z
 ---------------------------------------------------------------------
      1          6           0        1.300456   -2.629979    0.276616
      2          6           0        1.089083   -1.238169   -0.347650
      3          6           0        1.140386   -1.351539   -1.883039
      4          6           0       -0.221674   -0.630504    0.173519
      5          6           0       -1.316551   -0.411433   -0.655424
      6          6           0       -2.511501    0.115067   -0.142650
      7          6           0       -2.613725    0.434928    1.213160
      8          6           0       -1.508358    0.219121    2.041519
      9          6           0       -0.326168   -0.308201    1.538219
     10          8           0       -3.513034    0.277912   -1.055327
     11          6           0       -4.744623    0.812096   -0.599545
     12          6           0        2.220673   -0.314292    0.121719
     13          8           0        3.041987   -0.570990    0.965274
     14          8           0        2.175364    0.885278   -0.556081
     15          7           0        2.990472    1.972156    0.132003
     16          8           0        2.993425    2.915092   -0.545317
     17          1           0        0.480631   -3.288603   -0.026094
     18          1           0        1.322749   -2.580024    1.366764
     19          1           0        2.246705   -3.064457   -0.060642
     20          1           0        0.385676   -2.063211   -2.231521
     21          1           0        0.968939   -0.388783   -2.368983
     22          1           0        2.120050   -1.726242   -2.197081
     23          1           0       -1.286293   -0.635138   -1.714625
     24          1           0       -3.526228    0.846028    1.627550
     25          1           0       -1.580312    0.469970    3.096151
     26          1           0        0.521738   -0.464288    2.198317
     27          1           0       -5.205689    0.168377    0.161130
     28          1           0       -4.617330    1.821480   -0.186703
     29          1           0       -5.393870    0.858906   -1.475342
 ---------------------------------------------------------------------

 SCF Done:  E(UB3LYP) =  -782.862420990     A.U. after   33 cycles
 SCF Done:  E(UB3LYP) =  -782.862420990     a.u. after    1 cycles

 The electronic state is 2-A.
 Alpha  occ. eigenvalues --  -19.06626 -18.97229 -18.94855 -18.94743 -14.20245
 Alpha  occ. eigenvalues --  -10.14830 -10.13417 -10.13007 -10.07608 -10.07536
 Alpha  occ. eigenvalues --  -10.07342 -10.07105 -10.06135 -10.05828 -10.04898
 Alpha  occ. eigenvalues --  -10.04896  -0.98816  -0.98251  -0.91249  -0.82557
 Alpha  occ. eigenvalues --   -0.75572  -0.70021  -0.66486  -0.63052  -0.60689
 Alpha  occ. eigenvalues --   -0.57603  -0.53451  -0.50021  -0.49644  -0.45935
 Alpha  occ. eigenvalues --   -0.43318  -0.39120  -0.39037  -0.38853  -0.37548
 Alpha  occ. eigenvalues --   -0.35429  -0.34086  -0.33282  -0.33044  -0.31741
 Alpha  occ. eigenvalues --   -0.29835  -0.28961  -0.28671  -0.27953  -0.27625
 Alpha  occ. eigenvalues --   -0.27434  -0.26691  -0.25953  -0.24866  -0.23570
 Alpha  occ. eigenvalues --   -0.22892  -0.22270  -0.21542  -0.20608  -0.15067
 Alpha  occ. eigenvalues --   -0.13988  -0.12564  -0.11437  -0.05855   0.04818
 Alpha virt. eigenvalues --    0.05788   0.08144   0.08483   0.08860   0.09838
 Alpha virt. eigenvalues --    0.09935   0.10225   0.10392   0.11008   0.12201
 Alpha virt. eigenvalues --    0.12512   0.13253   0.14310   0.14827   0.15550

  Beta  occ. eigenvalues --  -19.06626 -18.97325 -18.94767 -18.93768 -14.19037
  Beta  occ. eigenvalues --  -10.14830 -10.13424 -10.12877 -10.07622 -10.07503
  Beta  occ. eigenvalues --  -10.07333 -10.07073 -10.06106 -10.05831 -10.04891
  Beta  occ. eigenvalues --  -10.04890  -0.98251  -0.97125  -0.90959  -0.82430
  Beta  occ. eigenvalues --   -0.75528  -0.69972  -0.66466  -0.62997  -0.60666
  Beta  occ. eigenvalues --   -0.57582  -0.53218  -0.49778  -0.49299  -0.45290
  Beta  occ. eigenvalues --   -0.42652  -0.39095  -0.39031  -0.38793  -0.36987
  Beta  occ. eigenvalues --   -0.34890  -0.34009  -0.33227  -0.33019  -0.31440
  Beta  occ. eigenvalues --   -0.29216  -0.28735  -0.27996  -0.27718  -0.27342
  Beta  occ. eigenvalues --   -0.26979  -0.26469  -0.24944  -0.23730  -0.22449
  Beta  occ. eigenvalues --   -0.22393  -0.22157  -0.20761  -0.19885  -0.14849
  Beta  occ. eigenvalues --   -0.13161  -0.12473  -0.11345  -0.04820
  Beta virt. eigenvalues --    0.05776   0.08120   0.08438   0.08998   0.09817
  Beta virt. eigenvalues --    0.09912   0.10239   0.10360   0.10987   0.12177
  Beta virt. eigenvalues --    0.12457   0.13218   0.14271   0.14724   0.15541

 Mulliken charges and spin densities:
               1          2
     1  C   -0.627085  -0.020800
     2  C    0.423535   0.009794
     3  C   -0.486027  -0.021316
     4  C    0.844515   0.004728
     5  C   -0.581257   0.018357
     6  C   -0.418096  -0.005380
     7  C    0.305552   0.028679
     8  C   -0.446305   0.029308
     9  C   -0.338853  -0.007501
    10  O   -0.155488   0.000132
    11  C   -0.304880  -0.000506
    12  C   -0.450718   0.075019
    13  O   -0.207038   0.037177
    14  O    0.055265  -0.040038
    15  N   -0.346984   0.549713
    16  O   -0.185681   0.311961
    17  H    0.103978   0.002455
    18  H    0.163529   0.000021
    19  H    0.154982   0.002402
    20  H    0.088257   0.013148
    21  H    0.163080  -0.002772
    22  H    0.166032   0.008783
    23  H    0.199623  -0.005053
    24  H    0.134294  -0.002560
    25  H    0.149362   0.000168
    26  H    0.158750   0.012736
    27  H    0.138032   0.000101
    28  H    0.147314   0.001113
    29  H    0.152309   0.000133
 Sum of Mulliken charges =  -1.00000   1.00000

 Dipole moment (field-independent basis, Debye):
    X=            -12.1062    Y=             -5.5609    Z=             -0.1389  Tot=             13.3230
 Quadrupole moment (field-independent basis, Debye-Ang):
   XX=           -134.5424   YY=           -121.5014   ZZ=           -102.5391
   XY=            -22.8204   XZ=             -4.7769   YZ=              5.0936

 Summary of Natural Population Analysis:

                                       Natural Population
                Natural  -----------------------------------------------
    Atom  No    Charge         Core      Valence    Rydberg      Total
 -----------------------------------------------------------------------
      C    1   -0.27648      0.99964     2.27064    0.00620     3.27648
      C    2   -0.09053      0.99951     2.07876    0.01227     3.09053
      C    3   -0.28251      0.99965     2.27699    0.00587     3.28251
      C    4    0.01705      0.99950     1.97064    0.01281     2.98295
      C    5   -0.11785      0.99946     2.11040    0.00798     3.11785
      C    6    0.15984      0.99939     1.82935    0.01142     2.84016
      C    7   -0.15271      0.99952     2.14540    0.00778     3.15271
      C    8   -0.08936      0.99958     2.08075    0.00903     3.08936
      C    9   -0.11189      0.99951     2.10321    0.00917     3.11189
      O   10   -0.27478      0.99985     3.26581    0.00911     4.27478
      C   11   -0.10071      0.99961     2.09297    0.00813     3.10071
      C   12    0.42376      0.99964     1.54400    0.03260     2.57624
      O   13   -0.30369      0.99986     3.29785    0.00598     4.30369
      O   14   -0.29677      0.99988     3.28558    0.01132     4.29677
      N   15    0.29884      0.99986     2.16506    0.03624     3.20116
      O   16   -0.06843      0.99988     3.05550    0.01306     4.06843
      H   17    0.09150      0.00000     0.40766    0.00084     0.40850
      H   18    0.10546      0.00000     0.39373    0.00081     0.39454
      H   19    0.10068      0.00000     0.39850    0.00082     0.39932
      H   20    0.09041      0.00000     0.40865    0.00094     0.40959
      H   21    0.11359      0.00000     0.38500    0.00141     0.38641
      H   22    0.10144      0.00000     0.39779    0.00076     0.39856
      H   23    0.10640      0.00000     0.39229    0.00131     0.39360
      H   24    0.09775      0.00000     0.40125    0.00100     0.40225
      H   25    0.09607      0.00000     0.40306    0.00087     0.40393
      H   26    0.10982      0.00000     0.38888    0.00129     0.39018
      H   27    0.08055      0.00000     0.41794    0.00151     0.41945
      H   28    0.08301      0.00000     0.41550    0.00149     0.41699
      H   29    0.08954      0.00000     0.40970    0.00077     0.41046
 =======================================================================
   * Total *    0.00000     15.99436    42.79285    0.21279    59.00000

 Normal termination of Gaussian 16 at Thu Dec 10 23:06:35 2020.
