 Gaussian 16, Revision A.03,

 -----------------------------------------------------------
 # opt freq B3LYP/6-31G(d) empiricaldispersion=gd3bj scf=xqc
 -----------------------------------------------------------

 -------------------------------
 CID_102641918_JID_2716_neutraal
 -------------------------------
 Symbolic Z-matrix:
 Charge =  0 Multiplicity = 1

 SCF Done:  E(RB3LYP) =  -507.664864499     A.U. after   13 cycles
 SCF Done:  E(RB3LYP) =  -507.667039411     A.U. after   11 cycles
 SCF Done:  E(RB3LYP) =  -507.667281658     A.U. after   11 cycles
 SCF Done:  E(RB3LYP) =  -507.667307794     A.U. after   10 cycles
 SCF Done:  E(RB3LYP) =  -507.667417695     A.U. after   10 cycles
 SCF Done:  E(RB3LYP) =  -507.667508151     A.U. after   10 cycles
 SCF Done:  E(RB3LYP) =  -507.667643785     A.U. after   11 cycles
 SCF Done:  E(RB3LYP) =  -507.667718252     A.U. after   10 cycles
 SCF Done:  E(RB3LYP) =  -507.667868695     A.U. after   12 cycles
 SCF Done:  E(RB3LYP) =  -507.667966898     A.U. after   11 cycles
 SCF Done:  E(RB3LYP) =  -507.668100812     A.U. after   11 cycles
 SCF Done:  E(RB3LYP) =  -507.668099612     A.U. after    9 cycles
 SCF Done:  E(RB3LYP) =  -507.668102911     A.U. after    9 cycles
 SCF Done:  E(RB3LYP) =  -507.668103265     A.U. after    9 cycles
 SCF Done:  E(RB3LYP) =  -507.668103481     A.U. after    8 cycles
 SCF Done:  E(RB3LYP) =  -507.668103732     A.U. after    8 cycles
 Optimization completed.
    -- Stationary point found.
 Normal termination of Gaussian 16 at Wed Dec  9 18:22:05 2020.

 --------------------------------------------------------------------
 #N Geom=AllCheck Guess=TCheck SCRF=Check GenChk RB3LYP/6-31G(d) Freq
 --------------------------------------------------------------------

 Structure from the checkpoint file:  "JID_2716.chk"
 -------------------------------
 CID_102641918_JID_2716_neutraal
 -------------------------------
 Charge =  0 Multiplicity = 1

 SCF Done:  E(RB3LYP) =  -507.668103732     A.U. after    1 cycles

  Exact polarizability: 125.413   0.375 113.797   5.028   4.276 114.031
 Approx polarizability: 155.285   0.104 161.311  12.363   5.281 174.383

                      1                      2                      3
                      A                      A                      A
 Frequencies --     31.7474                48.3522                50.6690
 Red. masses --      2.9777                 2.7355                 3.0104
 Frc consts  --      0.0018                 0.0038                 0.0046
 IR Inten    --      0.0832                 0.1243                 0.4907

                      4                      5                      6
                      A                      A                      A
 Frequencies --    119.0940               132.2062               138.7321
 Red. masses --      2.3103                 3.7866                 1.9997
 Frc consts  --      0.0193                 0.0390                 0.0227
 IR Inten    --      0.2620                 1.8631                 0.3302

                      7                      8                      9
                      A                      A                      A
 Frequencies --    183.7613               200.1652               214.9957
 Red. masses --      2.5792                 2.6121                 1.6907
 Frc consts  --      0.0513                 0.0617                 0.0460
 IR Inten    --      0.4850                 0.0809                 0.2593

                     10                     11                     12
                      A                      A                      A
 Frequencies --    238.8756               253.7719               281.7097
 Red. masses --      1.1794                 1.9567                 1.2341
 Frc consts  --      0.0397                 0.0742                 0.0577
 IR Inten    --      0.2600                 2.8776                 2.8152

                     13                     14                     15
                      A                      A                      A
 Frequencies --    289.9350               311.2430               330.8995
 Red. masses --      1.5951                 1.6550                 2.1710
 Frc consts  --      0.0790                 0.0945                 0.1401
 IR Inten    --      6.1326                 1.5041                 1.9792

                     16                     17                     18
                      A                      A                      A
 Frequencies --    360.3407               367.6835               395.4063
 Red. masses --      2.3826                 1.2530                 2.6711
 Frc consts  --      0.1823                 0.0998                 0.2461
 IR Inten    --      4.0621               107.9382                16.6790

                     19                     20                     21
                      A                      A                      A
 Frequencies --    419.7253               438.3487               454.8248
 Red. masses --      1.8998                 2.4810                 2.0922
 Frc consts  --      0.1972                 0.2809                 0.2550
 IR Inten    --      7.0103                 5.8518                 2.3286

                     22                     23                     24
                      A                      A                      A
 Frequencies --    531.7576               586.9764               702.8288
 Red. masses --      2.4245                 2.8524                 2.0965
 Frc consts  --      0.4039                 0.5790                 0.6101
 IR Inten    --      1.3001                 3.3541                14.8480

                     25                     26                     27
                      A                      A                      A
 Frequencies --    733.9199               762.5533               829.8177
 Red. masses --      2.1406                 1.7604                 1.8882
 Frc consts  --      0.6793                 0.6031                 0.7661
 IR Inten    --      1.1021                 1.6624                 3.9908

                     28                     29                     30
                      A                      A                      A
 Frequencies --    860.9450               885.5485               906.2524
 Red. masses --      1.5397                 1.6784                 1.9572
 Frc consts  --      0.6724                 0.7755                 0.9471
 IR Inten    --      0.1405                 5.0935                 7.3674

                     31                     32                     33
                      A                      A                      A
 Frequencies --    920.3739               943.4931               953.1034
 Red. masses --      1.6445                 1.4801                 1.6293
 Frc consts  --      0.8208                 0.7763                 0.8720
 IR Inten    --      1.0023                23.1342                10.2398

                     34                     35                     36
                      A                      A                      A
 Frequencies --    979.2679              1001.4517              1022.6325
 Red. masses --      1.6269                 1.4288                 1.3470
 Frc consts  --      0.9192                 0.8443                 0.8300
 IR Inten    --      6.8869                13.4800                 3.6322

                     37                     38                     39
                      A                      A                      A
 Frequencies --   1039.9614              1041.1701              1063.7917
 Red. masses --      1.1915                 1.5062                 1.6253
 Frc consts  --      0.7592                 0.9620                 1.0837
 IR Inten    --     12.6508                 3.2268                 1.5435

                     40                     41                     42
                      A                      A                      A
 Frequencies --   1077.0045              1083.8431              1107.7329
 Red. masses --      2.7471                 2.5501                 2.1214
 Frc consts  --      1.8774                 1.7650                 1.5337
 IR Inten    --     73.5029                 4.4277                13.4273

                     43                     44                     45
                      A                      A                      A
 Frequencies --   1147.7790              1180.1764              1192.3200
 Red. masses --      1.8604                 1.9002                 2.0266
 Frc consts  --      1.4440                 1.5594                 1.6975
 IR Inten    --      1.0283                 4.5065                 8.5415

                     46                     47                     48
                      A                      A                      A
 Frequencies --   1197.7099              1222.1897              1259.0883
 Red. masses --      2.1696                 2.0624                 1.4436
 Frc consts  --      1.8337                 1.8151                 1.3483
 IR Inten    --      2.7649                 5.7434                 5.5745

                     49                     50                     51
                      A                      A                      A
 Frequencies --   1294.3864              1307.5907              1331.2501
 Red. masses --      1.3734                 1.5719                 1.3090
 Frc consts  --      1.3557                 1.5835                 1.3668
 IR Inten    --      3.6344                 4.5278                 0.7755

                     52                     53                     54
                      A                      A                      A
 Frequencies --   1358.7018              1361.6426              1378.5996
 Red. masses --      1.2343                 1.2561                 1.2308
 Frc consts  --      1.3425                 1.3721                 1.3781
 IR Inten    --      0.4626                 0.7667                 2.2350

                     55                     56                     57
                      A                      A                      A
 Frequencies --   1392.4587              1403.8358              1413.4548
 Red. masses --      1.3951                 1.2399                 1.3852
 Frc consts  --      1.5938                 1.4396                 1.6305
 IR Inten    --      5.5744                 5.9415                 1.1742

                     58                     59                     60
                      A                      A                      A
 Frequencies --   1421.9439              1430.8196              1439.8405
 Red. masses --      1.4297                 1.2311                 1.2340
 Frc consts  --      1.7031                 1.4849                 1.5072
 IR Inten    --      0.3552                28.1714                 4.6692

                     61                     62                     63
                      A                      A                      A
 Frequencies --   1442.6035              1443.9003              1471.6630
 Red. masses --      1.2279                 1.2657                 1.2196
 Frc consts  --      1.5056                 1.5548                 1.5563
 IR Inten    --     16.1650                19.1042                 1.4581

                     64                     65                     66
                      A                      A                      A
 Frequencies --   1503.9420              1515.4468              1520.8830
 Red. masses --      1.0839                 1.0807                 1.0655
 Frc consts  --      1.4445                 1.4624                 1.4521
 IR Inten    --      1.9831                 0.9013                 1.7090

                     67                     68                     69
                      A                      A                      A
 Frequencies --   1521.9397              1527.6181              1530.2611
 Red. masses --      1.0705                 1.0588                 1.0591
 Frc consts  --      1.4610                 1.4557                 1.4612
 IR Inten    --      1.2337                 2.2693                 5.5935

                     70                     71                     72
                      A                      A                      A
 Frequencies --   1533.9774              1535.0825              1537.9178
 Red. masses --      1.0505                 1.0421                 1.0594
 Frc consts  --      1.4565                 1.4469                 1.4762
 IR Inten    --      6.2831                 2.0058                 6.4802

                     73                     74                     75
                      A                      A                      A
 Frequencies --   1546.4276              1718.4027              2983.9961
 Red. masses --      1.0696                 4.5035                 1.0714
 Frc consts  --      1.5071                 7.8351                 5.6210
 IR Inten    --      5.4765                 5.6453                38.4287

                     76                     77                     78
                      A                      A                      A
 Frequencies --   2992.9310              3031.8118              3039.2985
 Red. masses --      1.0669                 1.0693                 1.0614
 Frc consts  --      5.6305                 5.7909                 5.7769
 IR Inten    --     71.4315                11.2180                18.9194

                     79                     80                     81
                      A                      A                      A
 Frequencies --   3040.3395              3043.6820              3046.8611
 Red. masses --      1.0474                 1.0416                 1.0411
 Frc consts  --      5.7042                 5.6854                 5.6947
 IR Inten    --     24.0770                10.4901                11.6284

                     82                     83                     84
                      A                      A                      A
 Frequencies --   3047.9673              3062.9676              3067.0391
 Red. masses --      1.0613                 1.0910                 1.1010
 Frc consts  --      5.8091                 6.0308                 6.1022
 IR Inten    --     43.1097                42.8928                13.3220

                     85                     86                     87
                      A                      A                      A
 Frequencies --   3092.2740              3103.5443              3107.7054
 Red. masses --      1.0965                 1.1010                 1.1004
 Frc consts  --      6.1776                 6.2483                 6.2614
 IR Inten    --     27.7321                41.2937                40.2636

                     88                     89                     90
                      A                      A                      A
 Frequencies --   3107.8104              3115.0093              3115.6180
 Red. masses --      1.1008                 1.0970                 1.0994
 Frc consts  --      6.2640                 6.2716                 6.2878
 IR Inten    --     31.6516                61.7275                58.5290

                     91                     92                     93
                      A                      A                      A
 Frequencies --   3122.7487              3123.2704              3134.0689
 Red. masses --      1.1003                 1.1001                 1.0853
 Frc consts  --      6.3220                 6.3228                 6.2809
 IR Inten    --     11.8294                43.5095                28.3829

                     94                     95                     96
                      A                      A                      A
 Frequencies --   3171.1789              3259.2816              3752.9665
 Red. masses --      1.0661                 1.1136                 1.0657
 Frc consts  --      6.3168                 6.9697                 8.8438
 IR Inten    --     14.9962                 8.9148                11.5749

 - Thermochemistry -
 -------------------
 Temperature   298.150 Kelvin.  Pressure   1.00000 Atm.
 Atom     1 has atomic number  6 and mass  12.00000

 Molecular mass:   170.16707 amu.
 Principal axes and moments of inertia in atomic units:
                           1         2         3
     Eigenvalues --  1295.894673637.836883838.99350
           X            0.99999   0.00196  -0.00262
           Y           -0.00203   0.99966  -0.02607
           Z            0.00257   0.02608   0.99966
 This molecule is an asymmetric top.
 Rotational symmetry number  1.
 Warning -- assumption of classical behavior for rotation
           may cause significant error
 Rotational temperatures (Kelvin)      0.06684     0.02381     0.02256
 Rotational constants (GHZ):           1.39266     0.49610     0.47011
 Zero-point vibrational energy     825083.2 (Joules/Mol)
                                  197.19961 (Kcal/Mol)
 Warning -- explicit consideration of  23 degrees of freedom as
           vibrations may cause significant error
 Vibrational temperatures:     45.68    69.57    72.90   171.35   190.22
          (Kelvin)            199.60   264.39   287.99   309.33   343.69
                              365.12   405.32   417.15   447.81   476.09
                              518.45   529.01   568.90   603.89   630.69
                              654.39   765.08   844.53  1011.21  1055.95
                             1097.14  1193.92  1238.71  1274.11  1303.90
                             1324.21  1357.48  1371.30  1408.95  1440.87
                             1471.34  1496.27  1498.01  1530.56  1549.57
                             1559.41  1593.78  1651.40  1698.01  1715.48
                             1723.24  1758.46  1811.55  1862.33  1881.33
                             1915.37  1954.87  1959.10  1983.50  2003.44
                             2019.81  2033.65  2045.86  2058.63  2071.61
                             2075.58  2077.45  2117.39  2163.84  2180.39
                             2188.21  2189.73  2197.90  2201.70  2207.05
                             2208.64  2212.72  2224.96  2472.40  4293.30
                             4306.16  4362.10  4372.87  4374.37  4379.18
                             4383.75  4385.35  4406.93  4412.79  4449.09
                             4465.31  4471.29  4471.45  4481.80  4482.68
                             4492.94  4493.69  4509.23  4562.62  4689.38
                             5399.68

 Zero-point correction=                           0.314258 (Hartree/Particle)
 Thermal correction to Energy=                    0.329434
 Thermal correction to Enthalpy=                  0.330378
 Thermal correction to Gibbs Free Energy=         0.272285
 Sum of electronic and zero-point Energies=           -507.353846
 Sum of electronic and thermal Energies=              -507.338670
 Sum of electronic and thermal Enthalpies=            -507.337726
 Sum of electronic and thermal Free Energies=         -507.395819

                     E (Thermal)             CV                S
                      KCal/Mol        Cal/Mol-Kelvin    Cal/Mol-Kelvin
 Total                  206.723             56.774            122.267
 Electronic               0.000              0.000              0.000
 Translational            0.889              2.981             41.303
 Rotational               0.889              2.981             31.271
 Vibrational            204.945             50.812             49.693
 Vibration     1          0.594              1.983              5.717
 Vibration     2          0.595              1.978              4.884
 Vibration     3          0.595              1.977              4.791
 Vibration     4          0.609              1.933              3.115
 Vibration     5          0.612              1.921              2.914
 Vibration     6          0.614              1.915              2.821
 Vibration     7          0.631              1.862              2.290
 Vibration     8          0.638              1.840              2.132
 Vibration     9          0.645              1.818              2.001
 Vibration    10          0.657              1.781              1.811
 Vibration    11          0.665              1.756              1.704
 Vibration    12          0.681              1.707              1.523
 Vibration    13          0.686              1.692              1.474
 Vibration    14          0.700              1.652              1.356
 Vibration    15          0.713              1.614              1.256
 Vibration    16          0.735              1.554              1.121
 Vibration    17          0.740              1.539              1.089
 Vibration    18          0.762              1.480              0.980
 Vibration    19          0.782              1.427              0.893
 Vibration    20          0.799              1.387              0.832
 Vibration    21          0.813              1.350              0.781
 Vibration    22          0.887              1.180              0.583
 Vibration    23          0.944              1.060              0.473

                           ! Non-Optimized Parameters !
 Normal termination of Gaussian 16 at Wed Dec  9 18:31:24 2020.

 ----------------------------------------------------------------------
 # B3LYP/6-311++G(d,p) empiricaldispersion=gd3bj scf=xqc pop=npa geom=c
 heck
 ----------------------------------------------------------------------

 ---------------------------------------
 CID_102641918_JID_2716_Energie_neutraal
 ---------------------------------------
 Structure from the checkpoint file:  "JID_2716.chk"
 Charge =  0 Multiplicity = 1

 SCF Done:  E(RB3LYP) =  -507.822389954     A.U. after   14 cycles
 Normal termination of Gaussian 16 at Wed Dec  9 18:35:41 2020.

 ----------------------------------------------------------------------
 # B3LYP/6-311++G(d,p) empiricaldispersion=gd3bj scf=xqc pop=npa geom=c
 heck
 ----------------------------------------------------------------------

 -------------------------------------
 CID_102641918_JID_2716_Energie_kation
 -------------------------------------
 Structure from the checkpoint file:  "JID_2716.chk"
 Charge =  1 Multiplicity = 2

 SCF Done:  E(UB3LYP) =  -507.500242876     A.U. after   20 cycles
 Normal termination of Gaussian 16 at Wed Dec  9 18:43:51 2020.
 Gaussian 16:  ES64L-G16RevA.03 25-Dec-2016

 ----------------------------------------------------------------------
 # B3LYP/6-311++G(d,p) empiricaldispersion=gd3bj scf=xqc pop=npa geom=c
 heck
 ----------------------------------------------------------------------

 ------------------------------------
 CID_102641918_JID_2716_Energie_anion
 ------------------------------------
 Structure from the checkpoint file:  "JID_2716.chk"
 Charge = -1 Multiplicity = 2

                         Standard orientation:
 ---------------------------------------------------------------------
 Center     Atomic      Atomic             Coordinates (Angstroms)
 Number     Number       Type             X           Y           Z
 ---------------------------------------------------------------------
      1          6           0        3.734678   -0.653302    0.808454
      2          6           0        3.170308   -0.601027   -0.614663
      3          6           0        1.643081   -0.443369   -0.671403
      4          6           0        1.079908    0.815704    0.011495
      5          6           0        1.709570    2.095842   -0.558446
      6          6           0       -0.452939    0.923635   -0.101410
      7          6           0       -1.332325   -0.182586    0.546911
      8          6           0       -0.864289   -0.478746    1.982677
      9          6           0       -2.778428    0.374087    0.658906
     10          8           0       -3.328268    0.871388   -0.553588
     11          6           0       -1.333116   -1.477496   -0.256817
     12          6           0       -1.865158   -1.656167   -1.466902
     13          1           0        3.583685    0.292494    1.340784
     14          1           0        4.810908   -0.858552    0.801113
     15          1           0        3.248142   -1.443080    1.394867
     16          1           0        3.657111    0.208545   -1.172813
     17          1           0        3.436359   -1.527859   -1.139502
     18          1           0        1.315095   -0.450614   -1.720059
     19          1           0        1.191585   -1.331937   -0.216445
     20          1           0        1.333443    0.772590    1.078854
     21          1           0        1.532883    2.169302   -1.639386
     22          1           0        1.280558    2.988625   -0.088741
     23          1           0        2.791319    2.125825   -0.395573
     24          1           0       -0.738009    1.881264    0.363770
     25          1           0       -0.717454    0.998082   -1.164438
     26          1           0       -0.788874    0.440527    2.574699
     27          1           0       -1.569340   -1.149344    2.488631
     28          1           0        0.116239   -0.964889    1.991365
     29          1           0       -3.450124   -0.426902    0.979942
     30          1           0       -2.791248    1.157789    1.434772
     31          1           0       -2.822683    1.661554   -0.796878
     32          1           0       -0.864055   -2.332062    0.232296
     33          1           0       -1.828173   -2.626877   -1.954615
     34          1           0       -2.368965   -0.855036   -1.996758
 ---------------------------------------------------------------------

 SCF Done:  E(UB3LYP) =  -507.807814428     A.U. after   32 cycles

 The electronic state is 2-A.
 Alpha  occ. eigenvalues --  -19.02763 -10.11693 -10.08923 -10.07332 -10.06959
 Alpha  occ. eigenvalues --  -10.06630 -10.06275 -10.06234 -10.06035 -10.05768
 Alpha  occ. eigenvalues --  -10.05576 -10.05327  -0.92945  -0.73734  -0.70262
 Alpha  occ. eigenvalues --   -0.65887  -0.64162  -0.58265  -0.57987  -0.57557
 Alpha  occ. eigenvalues --   -0.51268  -0.49934  -0.45252  -0.43268  -0.41333
 Alpha  occ. eigenvalues --   -0.38252  -0.36525  -0.35992  -0.34378  -0.33648
 Alpha  occ. eigenvalues --   -0.32858  -0.31782  -0.30909  -0.29785  -0.28983
 Alpha  occ. eigenvalues --   -0.28399  -0.27787  -0.26569  -0.25378  -0.24975
 Alpha  occ. eigenvalues --   -0.24615  -0.23526  -0.22618  -0.21714  -0.21249
 Alpha  occ. eigenvalues --   -0.20935  -0.17999  -0.15477   0.04453
 Alpha virt. eigenvalues --    0.06588   0.07134   0.07366   0.08653   0.08837
 Alpha virt. eigenvalues --    0.09325   0.09430   0.09594   0.10273   0.11353
 Alpha virt. eigenvalues --    0.11418   0.11766   0.12477   0.12858   0.13083

  Beta  occ. eigenvalues --  -19.02748 -10.11675 -10.08921 -10.07319 -10.06951
  Beta  occ. eigenvalues --  -10.06604 -10.06260 -10.06208 -10.06027 -10.05760
  Beta  occ. eigenvalues --  -10.05543 -10.05294  -0.92915  -0.73710  -0.70238
  Beta  occ. eigenvalues --   -0.65854  -0.64136  -0.58209  -0.57931  -0.57505
  Beta  occ. eigenvalues --   -0.51212  -0.49878  -0.45204  -0.43221  -0.41288
  Beta  occ. eigenvalues --   -0.38217  -0.36497  -0.35958  -0.34338  -0.33613
  Beta  occ. eigenvalues --   -0.32829  -0.31749  -0.30876  -0.29749  -0.28957
  Beta  occ. eigenvalues --   -0.28366  -0.27753  -0.26527  -0.25349  -0.24937
  Beta  occ. eigenvalues --   -0.24590  -0.23496  -0.22589  -0.21678  -0.21218
  Beta  occ. eigenvalues --   -0.20903  -0.17975  -0.15457
  Beta virt. eigenvalues --    0.06620   0.07539   0.07764   0.07828   0.08900
  Beta virt. eigenvalues --    0.09242   0.09523   0.09797   0.10160   0.10638
  Beta virt. eigenvalues --    0.11655   0.11950   0.12122   0.12748   0.13196

 Mulliken charges and spin densities:
               1          2
     1  C    0.602940  -1.198975
     2  C   -0.371322  -0.038055
     3  C   -0.047166  -0.147915
     4  C   -3.022801   3.594121
     5  C    1.075250  -1.792365
     6  C    2.026153  -3.074242
     7  C   -0.750887   1.797838
     8  C    1.807327  -2.436899
     9  C    0.409404  -1.005164
    10  O   -0.283946   0.068337
    11  C   -0.993594   1.021335
    12  C    0.079252  -0.758716
    13  H   -0.310620   0.466085
    14  H   -0.375898   0.520370
    15  H   -0.172072   0.311861
    16  H    0.106572   0.023751
    17  H   -0.197625   0.350313
    18  H   -0.123453   0.291148
    19  H    0.433383  -0.353201
    20  H    0.331224  -0.170651
    21  H   -0.197189   0.349377
    22  H   -0.424556   0.558937
    23  H   -0.099916   0.250053
    24  H   -0.205099   0.389559
    25  H    0.446080  -0.314742
    26  H   -0.263973   0.431180
    27  H   -0.219294   0.373901
    28  H    0.211212  -0.061157
    29  H    0.182140  -0.005136
    30  H   -0.202769   0.372160
    31  H    0.014995   0.239011
    32  H   -0.483793   0.698147
    33  H   -0.083461   0.205745
    34  H    0.103500   0.043992
 Sum of Mulliken charges =  -1.00000   1.00000

 Dipole moment (field-independent basis, Debye):
    X=             -2.2494    Y=             -1.6379    Z=             -2.1667  Tot=              3.5266
 Quadrupole moment (field-independent basis, Debye-Ang):
   XX=           -148.9280   YY=           -128.4901   ZZ=           -115.4269
   XY=              3.1192   XZ=             -2.8504   YZ=             -0.2562

 Summary of Natural Population Analysis:

                                       Natural Population
                Natural  -----------------------------------------------
    Atom  No    Charge         Core      Valence    Rydberg      Total
 -----------------------------------------------------------------------
      C    1   -0.28738      0.99967     2.28284    0.00487     3.28738
      C    2   -0.18893      0.99964     2.18133    0.00795     3.18893
      C    3   -0.18800      0.99960     2.17999    0.00840     3.18800
      C    4   -0.11579      0.99959     2.10569    0.01050     3.11579
      C    5   -0.28375      0.99965     2.27743    0.00667     3.28375
      C    6   -0.18576      0.99958     2.17315    0.01302     3.18576
      C    7   -0.07479      0.99954     2.06111    0.01414     3.07479
      C    8   -0.28624      0.99964     2.27834    0.00827     3.28624
      C    9    0.00004      0.99954     1.98596    0.01447     2.99996
      O   10   -0.37016      0.99990     3.36374    0.00652     4.37016
      C   11   -0.08375      0.99954     2.07105    0.01316     3.08375
      C   12   -0.19146      0.99955     2.18573    0.00619     3.19146
      H   13    0.09706      0.00000     0.40176    0.00118     0.40294
      H   14    0.09815      0.00000     0.40080    0.00105     0.40185
      H   15    0.09617      0.00000     0.40249    0.00134     0.40383
      H   16    0.09324      0.00000     0.40558    0.00118     0.40676
      H   17    0.09432      0.00000     0.40470    0.00098     0.40568
      H   18    0.09718      0.00000     0.40164    0.00118     0.40282
      H   19    0.09872      0.00000     0.39939    0.00190     0.40128
      H   20    0.09591      0.00000     0.40159    0.00250     0.40409
      H   21    0.09510      0.00000     0.40386    0.00104     0.40490
      H   22    0.10137      0.00000     0.39733    0.00130     0.39863
      H   23    0.10035      0.00000     0.39860    0.00105     0.39965
      H   24    0.09936      0.00000     0.39874    0.00190     0.40064
      H   25    0.09866      0.00000     0.39977    0.00157     0.40134
      H   26    0.10359      0.00000     0.39508    0.00133     0.39641
      H   27    0.10043      0.00000     0.39848    0.00109     0.39957
      H   28    0.10358      0.00000     0.39499    0.00142     0.39642
      H   29    0.08792      0.00000     0.41098    0.00110     0.41208
      H   30    0.08016      0.00000     0.41844    0.00140     0.41984
      H   31    0.22959      0.00000     0.26706    0.00335     0.27041
      H   32    0.09457      0.00000     0.40397    0.00146     0.40543
      H   33    0.09052      0.00000     0.40842    0.00106     0.40948
      H   34    0.10001      0.00000     0.39863    0.00136     0.39999
 =======================================================================
   * Total *    0.00000     11.99543    35.85867    0.14590    48.00000

 Normal termination of Gaussian 16 at Wed Dec  9 18:56:42 2020.
