 Gaussian 16, Revision A.03,

 -----------------------------------------------------------
 # opt freq B3LYP/6-31G(d) empiricaldispersion=gd3bj scf=xqc
 -----------------------------------------------------------

 -------------------------------
 CID_106924285_JID_6478_neutraal
 -------------------------------
 Symbolic Z-matrix:
 Charge =  0 Multiplicity = 1

 SCF Done:  E(RB3LYP) =  -1053.49644919     A.U. after   14 cycles
 SCF Done:  E(RB3LYP) =  -1053.50234204     A.U. after   12 cycles
 SCF Done:  E(RB3LYP) =  -1053.50267594     A.U. after   12 cycles
 SCF Done:  E(RB3LYP) =  -1053.49960168     A.U. after   14 cycles
 SCF Done:  E(RB3LYP) =  -1053.50301559     A.U. after   12 cycles
 SCF Done:  E(RB3LYP) =  -1053.50318238     A.U. after   12 cycles
 SCF Done:  E(RB3LYP) =  -1053.50355226     A.U. after   11 cycles
 SCF Done:  E(RB3LYP) =  -1053.50389899     A.U. after   11 cycles
 SCF Done:  E(RB3LYP) =  -1053.50417490     A.U. after   12 cycles
 SCF Done:  E(RB3LYP) =  -1053.50447424     A.U. after   11 cycles
 SCF Done:  E(RB3LYP) =  -1053.50468101     A.U. after    8 cycles
 SCF Done:  E(RB3LYP) =  -1053.50468278     A.U. after    8 cycles
 SCF Done:  E(RB3LYP) =  -1053.50468328     A.U. after    9 cycles
 SCF Done:  E(RB3LYP) =  -1053.50468358     A.U. after    7 cycles
 SCF Done:  E(RB3LYP) =  -1053.50468360     A.U. after    6 cycles
 Optimization completed.
    -- Stationary point found.
 Normal termination of Gaussian 16 at Thu Dec 10 23:16:55 2020.

 --------------------------------------------------------------------
 #N Geom=AllCheck Guess=TCheck SCRF=Check GenChk RB3LYP/6-31G(d) Freq
 --------------------------------------------------------------------

 Structure from the checkpoint file:  "JID_6478.chk"
 -------------------------------
 CID_106924285_JID_6478_neutraal
 -------------------------------
 Charge =  0 Multiplicity = 1

 SCF Done:  E(RB3LYP) =  -1053.50468360     A.U. after    1 cycles

  Exact polarizability: 187.348 -21.859 150.184  -7.691  -4.223 145.101
 Approx polarizability: 227.457 -33.073 213.730 -14.570 -13.510 237.394

                      1                      2                      3
                      A                      A                      A
 Frequencies --     20.4732                32.4563                35.7996
 Red. masses --      4.1956                 3.6346                 3.3962
 Frc consts  --      0.0010                 0.0023                 0.0026
 IR Inten    --      0.5062                 0.1289                 0.4089

                      4                      5                      6
                      A                      A                      A
 Frequencies --     39.2126                62.0715               104.3446
 Red. masses --      2.8843                 3.7732                 2.4139
 Frc consts  --      0.0026                 0.0086                 0.0155
 IR Inten    --      0.7697                 0.4627                 0.1439

                      7                      8                      9
                      A                      A                      A
 Frequencies --    117.2446               121.2884               147.1397
 Red. masses --      1.2245                 2.3068                 3.1967
 Frc consts  --      0.0099                 0.0200                 0.0408
 IR Inten    --      0.0529                 0.5487                 2.1588

                     10                     11                     12
                      A                      A                      A
 Frequencies --    149.1368               163.5470               195.1937
 Red. masses --      1.0318                 3.6574                 2.1491
 Frc consts  --      0.0135                 0.0576                 0.0482
 IR Inten    --      0.0075                 0.8786                 1.1553

                     13                     14                     15
                      A                      A                      A
 Frequencies --    220.7679               221.5486               236.4094
 Red. masses --      1.2933                 4.2469                 2.2180
 Frc consts  --      0.0371                 0.1228                 0.0730
 IR Inten    --      1.7152                 0.7239                 1.9694

                     16                     17                     18
                      A                      A                      A
 Frequencies --    245.8199               270.6627               291.3243
 Red. masses --      1.8860                 2.9798                 1.9040
 Frc consts  --      0.0671                 0.1286                 0.0952
 IR Inten    --      0.0519                 2.5680                 1.9798

                     19                     20                     21
                      A                      A                      A
 Frequencies --    318.5004               327.2410               327.7289
 Red. masses --      1.7295                 4.2781                 2.5837
 Frc consts  --      0.1034                 0.2699                 0.1635
 IR Inten    --      2.4490                 1.2697                 0.2597

                     22                     23                     24
                      A                      A                      A
 Frequencies --    368.7534               411.8652               441.6453
 Red. masses --      2.9812                 2.1058                 3.5299
 Frc consts  --      0.2388                 0.2105                 0.4057
 IR Inten    --      1.7557                 1.8645                 2.1442

                     25                     26                     27
                      A                      A                      A
 Frequencies --    459.6782               505.2168               582.1474
 Red. masses --      3.2277                 4.7559                 3.0044
 Frc consts  --      0.4018                 0.7152                 0.5999
 IR Inten    --      1.0451                 1.5396                 0.6991

                     28                     29                     30
                      A                      A                      A
 Frequencies --    642.0231               643.1107               697.4777
 Red. masses --      4.6746                 4.8950                 9.1994
 Frc consts  --      1.1353                 1.1928                 2.6368
 IR Inten    --      8.1651                 0.1524                 5.5311

                     31                     32                     33
                      A                      A                      A
 Frequencies --    716.3327               742.8119               756.9152
 Red. masses --      2.6803                 1.9552                 4.4325
 Frc consts  --      0.8103                 0.6356                 1.4962
 IR Inten    --     21.5865                49.3016                 3.7490

                     34                     35                     36
                      A                      A                      A
 Frequencies --    783.8867               824.3419               856.4162
 Red. masses --      1.2611                 1.8923                 1.7636
 Frc consts  --      0.4566                 0.7576                 0.7621
 IR Inten    --     17.2265                41.4773                 1.8735

                     37                     38                     39
                      A                      A                      A
 Frequencies --    897.2893               921.5864               926.1959
 Red. masses --      1.8940                 1.6377                 1.2942
 Frc consts  --      0.8984                 0.8195                 0.6541
 IR Inten    --      0.9754                 8.9695                 2.3612

                     40                     41                     42
                      A                      A                      A
 Frequencies --    954.1597               971.7545               999.0234
 Red. masses --      1.8858                 2.6866                 3.4259
 Frc consts  --      1.0116                 1.4947                 2.0145
 IR Inten    --     11.2730                 4.7467                 0.7191

                     43                     44                     45
                      A                      A                      A
 Frequencies --    999.8722              1010.9695              1075.0738
 Red. masses --      1.4772                 2.0459                 2.5990
 Frc consts  --      0.8701                 1.2320                 1.7699
 IR Inten    --      7.6856                 1.7269                 5.5100

                     46                     47                     48
                      A                      A                      A
 Frequencies --   1079.0011              1084.1952              1092.5017
 Red. masses --      1.4117                 1.4950                 2.4750
 Frc consts  --      0.9684                 1.0354                 1.7405
 IR Inten    --      2.6807                 0.0274                 1.0546

                     49                     50                     51
                      A                      A                      A
 Frequencies --   1099.5238              1144.3487              1148.5698
 Red. masses --      1.5361                 3.6735                 2.0771
 Frc consts  --      1.0942                 2.8343                 1.6145
 IR Inten    --      1.6924                60.4698                11.8131

                     52                     53                     54
                      A                      A                      A
 Frequencies --   1158.2128              1167.8925              1194.6518
 Red. masses --      1.8031                 2.5070                 2.0395
 Frc consts  --      1.4251                 2.0147                 1.7150
 IR Inten    --     13.5222                41.5322                 5.7639

                     55                     56                     57
                      A                      A                      A
 Frequencies --   1231.2771              1235.3217              1268.0334
 Red. masses --      4.5140                 1.3844                 5.9156
 Frc consts  --      4.0320                 1.2448                 5.6041
 IR Inten    --     99.2288                 5.5244                49.9990

                     58                     59                     60
                      A                      A                      A
 Frequencies --   1280.4167              1305.6395              1312.6560
 Red. masses --      1.2734                 1.2010                 1.2050
 Frc consts  --      1.2300                 1.2063                 1.2233
 IR Inten    --      9.1417                14.8254                 3.7979

                     61                     62                     63
                      A                      A                      A
 Frequencies --   1355.4070              1355.9237              1369.6048
 Red. masses --      1.6341                 2.2427                 1.2707
 Frc consts  --      1.7688                 2.4294                 1.4044
 IR Inten    --      7.2168                28.1316                 1.6287

                     64                     65                     66
                      A                      A                      A
 Frequencies --   1387.2748              1392.9468              1418.5115
 Red. masses --      1.3172                 1.3518                 1.2958
 Frc consts  --      1.4935                 1.5454                 1.5362
 IR Inten    --      5.2777                 4.7561                 3.7201

                     67                     68                     69
                      A                      A                      A
 Frequencies --   1422.6754              1439.4683              1444.0811
 Red. masses --      1.3369                 1.2567                 1.2814
 Frc consts  --      1.5942                 1.5342                 1.5744
 IR Inten    --      4.1614                 5.2222                10.7077

                     70                     71                     72
                      A                      A                      A
 Frequencies --   1447.7998              1451.7253              1488.5823
 Red. masses --      1.5308                 1.2449                 1.1066
 Frc consts  --      1.8905                 1.5457                 1.4448
 IR Inten    --      8.6353                 2.5467                 9.0509

                     73                     74                     75
                      A                      A                      A
 Frequencies --   1501.3064              1502.3705              1505.4224
 Red. masses --      1.0428                 1.0935                 1.0430
 Frc consts  --      1.3848                 1.4542                 1.3927
 IR Inten    --      3.1666                 3.2954                 7.7043

                     76                     77                     78
                      A                      A                      A
 Frequencies --   1508.6177              1515.7667              1520.4629
 Red. masses --      1.0986                 1.1678                 1.0790
 Frc consts  --      1.4731                 1.5809                 1.4697
 IR Inten    --      0.7308                17.7168                 9.9703

                     79                     80                     81
                      A                      A                      A
 Frequencies --   1521.8300              1527.9709              1529.9810
 Red. masses --      1.0847                 1.0587                 1.0630
 Frc consts  --      1.4801                 1.4563                 1.4661
 IR Inten    --      5.1253                 9.2338                 4.6774

                     82                     83                     84
                      A                      A                      A
 Frequencies --   1534.3247              1543.4230              1547.1036
 Red. masses --      1.0525                 1.0874                 1.0595
 Frc consts  --      1.4599                 1.5261                 1.4941
 IR Inten    --     10.3245                 6.7726                 3.3571

                     85                     86                     87
                      A                      A                      A
 Frequencies --   1554.7443              1710.7020              2926.1551
 Red. masses --      6.9960                 7.6726                 1.0732
 Frc consts  --      9.9636                13.2294                 5.4139
 IR Inten    --     93.8891                 9.6006                63.6472

                     88                     89                     90
                      A                      A                      A
 Frequencies --   3038.5776              3040.1923              3041.7887
 Red. masses --      1.0757                 1.0408                 1.0610
 Frc consts  --      5.8515                 5.6676                 5.7838
 IR Inten    --      9.9095                17.9288                25.9776

                     91                     92                     93
                      A                      A                      A
 Frequencies --   3042.1896              3045.1616              3051.7462
 Red. masses --      1.0431                 1.0380                 1.0366
 Frc consts  --      5.6879                 5.6709                 5.6879
 IR Inten    --     31.1821                38.5224                26.8859

                     94                     95                     96
                      A                      A                      A
 Frequencies --   3058.8437              3061.3475              3080.3095
 Red. masses --      1.0665                 1.0778                 1.0601
 Frc consts  --      5.8794                 5.9511                 5.9264
 IR Inten    --     27.8147                49.5239                18.2168

                     97                     98                     99
                      A                      A                      A
 Frequencies --   3081.6476              3095.0392              3102.7686
 Red. masses --      1.1003                 1.1020                 1.1046
 Frc consts  --      6.1564                 6.2194                 6.2654
 IR Inten    --      7.2927                15.2481                15.9512

                    100                    101                    102
                      A                      A                      A
 Frequencies --   3105.9579              3107.5555              3108.2826
 Red. masses --      1.1015                 1.1019                 1.1018
 Frc consts  --      6.2610                 6.2694                 6.2718
 IR Inten    --     16.2693                 8.9223                86.5007

                    103                    104                    105
                      A                      A                      A
 Frequencies --   3114.0765              3115.5218              3133.4401
 Red. masses --      1.1014                 1.1013                 1.1013
 Frc consts  --      6.2932                 6.2983                 6.3706
 IR Inten    --     68.0873                21.6768                19.8620

                    106                    107                    108
                      A                      A                      A
 Frequencies --   3140.3120              3141.8147              3512.7109
 Red. masses --      1.1055                 1.0985                 1.0730
 Frc consts  --      6.4230                 6.3888                 7.8011
 IR Inten    --      3.2191                13.6625                 0.8560

 - Thermochemistry -
 -------------------
 Temperature   298.150 Kelvin.  Pressure   1.00000 Atm.
 Atom     1 has atomic number  6 and mass  12.00000

 Molecular mass:   242.14529 amu.
 Principal axes and moments of inertia in atomic units:
                           1         2         3
     Eigenvalues --  2607.928078634.822729515.55287
           X            0.99996  -0.00875   0.00291
           Y            0.00862   0.99916   0.04015
           Z           -0.00326  -0.04012   0.99919
 This molecule is an asymmetric top.
 Rotational symmetry number  1.
 Warning -- assumption of classical behavior for rotation
           may cause significant error
 Rotational temperatures (Kelvin)      0.03321     0.01003     0.00910
 Rotational constants (GHZ):           0.69202     0.20901     0.18966
 Zero-point vibrational energy     874961.7 (Joules/Mol)
                                  209.12086 (Kcal/Mol)
 Warning -- explicit consideration of  27 degrees of freedom as
           vibrations may cause significant error
 Vibrational temperatures:     29.46    46.70    51.51    56.42    89.31
          (Kelvin)            150.13   168.69   174.51   211.70   214.57
                              235.31   280.84   317.64   318.76   340.14
                              353.68   389.42   419.15   458.25   470.83
                              471.53   530.55   592.58   635.43   661.37
                              726.89   837.58   923.73   925.29  1003.51
                             1030.64  1068.74  1089.03  1127.84  1186.04
                             1232.19  1291.00  1325.96  1332.59  1372.82
                             1398.14  1437.37  1438.59  1454.56  1546.79
                             1552.44  1559.92  1571.87  1581.97  1646.46
                             1652.54  1666.41  1680.34  1718.84  1771.53
                             1777.35  1824.42  1842.23  1878.52  1888.62
                             1950.13  1950.87  1970.56  1995.98  2004.14
                             2040.92  2046.91  2071.07  2077.71  2083.06
                             2088.71  2141.74  2160.05  2161.58  2165.97
                             2170.56  2180.85  2187.61  2189.57  2198.41
                             2201.30  2207.55  2220.64  2225.94  2236.93
                             2461.32  4210.08  4371.84  4374.16  4376.46
                             4377.03  4381.31  4390.78  4400.99  4404.60
                             4431.88  4433.80  4453.07  4464.19  4468.78
                             4471.08  4472.13  4480.46  4482.54  4508.32
                             4518.21  4520.37  5054.01

 Zero-point correction=                           0.333255 (Hartree/Particle)
 Thermal correction to Energy=                    0.352367
 Thermal correction to Enthalpy=                  0.353311
 Thermal correction to Gibbs Free Energy=         0.283586
 Sum of electronic and zero-point Energies=          -1053.171428
 Sum of electronic and thermal Energies=             -1053.152316
 Sum of electronic and thermal Enthalpies=           -1053.151372
 Sum of electronic and thermal Free Energies=        -1053.221098

                     E (Thermal)             CV                S
                      KCal/Mol        Cal/Mol-Kelvin    Cal/Mol-Kelvin
 Total                  221.114             68.690            146.751
 Electronic               0.000              0.000              0.000
 Translational            0.889              2.981             42.354
 Rotational               0.889              2.981             33.727
 Vibrational            219.336             62.728             70.670
 Vibration     1          0.593              1.986              6.588
 Vibration     2          0.594              1.983              5.673
 Vibration     3          0.594              1.982              5.479
 Vibration     4          0.594              1.981              5.298
 Vibration     5          0.597              1.972              4.390
 Vibration     6          0.605              1.946              3.371
 Vibration     7          0.608              1.935              3.145
 Vibration     8          0.609              1.931              3.080
 Vibration     9          0.617              1.906              2.709
 Vibration    10          0.618              1.904              2.683
 Vibration    11          0.623              1.887              2.508
 Vibration    12          0.636              1.847              2.178
 Vibration    13          0.647              1.809              1.953
 Vibration    14          0.648              1.808              1.946
 Vibration    15          0.655              1.785              1.830
 Vibration    16          0.660              1.770              1.760
 Vibration    17          0.674              1.727              1.592
 Vibration    18          0.687              1.690              1.466
 Vibration    19          0.705              1.638              1.318
 Vibration    20          0.711              1.621              1.274
 Vibration    21          0.711              1.620              1.271
 Vibration    22          0.741              1.536              1.085
 Vibration    23          0.776              1.444              0.920
 Vibration    24          0.801              1.379              0.821
 Vibration    25          0.818              1.339              0.767
 Vibration    26          0.860              1.238              0.645
 Vibration    27          0.939              1.070              0.481

                           ! Non-Optimized Parameters !
 Normal termination of Gaussian 16 at Thu Dec 10 23:28:26 2020.

 ----------------------------------------------------------------------
 # B3LYP/6-311++G(d,p) empiricaldispersion=gd3bj scf=xqc pop=npa geom=c
 heck
 ----------------------------------------------------------------------

 ---------------------------------------
 CID_106924285_JID_6478_Energie_neutraal
 ---------------------------------------
 Structure from the checkpoint file:  "JID_6478.chk"
 Charge =  0 Multiplicity = 1

 SCF Done:  E(RB3LYP) =  -1053.71492457     A.U. after   15 cycles
 Normal termination of Gaussian 16 at Thu Dec 10 23:34:24 2020.

 ----------------------------------------------------------------------
 # B3LYP/6-311++G(d,p) empiricaldispersion=gd3bj scf=xqc pop=npa geom=c
 heck
 ----------------------------------------------------------------------

 -------------------------------------
 CID_106924285_JID_6478_Energie_kation
 -------------------------------------
 Structure from the checkpoint file:  "JID_6478.chk"
 Charge =  1 Multiplicity = 2

 SCF Done:  E(UB3LYP) =  -1053.44446011     A.U. after   23 cycles
 Normal termination of Gaussian 16 at Thu Dec 10 23:46:56 2020.
 Gaussian 16:  ES64L-G16RevA.03 25-Dec-2016

 ----------------------------------------------------------------------
 # B3LYP/6-311++G(d,p) empiricaldispersion=gd3bj scf=xqc pop=npa geom=c
 heck
 ----------------------------------------------------------------------

 ------------------------------------
 CID_106924285_JID_6478_Energie_anion
 ------------------------------------
 Structure from the checkpoint file:  "JID_6478.chk"
 Charge = -1 Multiplicity = 2

                         Standard orientation:
 ---------------------------------------------------------------------
 Center     Atomic      Atomic             Coordinates (Angstroms)
 Number     Number       Type             X           Y           Z
 ---------------------------------------------------------------------
      1          6           0       -5.501244   -1.577599    0.147649
      2          6           0       -4.481511   -1.724861   -0.986134
      3          6           0       -3.344969   -0.701922   -0.920172
      4          7           0       -2.530930   -0.883605    0.277788
      5          6           0       -1.314541   -0.078265    0.327760
      6          6           0       -1.496193    1.456044    0.280921
      7          6           0       -2.405776    1.947814    1.414353
      8          6           0       -0.155072    2.195987    0.369936
      9         16           0        0.994472    1.896106   -1.038418
     10          6           0        1.988458    0.631201   -0.335821
     11          7           0        1.987178    0.143434    0.865792
     12          6           0        2.998356   -0.828744    0.851220
     13          6           0        3.564263   -0.866424   -0.383169
     14          8           0        2.910947    0.080982   -1.165918
     15          6           0        4.647832   -1.644340   -1.032834
     16          6           0        3.304174   -1.633550    2.069876
     17          1           0       -5.050417   -1.787386    1.124594
     18          1           0       -6.336968   -2.274623    0.022274
     19          1           0       -5.916196   -0.561698    0.176840
     20          1           0       -4.047409   -2.731720   -0.964982
     21          1           0       -4.993205   -1.611717   -1.950956
     22          1           0       -2.682543   -0.835621   -1.785249
     23          1           0       -3.776516    0.313956   -1.013889
     24          1           0       -3.093448   -0.707765    1.106435
     25          1           0       -0.766939   -0.342358    1.239942
     26          1           0       -0.682441   -0.386655   -0.512551
     27          1           0       -1.963124    1.723267   -0.676620
     28          1           0       -1.983112    1.692099    2.394482
     29          1           0       -2.539145    3.035017    1.379350
     30          1           0       -3.399996    1.493086    1.347740
     31          1           0       -0.315898    3.278307    0.368959
     32          1           0        0.389862    1.929911    1.279758
     33          1           0        5.075680   -2.351258   -0.316865
     34          1           0        4.275272   -2.213725   -1.893166
     35          1           0        5.453633   -0.991970   -1.391051
     36          1           0        3.597553   -0.984149    2.902778
     37          1           0        2.422743   -2.199546    2.392796
     38          1           0        4.117091   -2.341862    1.884831
 ---------------------------------------------------------------------

 SCF Done:  E(UB3LYP) =  -1053.70202501     A.U. after   33 cycles
 SCF Done:  E(UB3LYP) =  -1053.70202501     a.u. after    1 cycles

 The electronic state is 2-A.
 Alpha  occ. eigenvalues --  -88.77762 -19.10655 -14.21691 -14.20397 -10.19225
 Alpha  occ. eigenvalues --  -10.13860 -10.11696 -10.11313 -10.10083 -10.09444
 Alpha  occ. eigenvalues --  -10.09058 -10.08992 -10.08157 -10.07961 -10.07397
 Alpha  occ. eigenvalues --  -10.07372  -7.86387  -5.82787  -5.82375  -5.81787
 Alpha  occ. eigenvalues --   -1.04218  -0.83476  -0.81638  -0.74661  -0.71588
 Alpha  occ. eigenvalues --   -0.68808  -0.66883  -0.64682  -0.60216  -0.59995
 Alpha  occ. eigenvalues --   -0.56899  -0.55262  -0.51386  -0.49867  -0.47688
 Alpha  occ. eigenvalues --   -0.47255  -0.41765  -0.40397  -0.39689  -0.38722
 Alpha  occ. eigenvalues --   -0.36589  -0.35795  -0.34836  -0.34198  -0.33738
 Alpha  occ. eigenvalues --   -0.33148  -0.32790  -0.32424  -0.31968  -0.31634
 Alpha  occ. eigenvalues --   -0.30613  -0.30314  -0.29452  -0.28777  -0.27677
 Alpha  occ. eigenvalues --   -0.26245  -0.26040  -0.25218  -0.25015  -0.24416
 Alpha  occ. eigenvalues --   -0.23677  -0.22862  -0.20466  -0.19003  -0.13394
 Alpha  occ. eigenvalues --   -0.12414   0.03928
 Alpha virt. eigenvalues --    0.05055   0.06195   0.06917   0.07392   0.08051
 Alpha virt. eigenvalues --    0.08248   0.08610   0.09095   0.09148   0.09675
 Alpha virt. eigenvalues --    0.09902   0.10505   0.10598   0.11031   0.11249

  Beta  occ. eigenvalues --  -88.77757 -19.10653 -14.21683 -14.20387 -10.19219
  Beta  occ. eigenvalues --  -10.13859 -10.11682 -10.11312 -10.10073 -10.09439
  Beta  occ. eigenvalues --  -10.09010 -10.08986 -10.08123 -10.07953 -10.07366
  Beta  occ. eigenvalues --  -10.07336  -7.86382  -5.82775  -5.82368  -5.81784
  Beta  occ. eigenvalues --   -1.04212  -0.83468  -0.81621  -0.74640  -0.71566
  Beta  occ. eigenvalues --   -0.68782  -0.66847  -0.64634  -0.60171  -0.59947
  Beta  occ. eigenvalues --   -0.56850  -0.55222  -0.51362  -0.49823  -0.47659
  Beta  occ. eigenvalues --   -0.47216  -0.41737  -0.40371  -0.39674  -0.38697
  Beta  occ. eigenvalues --   -0.36557  -0.35765  -0.34813  -0.34162  -0.33703
  Beta  occ. eigenvalues --   -0.33106  -0.32756  -0.32389  -0.31928  -0.31598
  Beta  occ. eigenvalues --   -0.30572  -0.30284  -0.29424  -0.28751  -0.27647
  Beta  occ. eigenvalues --   -0.26216  -0.26011  -0.25193  -0.24990  -0.24391
  Beta  occ. eigenvalues --   -0.23645  -0.22850  -0.20443  -0.18986  -0.13373
  Beta  occ. eigenvalues --   -0.12399
  Beta virt. eigenvalues --    0.05809   0.06174   0.06688   0.07176   0.07777
  Beta virt. eigenvalues --    0.08243   0.08533   0.08793   0.09260   0.09426
  Beta virt. eigenvalues --    0.09987   0.10168   0.10643   0.10923   0.11206

 Mulliken charges and spin densities:
               1          2
     1  C    0.518837  -1.065690
     2  C   -0.762443   0.476992
     3  C    0.177810  -0.434054
     4  N    0.075218   0.035878
     5  C   -0.713467  -0.297805
     6  C   -0.221422   0.922970
     7  C    0.580609  -1.172562
     8  C   -0.236399  -0.591820
     9  S    0.128416  -0.101783
    10  C   -0.744452   0.368808
    11  N    0.145180   0.023184
    12  C   -0.645541   0.915890
    13  C   -1.058218   1.295761
    14  O    0.048682   0.019168
    15  C    2.090770  -2.790332
    16  C    0.666833  -1.249757
    17  H   -0.097734   0.231634
    18  H   -0.150677   0.292302
    19  H   -0.185894   0.327303
    20  H    0.122201   0.025837
    21  H    0.024647   0.098373
    22  H   -0.015054   0.156327
    23  H    0.045213   0.086821
    24  H    0.293329  -0.069306
    25  H    0.105641   0.106321
    26  H    0.301795  -0.103928
    27  H   -0.003995   0.136340
    28  H   -0.074872   0.231999
    29  H   -0.349780   0.482053
    30  H   -0.144066   0.304783
    31  H    0.013770   0.259440
    32  H    0.256604  -0.043192
    33  H   -0.454661   0.612351
    34  H   -0.175073   0.334603
    35  H   -0.209652   0.368477
    36  H   -0.098195   0.256100
    37  H   -0.038327   0.190283
    38  H   -0.215631   0.360232
 Sum of Mulliken charges =  -1.00000   1.00000

 Dipole moment (field-independent basis, Debye):
    X=             -0.7086    Y=              2.1057    Z=             -1.6558  Tot=              2.7709
 Quadrupole moment (field-independent basis, Debye-Ang):
   XX=           -228.3176   YY=           -158.1880   ZZ=           -142.3277
   XY=             18.9822   XZ=              5.0478   YZ=             -0.4929

 Summary of Natural Population Analysis:

                                       Natural Population
                Natural  -----------------------------------------------
    Atom  No    Charge         Core      Valence    Rydberg      Total
 -----------------------------------------------------------------------
      C    1   -0.29033      0.99967     2.28500    0.00566     3.29033
      C    2   -0.19176      0.99964     2.18443    0.00769     3.19176
      C    3   -0.08637      0.99962     2.07751    0.00924     3.08637
      N    4   -0.33926      0.99974     2.82829    0.01123     3.83926
      C    5   -0.08805      0.99960     2.07707    0.01138     3.08805
      C    6   -0.12921      0.99958     2.11857    0.01106     3.12921
      C    7   -0.28945      0.99964     2.28218    0.00762     3.28945
      C    8   -0.24403      0.99955     2.23285    0.01163     3.24403
      S    9    0.12995      4.99950     2.85189    0.01865     7.87005
      C   10    0.18645      0.99957     1.79149    0.02249     2.81355
      N   11   -0.27521      0.99964     2.76568    0.00989     3.77521
      C   12    0.04459      0.99945     1.94175    0.01421     2.95541
      C   13    0.12777      0.99938     1.85868    0.01417     2.87223
      O   14   -0.24615      0.99985     3.23912    0.00719     4.24615
      C   15   -0.30569      0.99963     2.30016    0.00590     3.30569
      C   16   -0.29599      0.99963     2.29063    0.00573     3.29599
      H   17    0.09615      0.00000     0.40277    0.00108     0.40385
      H   18    0.09878      0.00000     0.40032    0.00090     0.40122
      H   19    0.09764      0.00000     0.40098    0.00138     0.40236
      H   20    0.09627      0.00000     0.40219    0.00153     0.40373
      H   21    0.09313      0.00000     0.40559    0.00128     0.40687
      H   22    0.09218      0.00000     0.40637    0.00144     0.40782
      H   23    0.07730      0.00000     0.42093    0.00177     0.42270
      H   24    0.17112      0.00000     0.32525    0.00363     0.32888
      H   25    0.10067      0.00000     0.39794    0.00139     0.39933
      H   26    0.09603      0.00000     0.40245    0.00153     0.40397
      H   27    0.09557      0.00000     0.40232    0.00211     0.40443
      H   28    0.09825      0.00000     0.40066    0.00109     0.40175
      H   29    0.10195      0.00000     0.39678    0.00127     0.39805
      H   30    0.10243      0.00000     0.39618    0.00138     0.39757
      H   31    0.10723      0.00000     0.39172    0.00105     0.39277
      H   32    0.11907      0.00000     0.37895    0.00199     0.38093
      H   33    0.11368      0.00000     0.38451    0.00181     0.38632
      H   34    0.10783      0.00000     0.39081    0.00135     0.39217
      H   35    0.10743      0.00000     0.39115    0.00142     0.39257
      H   36    0.10594      0.00000     0.39291    0.00115     0.39406
      H   37    0.10720      0.00000     0.39164    0.00116     0.39280
      H   38    0.10687      0.00000     0.39185    0.00127     0.39313
 =======================================================================
   * Total *    0.00000     19.99370    45.79958    0.20672    66.00000

 Normal termination of Gaussian 16 at Fri Dec 11 00:05:14 2020.
