 Gaussian 16, Revision A.03,

 -----------------------------------------------------------
 # opt freq B3LYP/6-31G(d) empiricaldispersion=gd3bj scf=xqc
 -----------------------------------------------------------

 -------------------------------
 CID_101345138_JID_5081_neutraal
 -------------------------------
 Symbolic Z-matrix:
 Charge =  0 Multiplicity = 1

 SCF Done:  E(RB3LYP) =  -636.896220564     A.U. after   15 cycles
 SCF Done:  E(RB3LYP) =  -636.900074401     A.U. after   11 cycles
 SCF Done:  E(RB3LYP) =  -636.900432436     A.U. after   11 cycles
 SCF Done:  E(RB3LYP) =  -636.900706223     A.U. after   11 cycles
 SCF Done:  E(RB3LYP) =  -636.900817391     A.U. after   11 cycles
 SCF Done:  E(RB3LYP) =  -636.900861249     A.U. after   11 cycles
 SCF Done:  E(RB3LYP) =  -636.900865117     A.U. after    8 cycles
 SCF Done:  E(RB3LYP) =  -636.900866708     A.U. after    8 cycles
 SCF Done:  E(RB3LYP) =  -636.900866861     A.U. after    7 cycles
 Optimization completed.
    -- Stationary point found.
 Normal termination of Gaussian 16 at Thu Dec 10 14:44:54 2020.

 --------------------------------------------------------------------
 #N Geom=AllCheck Guess=TCheck SCRF=Check GenChk RB3LYP/6-31G(d) Freq
 --------------------------------------------------------------------

 Structure from the checkpoint file:  "JID_5081.chk"
 -------------------------------
 CID_101345138_JID_5081_neutraal
 -------------------------------
 Charge =  0 Multiplicity = 1

 SCF Done:  E(RB3LYP) =  -636.900866861     A.U. after    1 cycles

  Exact polarizability: 164.175   7.267 146.227   4.222  -1.294 104.098
 Approx polarizability: 236.184  26.536 205.085  11.449   1.078 165.501

                      1                      2                      3
                      A                      A                      A
 Frequencies --     67.8819               105.3985               116.6624
 Red. masses --      3.0506                 5.7098                 2.5976
 Frc consts  --      0.0083                 0.0374                 0.0208
 IR Inten    --      0.1724                 2.5626                 0.7018

                      4                      5                      6
                      A                      A                      A
 Frequencies --    136.0436               226.4654               233.4339
 Red. masses --      2.6129                 2.4342                 1.1877
 Frc consts  --      0.0285                 0.0736                 0.0381
 IR Inten    --      1.3593                 1.2741                 0.4745

                      7                      8                      9
                      A                      A                      A
 Frequencies --    244.7390               270.9914               277.0863
 Red. masses --      1.8913                 1.8905                 1.5082
 Frc consts  --      0.0667                 0.0818                 0.0682
 IR Inten    --      0.4833                 1.2933                 1.7707

                     10                     11                     12
                      A                      A                      A
 Frequencies --    296.7032               316.7792               335.2260
 Red. masses --      2.4838                 2.3141                 2.4226
 Frc consts  --      0.1288                 0.1368                 0.1604
 IR Inten    --      3.3478                 1.5763                 0.5141

                     13                     14                     15
                      A                      A                      A
 Frequencies --    346.6182               384.1582               401.4526
 Red. masses --      2.5423                 2.9824                 2.9967
 Frc consts  --      0.1800                 0.2593                 0.2846
 IR Inten    --      1.1281                 0.7989                 1.8142

                     16                     17                     18
                      A                      A                      A
 Frequencies --    434.2223               474.6365               493.1781
 Red. masses --      3.7586                 3.2929                 2.8640
 Frc consts  --      0.4175                 0.4371                 0.4104
 IR Inten    --      2.2777                 2.3307                 1.6589

                     19                     20                     21
                      A                      A                      A
 Frequencies --    558.7852               561.8742               594.5324
 Red. masses --      3.2034                 3.3084                 2.6834
 Frc consts  --      0.5893                 0.6154                 0.5588
 IR Inten    --      4.1802                 1.7439                 3.3788

                     22                     23                     24
                      A                      A                      A
 Frequencies --    599.1044               637.1836               672.8228
 Red. masses --      3.1640                 2.7314                 4.0192
 Frc consts  --      0.6691                 0.6534                 1.0720
 IR Inten    --      3.4623                 3.2953                 9.4101

                     25                     26                     27
                      A                      A                      A
 Frequencies --    702.9717               808.8841               837.8329
 Red. masses --      4.5668                 2.2491                 2.9625
 Frc consts  --      1.3296                 0.8670                 1.2252
 IR Inten    --      1.0633                 3.1134                 4.5584

                     28                     29                     30
                      A                      A                      A
 Frequencies --    863.4329               879.6625               899.9167
 Red. masses --      1.8140                 2.5432                 1.7610
 Frc consts  --      0.7968                 1.1595                 0.8403
 IR Inten    --      1.1968                 2.7445                 2.5360

                     31                     32                     33
                      A                      A                      A
 Frequencies --    909.9368               934.2858               955.2136
 Red. masses --      2.1521                 2.1162                 1.6518
 Frc consts  --      1.0499                 1.0883                 0.8880
 IR Inten    --      2.4715                 4.0398                 2.4117

                     34                     35                     36
                      A                      A                      A
 Frequencies --    975.3063              1000.5888              1005.2282
 Red. masses --      1.6361                 1.8118                 1.9668
 Frc consts  --      0.9169                 1.0688                 1.1710
 IR Inten    --      2.3160                 3.3283                 5.3898

                     37                     38                     39
                      A                      A                      A
 Frequencies --   1015.6239              1028.8525              1056.2440
 Red. masses --      1.9815                 1.9113                 2.1506
 Frc consts  --      1.2042                 1.1920                 1.4136
 IR Inten    --      6.1112                 2.4469                 1.9536

                     40                     41                     42
                      A                      A                      A
 Frequencies --   1079.9883              1098.6355              1114.3772
 Red. masses --      2.6407                 1.9072                 2.3571
 Frc consts  --      1.8147                 1.3563                 1.7246
 IR Inten    --      2.2612                 3.8978                 1.8781

                     43                     44                     45
                      A                      A                      A
 Frequencies --   1134.9061              1152.6001              1172.4061
 Red. masses --      1.8497                 2.2046                 1.3102
 Frc consts  --      1.4037                 1.7256                 1.0611
 IR Inten    --      1.4660                27.0934                 0.9992

                     46                     47                     48
                      A                      A                      A
 Frequencies --   1198.0634              1210.2037              1222.9636
 Red. masses --      1.6831                 2.3420                 1.8161
 Frc consts  --      1.4234                 2.0210                 1.6003
 IR Inten    --      4.7725                 8.1326                23.6275

                     49                     50                     51
                      A                      A                      A
 Frequencies --   1239.4659              1243.7943              1259.7263
 Red. masses --      1.4531                 1.6276                 1.6306
 Frc consts  --      1.3153                 1.4836                 1.5246
 IR Inten    --      9.0713                12.3223                18.1981

                     52                     53                     54
                      A                      A                      A
 Frequencies --   1274.6956              1311.9710              1334.9149
 Red. masses --      1.6884                 1.4110                 1.4167
 Frc consts  --      1.6164                 1.4310                 1.4874
 IR Inten    --     23.8169                 1.8963                13.5969

                     55                     56                     57
                      A                      A                      A
 Frequencies --   1339.4557              1355.1747              1373.7881
 Red. masses --      2.0615                 1.5701                 1.8001
 Frc consts  --      2.1792                 1.6989                 2.0016
 IR Inten    --     27.8184                67.0346                21.3038

                     58                     59                     60
                      A                      A                      A
 Frequencies --   1381.4749              1386.8784              1395.6133
 Red. masses --      1.5614                 1.6863                 1.4233
 Frc consts  --      1.7557                 1.9110                 1.6333
 IR Inten    --     12.8653                21.9204                 6.7277

                     61                     62                     63
                      A                      A                      A
 Frequencies --   1397.2013              1409.2751              1430.5083
 Red. masses --      1.5106                 1.7874                 1.6802
 Frc consts  --      1.7375                 2.0916                 2.0257
 IR Inten    --      5.3415                59.0942                27.2770

                     64                     65                     66
                      A                      A                      A
 Frequencies --   1437.9587              1442.7726              1494.2294
 Red. masses --      1.2525                 1.8691                 1.0885
 Frc consts  --      1.5259                 2.2924                 1.4320
 IR Inten    --      8.6346                34.1318                 1.6129

                     67                     68                     69
                      A                      A                      A
 Frequencies --   1511.6170              1512.7618              1513.7768
 Red. masses --      1.0876                 1.0919                 1.0764
 Frc consts  --      1.4642                 1.4722                 1.4532
 IR Inten    --      1.7058                 4.3930                 2.8011

                     70                     71                     72
                      A                      A                      A
 Frequencies --   1525.8686              1527.7482              1530.7605
 Red. masses --      1.0721                 1.0664                 1.0619
 Frc consts  --      1.4707                 1.4664                 1.4661
 IR Inten    --      1.9058                 5.5185                 4.0390

                     73                     74                     75
                      A                      A                      A
 Frequencies --   1532.5965              1536.1816              1543.3139
 Red. masses --      1.0927                 1.0544                 1.0708
 Frc consts  --      1.5122                 1.4660                 1.5027
 IR Inten    --      7.1953                 7.9649                 2.2802

                     76                     77                     78
                      A                      A                      A
 Frequencies --   1771.3223              1826.9996              2977.9973
 Red. masses --      9.6428                11.8966                 1.0821
 Frc consts  --     17.8259                23.3965                 5.6542
 IR Inten    --    200.9551               356.5603                27.7929

                     79                     80                     81
                      A                      A                      A
 Frequencies --   3009.6640              3028.6145              3037.4001
 Red. masses --      1.0596                 1.1003                 1.0649
 Frc consts  --      5.6549                 5.9464                 5.7882
 IR Inten    --     49.6324                18.5764                47.7368

                     82                     83                     84
                      A                      A                      A
 Frequencies --   3037.6429              3046.5531              3051.0585
 Red. masses --      1.0669                 1.0484                 1.0492
 Frc consts  --      5.8003                 5.7331                 5.7547
 IR Inten    --      5.1747                 8.9421                71.2069

                     85                     86                     87
                      A                      A                      A
 Frequencies --   3051.7628              3058.4249              3059.6373
 Red. masses --      1.0403                 1.0668                 1.0640
 Frc consts  --      5.7082                 5.8792                 5.8687
 IR Inten    --      5.5086                34.7044                17.9353

                     88                     89                     90
                      A                      A                      A
 Frequencies --   3080.3862              3094.9354              3095.0842
 Red. masses --      1.0986                 1.1023                 1.1042
 Frc consts  --      6.1420                 6.2207                 6.2321
 IR Inten    --     51.5973                29.5087                55.1918

                     91                     92                     93
                      A                      A                      A
 Frequencies --   3112.7579              3118.6976              3126.7298
 Red. masses --      1.1021                 1.1015                 1.1012
 Frc consts  --      6.2914                 6.3120                 6.3433
 IR Inten    --     49.2840                25.5431                26.7400

                     94                     95                     96
                      A                      A                      A
 Frequencies --   3131.8027              3132.3648              3140.6883
 Red. masses --      1.0970                 1.0949                 1.1002
 Frc consts  --      6.3395                 6.3297                 6.3940
 IR Inten    --     15.4025                 6.7468                27.4469

 - Thermochemistry -
 -------------------
 Temperature   298.150 Kelvin.  Pressure   1.00000 Atm.
 Atom     1 has atomic number  6 and mass  12.00000

 Molecular mass:   205.14666 amu.
 Principal axes and moments of inertia in atomic units:
                           1         2         3
     Eigenvalues --  2336.817852697.314404472.53560
           X            0.98226  -0.18721  -0.01089
           Y            0.18718   0.98232  -0.00348
           Z            0.01135   0.00138   0.99993
 This molecule is an asymmetric top.
 Rotational symmetry number  1.
 Warning -- assumption of classical behavior for rotation
           may cause significant error
 Rotational temperatures (Kelvin)      0.03706     0.03211     0.01937
 Rotational constants (GHZ):           0.77231     0.66909     0.40352
 Zero-point vibrational energy     797180.4 (Joules/Mol)
                                  190.53068 (Kcal/Mol)
 Warning -- explicit consideration of  22 degrees of freedom as
           vibrations may cause significant error
 Vibrational temperatures:     97.67   151.64   167.85   195.74   325.83
          (Kelvin)            335.86   352.12   389.90   398.67   426.89
                              455.77   482.32   498.71   552.72   577.60
                              624.75   682.90   709.57   803.97   808.41
                              855.40   861.98   916.77   968.04  1011.42
                             1163.80  1205.45  1242.29  1265.64  1294.78
                             1309.20  1344.23  1374.34  1403.25  1439.62
                             1446.30  1461.26  1480.29  1519.70  1553.86
                             1580.69  1603.34  1632.88  1658.33  1686.83
                             1723.75  1741.21  1759.57  1783.31  1789.54
                             1812.47  1834.00  1887.63  1920.64  1927.18
                             1949.79  1976.57  1987.63  1995.41  2007.98
                             2010.26  2027.63  2058.18  2068.90  2075.83
                             2149.86  2174.88  2176.53  2177.99  2195.38
                             2198.09  2202.42  2205.06  2210.22  2220.48
                             2548.54  2628.64  4284.67  4330.24  4357.50
                             4370.14  4370.49  4383.31  4389.79  4390.81
                             4400.39  4402.14  4431.99  4452.92  4453.14
                             4478.56  4487.11  4498.67  4505.97  4506.77
                             4518.75

 Zero-point correction=                           0.303630 (Hartree/Particle)
 Thermal correction to Energy=                    0.316866
 Thermal correction to Enthalpy=                  0.317811
 Thermal correction to Gibbs Free Energy=         0.265117
 Sum of electronic and zero-point Energies=           -636.597237
 Sum of electronic and thermal Energies=              -636.584000
 Sum of electronic and thermal Enthalpies=            -636.583056
 Sum of electronic and thermal Free Energies=         -636.635750

                     E (Thermal)             CV                S
                      KCal/Mol        Cal/Mol-Kelvin    Cal/Mol-Kelvin
 Total                  198.837             54.360            110.903
 Electronic               0.000              0.000              0.000
 Translational            0.889              2.981             41.860
 Rotational               0.889              2.981             31.711
 Vibrational            197.059             48.398             37.332
 Vibration     1          0.598              1.970              4.214
 Vibration     2          0.605              1.945              3.352
 Vibration     3          0.608              1.936              3.155
 Vibration     4          0.614              1.917              2.859
 Vibration     5          0.650              1.801              1.907
 Vibration     6          0.654              1.790              1.852
 Vibration     7          0.660              1.771              1.768
 Vibration     8          0.675              1.727              1.590
 Vibration     9          0.678              1.716              1.552
 Vibration    10          0.690              1.680              1.435
 Vibration    11          0.704              1.642              1.327
 Vibration    12          0.716              1.605              1.235
 Vibration    13          0.725              1.582              1.182
 Vibration    14          0.753              1.504              1.023
 Vibration    15          0.767              1.467              0.957
 Vibration    16          0.795              1.396              0.845
 Vibration    17          0.831              1.306              0.725
 Vibration    18          0.849              1.265              0.675
 Vibration    19          0.914              1.121              0.526
 Vibration    20          0.918              1.114              0.520
 Vibration    21          0.952              1.043              0.459
 Vibration    22          0.957              1.034              0.451

 Optimization completed.
    -- Stationary point found.
 Normal termination of Gaussian 16 at Thu Dec 10 14:57:42 2020.

 ----------------------------------------------------------------------
 # B3LYP/6-311++G(d,p) empiricaldispersion=gd3bj scf=xqc pop=npa geom=c
 heck
 ----------------------------------------------------------------------

 ---------------------------------------
 CID_101345138_JID_5081_Energie_neutraal
 ---------------------------------------
 Structure from the checkpoint file:  "JID_5081.chk"
 Charge =  0 Multiplicity = 1

 SCF Done:  E(RB3LYP) =  -637.069791619     A.U. after   14 cycles
 Normal termination of Gaussian 16 at Thu Dec 10 15:03:05 2020.

 ----------------------------------------------------------------------
 # B3LYP/6-311++G(d,p) empiricaldispersion=gd3bj scf=xqc pop=npa geom=c
 heck
 ----------------------------------------------------------------------

 -------------------------------------
 CID_101345138_JID_5081_Energie_kation
 -------------------------------------
 Structure from the checkpoint file:  "JID_5081.chk"
 Charge =  1 Multiplicity = 2

 SCF Done:  E(UB3LYP) =  -636.794944000     A.U. after   20 cycles
 Normal termination of Gaussian 16 at Thu Dec 10 15:15:37 2020.
 Gaussian 16:  ES64L-G16RevA.03 25-Dec-2016

 ----------------------------------------------------------------------
 # B3LYP/6-311++G(d,p) empiricaldispersion=gd3bj scf=xqc pop=npa geom=c
 heck
 ----------------------------------------------------------------------

 ------------------------------------
 CID_101345138_JID_5081_Energie_anion
 ------------------------------------
 Structure from the checkpoint file:  "JID_5081.chk"
 Charge = -1 Multiplicity = 2

                         Standard orientation:
 ---------------------------------------------------------------------
 Center     Atomic      Atomic             Coordinates (Angstroms)
 Number     Number       Type             X           Y           Z
 ---------------------------------------------------------------------
      1          6           0        3.514351   -0.245195   -0.469945
      2          6           0        2.255872   -0.574448    0.346622
      3          6           0        1.734967   -1.974383   -0.045762
      4          6           0        0.373519   -2.302483    0.575657
      5          7           0       -0.559770   -1.242240    0.243464
      6          6           0       -1.807230   -1.417676   -0.324227
      7          8           0       -2.375511   -2.485879   -0.465675
      8          6           0       -2.279710   -0.025998   -0.769604
      9          6           0       -1.353415    0.955149   -0.009195
     10          6           0       -0.125315    0.089997    0.183541
     11          6           0        1.157554    0.472002    0.198368
     12          6           0        1.505880    1.929710   -0.005521
     13          6           0        0.282655    2.868547   -0.057077
     14          6           0       -0.933920    2.231040   -0.750623
     15          6           0       -2.002575    1.275878    1.355293
     16          1           0        3.280562   -0.180163   -1.539396
     17          1           0        4.269233   -1.028415   -0.338218
     18          1           0        3.963279    0.704688   -0.164041
     19          1           0        2.557160   -0.607382    1.407091
     20          1           0        1.639114   -2.019467   -1.138509
     21          1           0        2.464542   -2.738082    0.246679
     22          1           0       -0.041906   -3.239514    0.197094
     23          1           0        0.458864   -2.383602    1.667577
     24          1           0       -3.344762    0.108549   -0.565705
     25          1           0       -2.132212    0.041490   -1.855339
     26          1           0        2.070146    2.021961   -0.945401
     27          1           0        2.195687    2.276915    0.777965
     28          1           0        0.560772    3.796311   -0.569912
     29          1           0        0.002253    3.157524    0.962121
     30          1           0       -0.673057    1.975902   -1.786415
     31          1           0       -1.765359    2.945330   -0.792370
     32          1           0       -1.332277    1.849761    2.000268
     33          1           0       -2.922128    1.854351    1.207273
     34          1           0       -2.263234    0.353707    1.885223
 ---------------------------------------------------------------------

 SCF Done:  E(UB3LYP) =  -637.057252103     A.U. after   32 cycles

 The electronic state is 2-A.
 Alpha  occ. eigenvalues --  -19.00045 -14.25264 -10.17861 -10.11251 -10.10021
 Alpha  occ. eigenvalues --  -10.09859 -10.08671 -10.08243 -10.07638 -10.07176
 Alpha  occ. eigenvalues --  -10.06951 -10.06866 -10.06752 -10.06734 -10.06033
 Alpha  occ. eigenvalues --   -0.95077  -0.87099  -0.74947  -0.73196  -0.67533
 Alpha  occ. eigenvalues --   -0.66275  -0.63155  -0.60548  -0.59235  -0.54951
 Alpha  occ. eigenvalues --   -0.52408  -0.51018  -0.46994  -0.46335  -0.42189
 Alpha  occ. eigenvalues --   -0.38707  -0.38507  -0.37605  -0.36846  -0.35144
 Alpha  occ. eigenvalues --   -0.34491  -0.33205  -0.32819  -0.32392  -0.31393
 Alpha  occ. eigenvalues --   -0.31054  -0.29778  -0.28206  -0.27917  -0.27655
 Alpha  occ. eigenvalues --   -0.26898  -0.26675  -0.25791  -0.24799  -0.24041
 Alpha  occ. eigenvalues --   -0.22913  -0.22288  -0.20981  -0.19626  -0.16530
 Alpha  occ. eigenvalues --   -0.11031   0.04271
 Alpha virt. eigenvalues --    0.06290   0.07053   0.07497   0.08468   0.08670
 Alpha virt. eigenvalues --    0.09300   0.09720   0.09872   0.10017   0.10992
 Alpha virt. eigenvalues --    0.11270   0.11846   0.12062   0.12383   0.12949

  Beta  occ. eigenvalues --  -19.00044 -14.25263 -10.17861 -10.11240 -10.10006
  Beta  occ. eigenvalues --  -10.09860 -10.08663 -10.08227 -10.07619 -10.07158
  Beta  occ. eigenvalues --  -10.06928 -10.06864 -10.06720 -10.06711 -10.06000
  Beta  occ. eigenvalues --   -0.95074  -0.87088  -0.74926  -0.73167  -0.67498
  Beta  occ. eigenvalues --   -0.66245  -0.63121  -0.60509  -0.59184  -0.54903
  Beta  occ. eigenvalues --   -0.52355  -0.50975  -0.46959  -0.46280  -0.42156
  Beta  occ. eigenvalues --   -0.38675  -0.38482  -0.37584  -0.36816  -0.35109
  Beta  occ. eigenvalues --   -0.34457  -0.33165  -0.32788  -0.32365  -0.31364
  Beta  occ. eigenvalues --   -0.31026  -0.29748  -0.28176  -0.27879  -0.27622
  Beta  occ. eigenvalues --   -0.26871  -0.26640  -0.25747  -0.24765  -0.24004
  Beta  occ. eigenvalues --   -0.22875  -0.22255  -0.20951  -0.19595  -0.16524
  Beta  occ. eigenvalues --   -0.11001
  Beta virt. eigenvalues --    0.06481   0.07237   0.07637   0.08035   0.08910
  Beta virt. eigenvalues --    0.09274   0.09647   0.09949   0.10169   0.10338
  Beta virt. eigenvalues --    0.11487   0.11666   0.12118   0.12348   0.12598

 Mulliken charges and spin densities:
               1          2
     1  C    1.041138  -1.872741
     2  C   -0.475529   0.868648
     3  C   -0.015188  -0.407160
     4  C    0.091675  -0.361197
     5  N    0.265679   0.042584
     6  C    0.089984   0.012715
     7  O   -0.385570   0.007483
     8  C   -0.102414  -0.417985
     9  C    0.652442   0.079195
    10  C   -0.505534   0.159181
    11  C   -0.343293   0.584847
    12  C    0.130673  -0.773527
    13  C    0.893352  -1.329029
    14  C   -1.414040   1.006801
    15  C    1.056061  -1.762147
    16  H   -0.078926   0.234885
    17  H   -0.420114   0.564290
    18  H   -0.286811   0.444018
    19  H   -0.264300   0.474419
    20  H    0.093548   0.063914
    21  H   -0.132206   0.308560
    22  H    0.098481   0.105957
    23  H   -0.053235   0.213751
    24  H    0.074805   0.115874
    25  H    0.081021   0.100582
    26  H    0.321261  -0.166071
    27  H   -0.411564   0.597515
    28  H   -0.721210   0.911966
    29  H    0.092223   0.049525
    30  H   -0.064370   0.189421
    31  H   -0.196452   0.379501
    32  H   -0.049461   0.184497
    33  H   -0.140235   0.296027
    34  H    0.078111   0.093700
 Sum of Mulliken charges =  -1.00000   1.00000

 Dipole moment (field-independent basis, Debye):
    X=             -3.2204    Y=             -2.0212    Z=             -1.1470  Tot=              3.9714
 Quadrupole moment (field-independent basis, Debye-Ang):
   XX=           -161.1670   YY=           -155.7731   ZZ=           -124.1868
   XY=             -3.8721   XZ=             -3.2119   YZ=             -0.5139

 Summary of Natural Population Analysis:

                                       Natural Population
                Natural  -----------------------------------------------
    Atom  No    Charge         Core      Valence    Rydberg      Total
 -----------------------------------------------------------------------
      C    1   -0.28232      0.99965     2.27630    0.00637     3.28232
      C    2   -0.11616      0.99957     2.10512    0.01146     3.11616
      C    3   -0.18907      0.99962     2.18079    0.00866     3.18907
      C    4   -0.08319      0.99962     2.07283    0.01074     3.08319
      N    5   -0.24910      0.99959     2.73848    0.01103     3.74910
      C    6    0.35173      0.99965     1.62515    0.02346     2.64827
      O    7   -0.32062      0.99987     3.31522    0.00553     4.32062
      C    8   -0.22187      0.99957     2.21405    0.00826     3.22187
      C    9   -0.05314      0.99954     2.04079    0.01281     3.05314
      C   10    0.10851      0.99938     1.88103    0.01108     2.89149
      C   11   -0.03132      0.99943     2.02079    0.01110     3.03132
      C   12   -0.19528      0.99960     2.18618    0.00949     3.19528
      C   13   -0.18609      0.99963     2.17766    0.00879     3.18609
      C   14   -0.18325      0.99960     2.17336    0.01030     3.18325
      C   15   -0.28089      0.99962     2.27382    0.00744     3.28089
      H   16    0.09619      0.00000     0.40260    0.00121     0.40381
      H   17    0.10111      0.00000     0.39753    0.00136     0.39889
      H   18    0.10326      0.00000     0.39547    0.00127     0.39674
      H   19    0.10009      0.00000     0.39747    0.00244     0.39991
      H   20    0.09627      0.00000     0.40244    0.00129     0.40373
      H   21    0.10409      0.00000     0.39481    0.00111     0.39591
      H   22    0.10941      0.00000     0.38950    0.00108     0.39059
      H   23    0.09503      0.00000     0.40373    0.00124     0.40497
      H   24    0.10920      0.00000     0.38973    0.00108     0.39080
      H   25    0.11165      0.00000     0.38718    0.00117     0.38835
      H   26    0.10076      0.00000     0.39780    0.00144     0.39924
      H   27    0.10463      0.00000     0.39373    0.00164     0.39537
      H   28    0.10162      0.00000     0.39688    0.00150     0.39838
      H   29    0.09523      0.00000     0.40310    0.00167     0.40477
      H   30    0.09802      0.00000     0.40072    0.00126     0.40198
      H   31    0.10103      0.00000     0.39773    0.00125     0.39897
      H   32    0.10439      0.00000     0.39447    0.00114     0.39561
      H   33    0.09933      0.00000     0.39964    0.00103     0.40067
      H   34    0.10076      0.00000     0.39800    0.00124     0.39924
 =======================================================================
   * Total *    0.00001     14.99395    40.82410    0.18194    55.99999

 Normal termination of Gaussian 16 at Thu Dec 10 15:36:09 2020.
