 Gaussian 16, Revision A.03,

 -----------------------------------------------------------
 # opt freq B3LYP/6-31G(d) empiricaldispersion=gd3bj scf=xqc
 -----------------------------------------------------------

 -------------------------------
 CID_131204675_JID_1746_neutraal
 -------------------------------
 Symbolic Z-matrix:
 Charge =  0 Multiplicity = 1

 SCF Done:  E(RB3LYP) =  -837.022962865     A.U. after   15 cycles
 SCF Done:  E(RB3LYP) =  -837.025544538     A.U. after   12 cycles
 SCF Done:  E(RB3LYP) =  -837.026281329     A.U. after   12 cycles
 SCF Done:  E(RB3LYP) =  -837.026325282     A.U. after   13 cycles
 SCF Done:  E(RB3LYP) =  -837.026722798     A.U. after   12 cycles
 SCF Done:  E(RB3LYP) =  -837.026812426     A.U. after   11 cycles
 SCF Done:  E(RB3LYP) =  -837.026832781     A.U. after   11 cycles
 SCF Done:  E(RB3LYP) =  -837.026837257     A.U. after   10 cycles
 SCF Done:  E(RB3LYP) =  -837.026840545     A.U. after    8 cycles
 SCF Done:  E(RB3LYP) =  -837.026841218     A.U. after    9 cycles
 SCF Done:  E(RB3LYP) =  -837.026840806     A.U. after    8 cycles
 SCF Done:  E(RB3LYP) =  -837.026841013     A.U. after    7 cycles
 SCF Done:  E(RB3LYP) =  -837.026841153     A.U. after    8 cycles
 SCF Done:  E(RB3LYP) =  -837.026840691     A.U. after    8 cycles
 Optimization completed.
    -- Stationary point found.
 Normal termination of Gaussian 16 at Tue Dec  8 21:12:46 2020.

 --------------------------------------------------------------------
 #N Geom=AllCheck Guess=TCheck SCRF=Check GenChk RB3LYP/6-31G(d) Freq
 --------------------------------------------------------------------

 Structure from the checkpoint file:  "JID_1746.chk"
 -------------------------------
 CID_131204675_JID_1746_neutraal
 -------------------------------
 Charge =  0 Multiplicity = 1

 SCF Done:  E(RB3LYP) =  -837.026840691     A.U. after    1 cycles

  Exact polarizability: 127.365   4.624 101.542  -6.935   2.638  87.405
 Approx polarizability: 180.142  12.605 167.968 -16.023   7.095 132.053

                      1                      2                      3
                      A                      A                      A
 Frequencies --     34.0366                54.0793                83.1192
 Red. masses --      3.9103                 4.6435                 3.5657
 Frc consts  --      0.0027                 0.0080                 0.0145
 IR Inten    --      0.1720                 0.3975                 0.1023

                      4                      5                      6
                      A                      A                      A
 Frequencies --    115.2014               126.2513               221.1170
 Red. masses --      2.5716                 1.9441                 3.2720
 Frc consts  --      0.0201                 0.0183                 0.0943
 IR Inten    --      0.0030                 0.1026                 1.0605

                      7                      8                      9
                      A                      A                      A
 Frequencies --    226.3625               233.0313               278.7642
 Red. masses --      1.6524                 1.1244                 2.9694
 Frc consts  --      0.0499                 0.0360                 0.1360
 IR Inten    --      0.2119                 0.0710                 1.3051

                     10                     11                     12
                      A                      A                      A
 Frequencies --    286.6389               311.1550               349.2874
 Red. masses --      4.5750                 2.4289                 2.6733
 Frc consts  --      0.2215                 0.1386                 0.1922
 IR Inten    --      0.4004                 0.3742                 1.0812

                     13                     14                     15
                      A                      A                      A
 Frequencies --    411.5834               484.3480               500.8515
 Red. masses --      4.5242                 9.8498                 1.7057
 Frc consts  --      0.4515                 1.3614                 0.2521
 IR Inten    --      0.3739                 2.7704                44.6479

                     16                     17                     18
                      A                      A                      A
 Frequencies --    564.9509               651.0903               714.0897
 Red. masses --      2.6840                 2.8861                 3.8726
 Frc consts  --      0.5047                 0.7209                 1.1635
 IR Inten    --      1.6435                 6.9573                18.8030

                     19                     20                     21
                      A                      A                      A
 Frequencies --    720.7431               791.3559               803.0337
 Red. masses --      2.8599                 1.5049                 1.2855
 Frc consts  --      0.8753                 0.5553                 0.4884
 IR Inten    --     24.2344                 0.6092                 9.4739

                     22                     23                     24
                      A                      A                      A
 Frequencies --    864.7632               868.9807               922.5887
 Red. masses --      1.6810                 1.4666                 1.7831
 Frc consts  --      0.7406                 0.6525                 0.8942
 IR Inten    --      0.6543                27.6744                 5.3713

                     25                     26                     27
                      A                      A                      A
 Frequencies --    989.0702              1017.4139              1028.2881
 Red. masses --      5.9737                 6.4561                 2.1820
 Frc consts  --      3.4431                 3.9375                 1.3594
 IR Inten    --     37.6283                37.2233                 0.9656

                     28                     29                     30
                      A                      A                      A
 Frequencies --   1037.9749              1063.2882              1109.8758
 Red. masses --      1.3239                 2.0662                 1.5265
 Frc consts  --      0.8404                 1.3763                 1.1079
 IR Inten    --      1.6756                 0.2771                 4.8663

                     31                     32                     33
                      A                      A                      A
 Frequencies --   1144.9794              1155.8780              1185.7405
 Red. masses --      1.8930                 2.0097                 2.1050
 Frc consts  --      1.4622                 1.5820                 1.7437
 IR Inten    --      2.7263                 6.7740                 6.4246

                     34                     35                     36
                      A                      A                      A
 Frequencies --   1197.8710              1224.6516              1279.0616
 Red. masses --      5.8314                 2.3931                 1.2806
 Frc consts  --      4.9299                 2.1146                 1.2343
 IR Inten    --      7.6698                13.4253                 9.5219

                     37                     38                     39
                      A                      A                      A
 Frequencies --   1295.3848              1322.6212              1331.4221
 Red. masses --      1.2961                 2.6220                 1.6591
 Frc consts  --      1.2814                 2.7024                 1.7328
 IR Inten    --      4.0002                 6.8245                 3.6336

                     40                     41                     42
                      A                      A                      A
 Frequencies --   1363.2613              1378.8810              1391.7241
 Red. masses --      1.2911                 5.1284                 1.4039
 Frc consts  --      1.4138                 5.7449                 1.6021
 IR Inten    --      0.8314                 6.8518                 8.0644

                     43                     44                     45
                      A                      A                      A
 Frequencies --   1411.2177              1437.0199              1440.4478
 Red. masses --      1.3855                 2.1659                 1.2814
 Frc consts  --      1.6257                 2.6352                 1.5665
 IR Inten    --      1.0811                 5.9414                 1.6808

                     46                     47                     48
                      A                      A                      A
 Frequencies --   1447.2312              1512.5115              1521.1698
 Red. masses --      1.2620                 1.0680                 1.0608
 Frc consts  --      1.5573                 1.4395                 1.4463
 IR Inten    --      5.4897                 4.4393                 5.7702

                     49                     50                     51
                      A                      A                      A
 Frequencies --   1529.5180              1535.0127              1537.6542
 Red. masses --      1.0562                 1.0477                 1.4951
 Frc consts  --      1.4558                 1.4545                 2.0828
 IR Inten    --      6.5942                 1.3407                 3.1868

                     52                     53                     54
                      A                      A                      A
 Frequencies --   1540.2977              1545.0942              3031.4109
 Red. masses --      1.4017                 1.0833                 1.0744
 Frc consts  --      1.9594                 1.5238                 5.8169
 IR Inten    --      8.3460                 1.6735                 5.9524

                     55                     56                     57
                      A                      A                      A
 Frequencies --   3043.1277              3047.7845              3062.0818
 Red. masses --      1.0645                 1.0484                 1.0394
 Frc consts  --      5.8080                 5.7379                 5.7418
 IR Inten    --     14.5166                62.5646                21.9859

                     58                     59                     60
                      A                      A                      A
 Frequencies --   3073.2432              3085.1363              3103.2550
 Red. masses --      1.0656                 1.0963                 1.0990
 Frc consts  --      5.9296                 6.1477                 6.2359
 IR Inten    --      6.2396                15.0841                10.8647

                     61                     62                     63
                      A                      A                      A
 Frequencies --   3119.0467              3120.1084              3129.8207
 Red. masses --      1.1009                 1.1001                 1.1014
 Frc consts  --      6.3104                 6.3097                 6.3567
 IR Inten    --     13.5305                61.7892                31.7893

                     64                     65                     66
                      A                      A                      A
 Frequencies --   3152.6220              3294.7538              3663.5835
 Red. masses --      1.0992                 1.0983                 1.0824
 Frc consts  --      6.4370                 7.0246                 8.5595
 IR Inten    --     21.5494                 0.0692               102.3949

 - Thermochemistry -
 -------------------
 Temperature   298.150 Kelvin.  Pressure   1.00000 Atm.
 Atom     1 has atomic number  6 and mass  12.00000

 Molecular mass:   171.08302 amu.
 Principal axes and moments of inertia in atomic units:
                           1         2         3
     Eigenvalues --  1181.636222915.163142987.93203
           X            0.99979  -0.01982  -0.00425
           Y            0.02025   0.96538   0.26005
           Z           -0.00105  -0.26008   0.96559
 This molecule is an asymmetric top.
 Rotational symmetry number  1.
 Warning -- assumption of classical behavior for rotation
           may cause significant error
 Rotational temperatures (Kelvin)      0.07330     0.02971     0.02899
 Rotational constants (GHZ):           1.52732     0.61909     0.60401
 Zero-point vibrational energy     535436.3 (Joules/Mol)
                                  127.97235 (Kcal/Mol)
 Warning -- explicit consideration of  16 degrees of freedom as
           vibrations may cause significant error
 Vibrational temperatures:     48.97    77.81   119.59   165.75   181.65
          (Kelvin)            318.14   325.69   335.28   401.08   412.41
                              447.68   502.55   592.18   696.87   720.61
                              812.84   936.77  1027.42  1036.99  1138.58
                             1155.39  1244.20  1250.27  1327.40  1423.05
                             1463.83  1479.48  1493.41  1529.83  1596.86
                             1647.37  1663.05  1706.02  1723.47  1762.00
                             1840.28  1863.77  1902.96  1915.62  1961.43
                             1983.90  2002.38  2030.43  2067.55  2072.48
                             2082.24  2176.17  2188.62  2200.64  2208.54
                             2212.34  2216.14  2223.05  4361.52  4378.38
                             4385.08  4405.65  4421.71  4438.82  4464.89
                             4487.61  4489.14  4503.11  4535.92  4740.42
                             5271.08

 Zero-point correction=                           0.203937 (Hartree/Particle)
 Thermal correction to Energy=                    0.215856
 Thermal correction to Enthalpy=                  0.216800
 Thermal correction to Gibbs Free Energy=         0.164942
 Sum of electronic and zero-point Energies=           -836.822904
 Sum of electronic and thermal Energies=              -836.810985
 Sum of electronic and thermal Enthalpies=            -836.810041
 Sum of electronic and thermal Free Energies=         -836.861899

                     E (Thermal)             CV                S
                      KCal/Mol        Cal/Mol-Kelvin    Cal/Mol-Kelvin
 Total                  135.451             43.140            109.144
 Electronic               0.000              0.000              0.000
 Translational            0.889              2.981             41.319
 Rotational               0.889              2.981             30.710
 Vibrational            133.674             37.178             37.115
 Vibration     1          0.594              1.983              5.579
 Vibration     2          0.596              1.976              4.662
 Vibration     3          0.600              1.961              3.816
 Vibration     4          0.608              1.937              3.179
 Vibration     5          0.611              1.927              3.002
 Vibration     6          0.648              1.809              1.950
 Vibration     7          0.650              1.801              1.908
 Vibration     8          0.654              1.790              1.855
 Vibration     9          0.679              1.713              1.541
 Vibration    10          0.684              1.699              1.494
 Vibration    11          0.700              1.652              1.356
 Vibration    12          0.727              1.577              1.169
 Vibration    13          0.776              1.445              0.921
 Vibration    14          0.840              1.285              0.698
 Vibration    15          0.856              1.248              0.656
 Vibration    16          0.921              1.107              0.514

 Optimization completed.
    -- Stationary point found.
 Normal termination of Gaussian 16 at Tue Dec  8 21:18:24 2020.

 ----------------------------------------------------------------------
 # B3LYP/6-311++G(d,p) empiricaldispersion=gd3bj scf=xqc pop=npa geom=c
 heck
 ----------------------------------------------------------------------

 ---------------------------------------
 CID_131204675_JID_1746_Energie_neutraal
 ---------------------------------------
 Structure from the checkpoint file:  "JID_1746.chk"
 Charge =  0 Multiplicity = 1

 SCF Done:  E(RB3LYP) =  -837.175898655     A.U. after   14 cycles
 Normal termination of Gaussian 16 at Tue Dec  8 21:21:51 2020.

 ----------------------------------------------------------------------
 # B3LYP/6-311++G(d,p) empiricaldispersion=gd3bj scf=xqc pop=npa geom=c
 heck
 ----------------------------------------------------------------------

 -------------------------------------
 CID_131204675_JID_1746_Energie_kation
 -------------------------------------
 Structure from the checkpoint file:  "JID_1746.chk"
 Charge =  1 Multiplicity = 2

 SCF Done:  E(UB3LYP) =  -836.867033773     A.U. after   20 cycles
 Normal termination of Gaussian 16 at Tue Dec  8 21:27:29 2020.
 Gaussian 16:  ES64L-G16RevA.03 25-Dec-2016

 ----------------------------------------------------------------------
 # B3LYP/6-311++G(d,p) empiricaldispersion=gd3bj scf=xqc pop=npa geom=c
 heck
 ----------------------------------------------------------------------

 ------------------------------------
 CID_131204675_JID_1746_Energie_anion
 ------------------------------------
 Structure from the checkpoint file:  "JID_1746.chk"
 Charge = -1 Multiplicity = 2

                         Standard orientation:
 ---------------------------------------------------------------------
 Center     Atomic      Atomic             Coordinates (Angstroms)
 Number     Number       Type             X           Y           Z
 ---------------------------------------------------------------------
      1          6           0       -3.226152    1.263035    0.506138
      2          6           0       -1.849607    0.692404    0.866793
      3          6           0       -1.574809   -0.666578    0.209640
      4          6           0       -1.690930   -0.688853   -1.324424
      5          6           0       -0.849628    0.339798   -2.085406
      6         16           0       -0.014272   -1.455991    0.855577
      7          6           0        1.282767   -0.356973    0.385855
      8          7           0        1.398786    0.911435    0.813347
      9          7           0        2.527687    1.317375    0.239240
     10          7           0        3.181102    0.428784   -0.506984
     11          6           0        2.400271   -0.650201   -0.429419
     12          1           0       -3.301200    1.512840   -0.557571
     13          1           0       -3.420560    2.179073    1.074391
     14          1           0       -4.027494    0.550748    0.738945
     15          1           0       -1.063299    1.401529    0.592650
     16          1           0       -1.775402    0.566927    1.952507
     17          1           0       -2.307122   -1.386845    0.599587
     18          1           0       -1.446004   -1.697674   -1.674898
     19          1           0       -2.750291   -0.530082   -1.568559
     20          1           0        0.220956    0.165036   -1.956616
     21          1           0       -1.069859    0.284910   -3.157163
     22          1           0       -1.063134    1.362218   -1.756064
     23          1           0        2.878682    2.254899    0.372438
     24          1           0        2.648584   -1.566663   -0.943161
 ---------------------------------------------------------------------

 SCF Done:  E(UB3LYP) =  -837.161191178     A.U. after   33 cycles
 SCF Done:  E(UB3LYP) =  -837.162135112     a.u. after    7 cycles

 The electronic state is 2-A.
 Alpha  occ. eigenvalues --  -88.74370 -14.31434 -14.25011 -14.24549 -10.12251
 Alpha  occ. eigenvalues --  -10.10313 -10.10289 -10.06781 -10.06006 -10.05441
 Alpha  occ. eigenvalues --  -10.05295  -7.82976  -5.79396  -5.78984  -5.78344
 Alpha  occ. eigenvalues --   -1.00529  -0.79698  -0.74039  -0.71453  -0.64549
 Alpha  occ. eigenvalues --   -0.63806  -0.57137  -0.53461  -0.51999  -0.49339
 Alpha  occ. eigenvalues --   -0.45045  -0.43523  -0.37956  -0.37386  -0.35584
 Alpha  occ. eigenvalues --   -0.35461  -0.32690  -0.31013  -0.30432  -0.28208
 Alpha  occ. eigenvalues --   -0.26862  -0.26116  -0.24715  -0.23808  -0.22897
 Alpha  occ. eigenvalues --   -0.22277  -0.21789  -0.20091  -0.19405  -0.17146
 Alpha  occ. eigenvalues --   -0.12721   0.04647
 Alpha virt. eigenvalues --    0.06523   0.07389   0.07804   0.08456   0.09161
 Alpha virt. eigenvalues --    0.10156   0.10909   0.11390   0.11462   0.11732
 Alpha virt. eigenvalues --    0.12891   0.13483   0.13762   0.14643   0.15378

  Beta  occ. eigenvalues --  -88.74368 -14.31307 -14.24950 -14.24441 -10.12251
  Beta  occ. eigenvalues --  -10.10301 -10.10292 -10.06762 -10.05997 -10.05398
  Beta  occ. eigenvalues --  -10.05271  -7.82974  -5.79395  -5.78979  -5.78342
  Beta  occ. eigenvalues --   -1.00372  -0.79540  -0.73936  -0.71374  -0.64508
  Beta  occ. eigenvalues --   -0.63734  -0.57052  -0.53380  -0.51929  -0.49255
  Beta  occ. eigenvalues --   -0.44951  -0.43418  -0.37724  -0.37307  -0.35479
  Beta  occ. eigenvalues --   -0.35393  -0.32647  -0.30966  -0.30401  -0.28169
  Beta  occ. eigenvalues --   -0.26809  -0.26079  -0.24659  -0.23739  -0.22820
  Beta  occ. eigenvalues --   -0.22215  -0.21709  -0.19976  -0.19012  -0.17003
  Beta  occ. eigenvalues --   -0.12642
  Beta virt. eigenvalues --    0.07051   0.07901   0.08349   0.08409   0.08930
  Beta virt. eigenvalues --    0.09634   0.10550   0.11172   0.11635   0.11780
  Beta virt. eigenvalues --    0.11927   0.13134   0.13739   0.14069   0.14719

 Mulliken charges and spin densities:
               1          2
     1  C    1.504866  -2.189461
     2  C   -1.396625   0.862182
     3  C    0.848943  -0.107726
     4  C   -0.153908  -0.453371
     5  C   -0.050232  -0.526866
     6  S    0.087069  -0.330125
     7  C    0.369786  -0.618481
     8  N    0.010045  -0.004689
     9  N    0.116506   0.003400
    10  N    0.059892  -0.192092
    11  C   -0.762900   0.589586
    12  H   -0.122026   0.271274
    13  H   -0.284721   0.421994
    14  H   -0.412118   0.558117
    15  H    0.128123   0.063365
    16  H   -0.003956   0.146661
    17  H   -0.166059   0.435053
    18  H   -0.048774   0.189969
    19  H   -0.114854   0.266566
    20  H    0.241769  -0.062820
    21  H   -0.272846   0.406548
    22  H   -0.063631   0.239718
    23  H   -0.550497   0.906742
    24  H    0.036148   0.124454
 Sum of Mulliken charges =  -1.00000   1.00000

 Dipole moment (field-independent basis, Debye):
    X=              1.6301    Y=             -4.4065    Z=             -0.0312  Tot=              4.6985
 Quadrupole moment (field-independent basis, Debye-Ang):
   XX=           -141.2597   YY=           -113.6559   ZZ=           -107.8434
   XY=             -7.9750   XZ=              0.8618   YZ=             -0.1814

 Summary of Natural Population Analysis:

                                       Natural Population
                Natural  -----------------------------------------------
    Atom  No    Charge         Core      Valence    Rydberg      Total
 -----------------------------------------------------------------------
      C    1   -0.28627      0.99966     2.28142    0.00519     3.28627
      C    2   -0.20452      0.99959     2.19413    0.01080     3.20452
      C    3   -0.14824      0.99953     2.13370    0.01501     3.14824
      C    4   -0.19717      0.99960     2.18820    0.00937     3.19717
      C    5   -0.29011      0.99966     2.28457    0.00589     3.29011
      S    6    0.10958      4.99952     2.87268    0.01822     7.89042
      C    7   -0.04054      0.99950     2.02240    0.01864     3.04054
      N    8   -0.12715      0.99968     2.61342    0.01405     3.62715
      N    9   -0.05877      0.99974     2.54156    0.01747     3.55877
      N   10   -0.13198      0.99974     2.61867    0.01358     3.63198
      C   11   -0.03909      0.99953     2.02569    0.01387     3.03909
      H   12    0.09729      0.00000     0.40149    0.00121     0.40271
      H   13    0.10107      0.00000     0.39796    0.00097     0.39893
      H   14    0.09655      0.00000     0.40182    0.00163     0.40345
      H   15    0.10780      0.00000     0.38998    0.00221     0.39220
      H   16    0.10160      0.00000     0.39712    0.00128     0.39840
      H   17    0.10448      0.00000     0.39418    0.00134     0.39552
      H   18    0.09945      0.00000     0.39923    0.00132     0.40055
      H   19    0.09965      0.00000     0.39899    0.00135     0.40035
      H   20    0.10098      0.00000     0.39730    0.00172     0.39902
      H   21    0.09826      0.00000     0.40083    0.00092     0.40174
      H   22    0.09910      0.00000     0.39962    0.00128     0.40090
      H   23    0.20440      0.00000     0.28159    0.01401     0.29560
      H   24    0.10363      0.00000     0.39548    0.00089     0.39637
 =======================================================================
   * Total *    0.00000     14.99576    30.83203    0.17222    46.00000

 Normal termination of Gaussian 16 at Tue Dec  8 22:13:03 2020.
