 Gaussian 16, Revision A.03,

 -----------------------------------------------------------
 # opt freq B3LYP/6-31G(d) empiricaldispersion=gd3bj scf=xqc
 -----------------------------------------------------------

 -------------------------------
 CID_103560261_JID_5865_neutraal
 -------------------------------
 Symbolic Z-matrix:
 Charge =  0 Multiplicity = 1

 SCF Done:  E(RB3LYP) =  -705.946118167     A.U. after   14 cycles
 SCF Done:  E(RB3LYP) =  -705.953586616     A.U. after   12 cycles
 SCF Done:  E(RB3LYP) =  -705.954561620     A.U. after   12 cycles
 SCF Done:  E(RB3LYP) =  -705.955127152     A.U. after   12 cycles
 SCF Done:  E(RB3LYP) =  -705.955726264     A.U. after   13 cycles
 SCF Done:  E(RB3LYP) =  -705.957002202     A.U. after   12 cycles
 SCF Done:  E(RB3LYP) =  -705.957918663     A.U. after   13 cycles
 SCF Done:  E(RB3LYP) =  -705.959186401     A.U. after   12 cycles
 SCF Done:  E(RB3LYP) =  -705.958326325     A.U. after   13 cycles
 SCF Done:  E(RB3LYP) =  -705.960479289     A.U. after   12 cycles
 SCF Done:  E(RB3LYP) =  -705.961278281     A.U. after    9 cycles
 SCF Done:  E(RB3LYP) =  -705.961285221     A.U. after    9 cycles
 SCF Done:  E(RB3LYP) =  -705.961288533     A.U. after    8 cycles
 SCF Done:  E(RB3LYP) =  -705.961289419     A.U. after    8 cycles
 SCF Done:  E(RB3LYP) =  -705.961289578     A.U. after    7 cycles
 SCF Done:  E(RB3LYP) =  -705.961289655     A.U. after    7 cycles
 Optimization completed.
    -- Stationary point found.
 Normal termination of Gaussian 16 at Thu Dec 10 17:53:40 2020.

 --------------------------------------------------------------------
 #N Geom=AllCheck Guess=TCheck SCRF=Check GenChk RB3LYP/6-31G(d) Freq
 --------------------------------------------------------------------

 Structure from the checkpoint file:  "JID_5865.chk"
 -------------------------------
 CID_103560261_JID_5865_neutraal
 -------------------------------
 Charge =  0 Multiplicity = 1

 SCF Done:  E(RB3LYP) =  -705.961289655     A.U. after    1 cycles

  Exact polarizability: 129.772   9.595 114.972   4.362  -5.570 118.094
 Approx polarizability: 171.726  25.299 181.206   8.902 -10.452 191.027

                      1                      2                      3
                      A                      A                      A
 Frequencies --     51.2530                53.0464                66.1505
 Red. masses --      3.9838                 3.5508                 5.6459
 Frc consts  --      0.0062                 0.0059                 0.0146
 IR Inten    --      1.0230                 1.0310                 2.7028

                      4                      5                      6
                      A                      A                      A
 Frequencies --    100.0882               112.6461               134.1281
 Red. masses --      2.3905                 1.6801                 1.1674
 Frc consts  --      0.0141                 0.0126                 0.0124
 IR Inten    --      0.4960                 2.8318                 0.2543

                      7                      8                      9
                      A                      A                      A
 Frequencies --    164.0247               183.9631               195.5423
 Red. masses --      2.5641                 3.9070                 3.4372
 Frc consts  --      0.0406                 0.0779                 0.0774
 IR Inten    --      0.0900                 1.5448                 0.7865

                     10                     11                     12
                      A                      A                      A
 Frequencies --    223.1891               227.1406               279.8611
 Red. masses --      2.9110                 1.8008                 2.2566
 Frc consts  --      0.0854                 0.0547                 0.1041
 IR Inten    --     12.9251                 7.5534                52.6587

                     13                     14                     15
                      A                      A                      A
 Frequencies --    287.2809               301.7062               330.2041
 Red. masses --      1.7155                 2.7018                 3.5830
 Frc consts  --      0.0834                 0.1449                 0.2302
 IR Inten    --     83.7288                 8.6507                 2.3327

                     16                     17                     18
                      A                      A                      A
 Frequencies --    350.3238               395.0558               435.4808
 Red. masses --      2.5800                 2.3168                 2.7578
 Frc consts  --      0.1866                 0.2130                 0.3081
 IR Inten    --      2.3727                 1.1289                 2.8524

                     19                     20                     21
                      A                      A                      A
 Frequencies --    478.7911               506.7288               575.0530
 Red. masses --      2.9490                 4.2738                 4.3960
 Frc consts  --      0.3983                 0.6466                 0.8565
 IR Inten    --      3.4124                 3.7471                 4.4489

                     22                     23                     24
                      A                      A                      A
 Frequencies --    617.7423               656.5163               706.6743
 Red. masses --      3.8272                 4.7301                 9.0022
 Frc consts  --      0.8605                 1.2012                 2.6487
 IR Inten    --     11.3625                 3.5311                 0.8654

                     25                     26                     27
                      A                      A                      A
 Frequencies --    729.5256               735.7849               767.6421
 Red. masses --      1.5259                 2.9297                 1.3035
 Frc consts  --      0.4785                 0.9345                 0.4526
 IR Inten    --      3.1737                 4.6683                 0.3475

                     28                     29                     30
                      A                      A                      A
 Frequencies --    814.8399               841.6645               851.6572
 Red. masses --      2.7297                 1.7084                 2.2581
 Frc consts  --      1.0679                 0.7131                 0.9650
 IR Inten    --     14.4474                27.7435                 4.9837

                     31                     32                     33
                      A                      A                      A
 Frequencies --    860.9461               881.6320               953.0014
 Red. masses --      2.4697                 2.1050                 2.7805
 Frc consts  --      1.0786                 0.9640                 1.4879
 IR Inten    --      7.8566                 2.4014                11.6814

                     34                     35                     36
                      A                      A                      A
 Frequencies --    961.5461               981.6199               994.9832
 Red. masses --      2.6232                 2.9982                 2.8665
 Frc consts  --      1.4289                 1.7022                 1.6720
 IR Inten    --      1.3452                 2.0632                 2.9573

                     37                     38                     39
                      A                      A                      A
 Frequencies --   1027.7834              1053.5788              1068.4779
 Red. masses --      3.4724                 1.4796                 1.6134
 Frc consts  --      2.1611                 0.9677                 1.0853
 IR Inten    --     35.3819                 5.8453                 7.7218

                     40                     41                     42
                      A                      A                      A
 Frequencies --   1111.4216              1133.4528              1143.4471
 Red. masses --      4.1443                 3.9110                 1.8829
 Frc consts  --      3.0162                 2.9603                 1.4505
 IR Inten    --     51.2619                70.6135                 9.6890

                     43                     44                     45
                      A                      A                      A
 Frequencies --   1159.1351              1163.7716              1189.7188
 Red. masses --      1.3423                 2.9888                 1.2746
 Frc consts  --      1.0626                 2.3850                 1.0629
 IR Inten    --      4.2704                59.5029                 1.2366

                     46                     47                     48
                      A                      A                      A
 Frequencies --   1197.8905              1210.2171              1225.6264
 Red. masses --      2.5923                 2.1336                 1.3003
 Frc consts  --      2.1916                 1.8412                 1.1508
 IR Inten    --     27.1260                32.4336                 2.6808

                     49                     50                     51
                      A                      A                      A
 Frequencies --   1242.2644              1253.7596              1256.4456
 Red. masses --      1.4383                 1.4853                 1.3605
 Frc consts  --      1.3077                 1.3756                 1.2655
 IR Inten    --     33.7653                17.1696                29.0466

                     52                     53                     54
                      A                      A                      A
 Frequencies --   1269.0230              1276.8775              1278.9620
 Red. masses --      1.2017                 2.9615                 1.4532
 Frc consts  --      1.1402                 2.8448                 1.4005
 IR Inten    --      1.5737                22.2060                13.8928

                     55                     56                     57
                      A                      A                      A
 Frequencies --   1304.4082              1315.8808              1330.0536
 Red. masses --      1.4745                 5.1869                 1.8479
 Frc consts  --      1.4782                 5.2917                 1.9260
 IR Inten    --     11.2071                20.4180                30.1223

                     58                     59                     60
                      A                      A                      A
 Frequencies --   1345.2103              1357.7816              1413.6801
 Red. masses --      1.7012                 2.3628                 1.4621
 Frc consts  --      1.8138                 2.5665                 1.7216
 IR Inten    --     21.1768                18.4357                 4.7513

                     61                     62                     63
                      A                      A                      A
 Frequencies --   1447.4735              1468.0493              1496.1178
 Red. masses --      1.8281                 1.2988                 1.1325
 Frc consts  --      2.2567                 1.6493                 1.4936
 IR Inten    --      2.8597                 8.1915                 2.3233

                     64                     65                     66
                      A                      A                      A
 Frequencies --   1500.1152              1502.3138              1508.2531
 Red. masses --      1.2417                 1.5228                 1.3888
 Frc consts  --      1.6463                 2.0249                 1.8614
 IR Inten    --      7.8055                13.7487                 2.8682

                     67                     68                     69
                      A                      A                      A
 Frequencies --   1511.7392              1516.3545              1531.9769
 Red. masses --      1.1100                 1.0948                 1.0868
 Frc consts  --      1.4946                 1.4831                 1.5028
 IR Inten    --      0.1545                 8.3757                 0.7104

                     70                     71                     72
                      A                      A                      A
 Frequencies --   1533.0090              1539.6326              1544.2892
 Red. masses --      1.0757                 1.0732                 1.1036
 Frc consts  --      1.4894                 1.4989                 1.5506
 IR Inten    --     18.2088                 8.3757                10.4646

                     73                     74                     75
                      A                      A                      A
 Frequencies --   1608.9249              2954.0239              3021.8429
 Red. masses --      5.5532                 1.0822                 1.0348
 Frc consts  --      8.4697                 5.5642                 5.5675
 IR Inten    --      4.6270                55.8780                44.5382

                     76                     77                     78
                      A                      A                      A
 Frequencies --   3035.7063              3067.9759              3070.3164
 Red. masses --      1.0649                 1.0392                 1.1020
 Frc consts  --      5.7821                 5.7630                 6.1206
 IR Inten    --     33.3155                20.7013                21.7709

                     79                     80                     81
                      A                      A                      A
 Frequencies --   3079.2856              3080.7731              3093.7672
 Red. masses --      1.0923                 1.0620                 1.0678
 Frc consts  --      6.1022                 5.9390                 6.0216
 IR Inten    --     31.6900                29.3230                59.9531

                     82                     83                     84
                      A                      A                      A
 Frequencies --   3097.9893              3132.5297              3133.4426
 Red. masses --      1.0676                 1.1046                 1.1056
 Frc consts  --      6.0370                 6.3860                 6.3956
 IR Inten    --     26.4663                23.4957                13.9069

                     85                     86                     87
                      A                      A                      A
 Frequencies --   3134.7102              3162.4565              3168.9615
 Red. masses --      1.0994                 1.0994                 1.0995
 Frc consts  --      6.3649                 6.4781                 6.5052
 IR Inten    --     24.5193                15.3372                13.6732

                     88                     89                     90
                      A                      A                      A
 Frequencies --   3183.7904              3304.0839              3750.4720
 Red. masses --      1.1020                 1.0982                 1.0661
 Frc consts  --      6.5817                 7.0640                 8.8355
 IR Inten    --      2.0582                 0.5596                17.0666

 - Thermochemistry -
 -------------------
 Temperature   298.150 Kelvin.  Pressure   1.00000 Atm.
 Atom     1 has atomic number  6 and mass  12.00000

 Molecular mass:   211.13208 amu.
 Principal axes and moments of inertia in atomic units:
                           1         2         3
     Eigenvalues --  1824.493154239.889624353.82704
           X            0.99954  -0.02590   0.01592
           Y            0.02809   0.98709  -0.15768
           Z           -0.01163   0.15805   0.98736
 This molecule is an asymmetric top.
 Rotational symmetry number  1.
 Warning -- assumption of classical behavior for rotation
           may cause significant error
 Rotational temperatures (Kelvin)      0.04747     0.02043     0.01989
 Rotational constants (GHZ):           0.98917     0.42566     0.41452
 Zero-point vibrational energy     719653.5 (Joules/Mol)
                                  172.00133 (Kcal/Mol)
 Warning -- explicit consideration of  22 degrees of freedom as
           vibrations may cause significant error
 Vibrational temperatures:     73.74    76.32    95.18   144.00   162.07
          (Kelvin)            192.98   235.99   264.68   281.34   321.12
                              326.80   402.66   413.33   434.09   475.09
                              504.04   568.40   626.56   688.87   729.07
                              827.37   888.79   944.58  1016.75  1049.62
                             1058.63  1104.47  1172.37  1210.97  1225.34
                             1238.71  1268.47  1371.16  1383.45  1412.33
                             1431.56  1478.75  1515.86  1537.30  1599.09
                             1630.79  1645.17  1667.74  1674.41  1711.74
                             1723.50  1741.23  1763.40  1787.34  1803.88
                             1807.74  1825.84  1837.14  1840.14  1876.75
                             1893.26  1913.65  1935.46  1953.54  2033.97
                             2082.59  2112.20  2152.58  2158.33  2161.49
                             2170.04  2175.06  2181.70  2204.17  2205.66
                             2215.19  2221.89  2314.88  4250.18  4347.76
                             4367.70  4414.13  4417.50  4430.41  4432.55
                             4451.24  4457.32  4507.01  4508.33  4510.15
                             4550.07  4559.43  4580.76  4753.84  5396.09

 Zero-point correction=                           0.274102 (Hartree/Particle)
 Thermal correction to Energy=                    0.289229
 Thermal correction to Enthalpy=                  0.290173
 Thermal correction to Gibbs Free Energy=         0.231869
 Sum of electronic and zero-point Energies=           -705.687188
 Sum of electronic and thermal Energies=              -705.672061
 Sum of electronic and thermal Enthalpies=            -705.671117
 Sum of electronic and thermal Free Energies=         -705.729421

                     E (Thermal)             CV                S
                      KCal/Mol        Cal/Mol-Kelvin    Cal/Mol-Kelvin
 Total                  181.494             56.833            122.711
 Electronic               0.000              0.000              0.000
 Translational            0.889              2.981             41.946
 Rotational               0.889              2.981             31.888
 Vibrational            179.716             50.871             48.878
 Vibration     1          0.596              1.977              4.768
 Vibration     2          0.596              1.976              4.700
 Vibration     3          0.598              1.970              4.265
 Vibration     4          0.604              1.949              3.453
 Vibration     5          0.607              1.939              3.223
 Vibration     6          0.613              1.919              2.886
 Vibration     7          0.623              1.887              2.503
 Vibration     8          0.631              1.862              2.288
 Vibration     9          0.636              1.846              2.175
 Vibration    10          0.649              1.806              1.933
 Vibration    11          0.651              1.800              1.901
 Vibration    12          0.680              1.711              1.535
 Vibration    13          0.684              1.697              1.490
 Vibration    14          0.694              1.670              1.407
 Vibration    15          0.713              1.615              1.259
 Vibration    16          0.727              1.575              1.165
 Vibration    17          0.762              1.481              0.981
 Vibration    18          0.796              1.393              0.841
 Vibration    19          0.835              1.297              0.713
 Vibration    20          0.862              1.235              0.642
 Vibration    21          0.931              1.085              0.495
 Vibration    22          0.978              0.994              0.420

                           ! Non-Optimized Parameters !
 Normal termination of Gaussian 16 at Thu Dec 10 18:05:18 2020.

 ----------------------------------------------------------------------
 # B3LYP/6-311++G(d,p) empiricaldispersion=gd3bj scf=xqc pop=npa geom=c
 heck
 ----------------------------------------------------------------------

 ---------------------------------------
 CID_103560261_JID_5865_Energie_neutraal
 ---------------------------------------
 Structure from the checkpoint file:  "JID_5865.chk"
 Charge =  0 Multiplicity = 1

 SCF Done:  E(RB3LYP) =  -706.165001598     A.U. after   15 cycles
 Normal termination of Gaussian 16 at Thu Dec 10 18:09:41 2020.

 ----------------------------------------------------------------------
 # B3LYP/6-311++G(d,p) empiricaldispersion=gd3bj scf=xqc pop=npa geom=c
 heck
 ----------------------------------------------------------------------

 -------------------------------------
 CID_103560261_JID_5865_Energie_kation
 -------------------------------------
 Structure from the checkpoint file:  "JID_5865.chk"
 Charge =  1 Multiplicity = 2

 SCF Done:  E(UB3LYP) =  -705.844036142     A.U. after   26 cycles
 Normal termination of Gaussian 16 at Thu Dec 10 18:19:42 2020.
 Gaussian 16:  ES64L-G16RevA.03 25-Dec-2016

 ----------------------------------------------------------------------
 # B3LYP/6-311++G(d,p) empiricaldispersion=gd3bj scf=xqc pop=npa geom=c
 heck
 ----------------------------------------------------------------------

 ------------------------------------
 CID_103560261_JID_5865_Energie_anion
 ------------------------------------
 Structure from the checkpoint file:  "JID_5865.chk"
 Charge = -1 Multiplicity = 2

                         Standard orientation:
 ---------------------------------------------------------------------
 Center     Atomic      Atomic             Coordinates (Angstroms)
 Number     Number       Type             X           Y           Z
 ---------------------------------------------------------------------
      1          6           0        2.234500   -0.652985    2.090419
      2          7           0        2.232365   -0.029636    0.782373
      3          6           0        1.557762   -0.377531   -0.347277
      4          6           0        1.926089    0.587981   -1.260830
      5          7           0        2.774847    1.467596   -0.657442
      6          7           0        2.961341    1.101540    0.579598
      7          6           0        0.632080   -1.550167   -0.447908
      8          6           0       -0.690851   -1.409428    0.334002
      9          6           0       -1.572156   -0.169271    0.143934
     10          6           0       -1.049087    1.194534    0.696141
     11          6           0       -1.392370    1.871709   -0.657574
     12          6           0       -1.691576    0.478071   -1.271875
     13          8           0       -2.810001   -0.604419    0.718209
     14          6           0       -3.885365    0.311745    0.751233
     15          8           0        0.426863   -1.764326   -1.842328
     16          1           0        2.395613   -1.730776    1.996974
     17          1           0        3.053699   -0.207307    2.655015
     18          1           0        1.290440   -0.471597    2.613588
     19          1           0        1.637431    0.682266   -2.295635
     20          1           0        1.144144   -2.429660   -0.018822
     21          1           0       -1.304619   -2.286063    0.083157
     22          1           0       -0.478397   -1.504333    1.406224
     23          1           0       -1.574934    1.561103    1.582329
     24          1           0        0.019061    1.196458    0.915281
     25          1           0       -0.571309    2.423275   -1.121183
     26          1           0       -2.268511    2.525170   -0.607142
     27          1           0       -0.918871    0.125297   -1.954396
     28          1           0       -2.663173    0.347171   -1.757393
     29          1           0       -3.666917    1.199573    1.360112
     30          1           0       -4.187614    0.642930   -0.251647
     31          1           0       -4.723417   -0.221888    1.206898
     32          1           0       -0.311552   -2.386106   -1.933702
 ---------------------------------------------------------------------

 SCF Done:  E(UB3LYP) =  -706.157941216     A.U. after   29 cycles

 The electronic state is 2-A.
 Alpha  occ. eigenvalues --  -19.03398 -19.02917 -14.30678 -14.26991 -14.23671
 Alpha  occ. eigenvalues --  -10.14848 -10.13463 -10.12385 -10.12260 -10.11724
 Alpha  occ. eigenvalues --  -10.09498 -10.07629 -10.07316 -10.06885 -10.06558
 Alpha  occ. eigenvalues --   -1.00000  -0.94175  -0.93850  -0.82422  -0.74545
 Alpha  occ. eigenvalues --   -0.72070  -0.66882  -0.64304  -0.61525  -0.57263
 Alpha  occ. eigenvalues --   -0.56215  -0.52951  -0.52397  -0.48158  -0.45012
 Alpha  occ. eigenvalues --   -0.43325  -0.41133  -0.40724  -0.39938  -0.37761
 Alpha  occ. eigenvalues --   -0.36991  -0.36611  -0.35684  -0.34892  -0.33634
 Alpha  occ. eigenvalues --   -0.32427  -0.32072  -0.31258  -0.30109  -0.28841
 Alpha  occ. eigenvalues --   -0.27082  -0.26342  -0.24792  -0.23708  -0.23100
 Alpha  occ. eigenvalues --   -0.22621  -0.20272  -0.19624  -0.18489  -0.17819
 Alpha  occ. eigenvalues --   -0.16039  -0.15740   0.03992
 Alpha virt. eigenvalues --    0.06078   0.06898   0.07938   0.08369   0.08892
 Alpha virt. eigenvalues --    0.08993   0.09853   0.10307   0.10863   0.11387
 Alpha virt. eigenvalues --    0.12006   0.12374   0.13101   0.13274   0.13752

  Beta  occ. eigenvalues --  -19.03362 -19.02904 -14.30666 -14.26976 -14.23671
  Beta  occ. eigenvalues --  -10.14822 -10.13465 -10.12378 -10.12205 -10.11696
  Beta  occ. eigenvalues --  -10.09496 -10.07600 -10.07311 -10.06873 -10.06545
  Beta  occ. eigenvalues --   -0.99982  -0.94129  -0.93790  -0.82398  -0.74523
  Beta  occ. eigenvalues --   -0.72037  -0.66833  -0.64241  -0.61474  -0.57233
  Beta  occ. eigenvalues --   -0.56153  -0.52929  -0.52361  -0.48102  -0.44974
  Beta  occ. eigenvalues --   -0.43273  -0.41069  -0.40683  -0.39887  -0.37715
  Beta  occ. eigenvalues --   -0.36963  -0.36559  -0.35655  -0.34843  -0.33604
  Beta  occ. eigenvalues --   -0.32384  -0.32026  -0.31222  -0.30074  -0.28820
  Beta  occ. eigenvalues --   -0.27042  -0.26308  -0.24760  -0.23686  -0.23067
  Beta  occ. eigenvalues --   -0.22597  -0.20230  -0.19587  -0.18446  -0.17803
  Beta  occ. eigenvalues --   -0.16011  -0.15704
  Beta virt. eigenvalues --    0.06300   0.07219   0.07938   0.08131   0.08489
  Beta virt. eigenvalues --    0.09439   0.09716   0.10051   0.10784   0.11171
  Beta virt. eigenvalues --    0.11761   0.12276   0.12778   0.13321   0.13743

 Mulliken charges and spin densities:
               1          2
     1  C    1.102798  -1.414109
     2  N    0.027569   0.219901
     3  C   -0.213661   0.074827
     4  C   -0.297381  -0.256190
     5  N   -0.062259   0.002335
     6  N   -0.034004  -0.024566
     7  C    0.631554  -0.889797
     8  C   -0.316829   0.010663
     9  C   -1.348054   0.797867
    10  C    0.617276  -0.665804
    11  C   -0.313223   0.030595
    12  C    0.327800  -0.564696
    13  O   -0.056157   0.016815
    14  C    0.724039  -0.925777
    15  O   -0.156157  -0.026551
    16  H   -0.521540   0.706129
    17  H    0.049442   0.123652
    18  H   -0.341957   0.540262
    19  H    0.126758   0.049356
    20  H   -0.526936   0.791043
    21  H   -0.592624   0.803604
    22  H   -0.055615   0.221076
    23  H   -0.085986   0.271008
    24  H    0.336223  -0.199367
    25  H    0.143550   0.025098
    26  H    0.129835   0.017417
    27  H    0.394980  -0.269727
    28  H   -0.183177   0.354190
    29  H   -0.112526   0.242306
    30  H   -0.111077   0.242908
    31  H   -0.181558   0.334906
    32  H   -0.101100   0.360627
 Sum of Mulliken charges =  -1.00000   1.00000

 Dipole moment (field-independent basis, Debye):
    X=             -0.8224    Y=              4.4914    Z=             -1.9201  Tot=              4.9534
 Quadrupole moment (field-independent basis, Debye-Ang):
   XX=           -152.8746   YY=           -143.3357   ZZ=           -128.3999
   XY=             -5.8945   XZ=              0.6976   YZ=              1.3312

 Summary of Natural Population Analysis:

                                       Natural Population
                Natural  -----------------------------------------------
    Atom  No    Charge         Core      Valence    Rydberg      Total
 -----------------------------------------------------------------------
      C    1   -0.17827      0.99963     2.17058    0.00806     3.17827
      N    2   -0.10795      0.99961     2.59498    0.01335     3.60795
      C    3    0.06694      0.99949     1.91820    0.01537     2.93306
      C    4   -0.04282      0.99952     2.03073    0.01257     3.04282
      N    5   -0.13839      0.99976     2.62535    0.01329     3.63839
      N    6   -0.05115      0.99978     2.53453    0.01684     3.55115
      C    7    0.04987      0.99952     1.93478    0.01584     2.95013
      C    8   -0.20570      0.99954     2.19280    0.01337     3.20570
      C    9    0.14456      0.99951     1.83668    0.01925     2.85544
      C   10   -0.20582      0.99959     2.19759    0.00864     3.20582
      C   11   -0.19573      0.99965     2.18831    0.00777     3.19573
      C   12   -0.21093      0.99959     2.20277    0.00857     3.21093
      O   13   -0.30227      0.99986     3.29199    0.01041     4.30227
      C   14   -0.09745      0.99959     2.08942    0.00844     3.09745
      O   15   -0.36811      0.99989     3.36215    0.00606     4.36811
      H   16    0.10675      0.00000     0.39137    0.00187     0.39325
      H   17    0.11043      0.00000     0.38812    0.00145     0.38957
      H   18    0.10392      0.00000     0.39428    0.00180     0.39608
      H   19    0.10748      0.00000     0.39123    0.00129     0.39252
      H   20    0.09586      0.00000     0.39985    0.00429     0.40414
      H   21    0.11180      0.00000     0.38507    0.00313     0.38820
      H   22    0.10962      0.00000     0.38774    0.00264     0.39038
      H   23    0.10117      0.00000     0.39773    0.00110     0.39883
      H   24    0.10516      0.00000     0.39321    0.00163     0.39484
      H   25    0.09964      0.00000     0.39943    0.00093     0.40036
      H   26    0.09394      0.00000     0.40499    0.00107     0.40606
      H   27    0.11338      0.00000     0.38495    0.00167     0.38662
      H   28    0.10024      0.00000     0.39875    0.00100     0.39976
      H   29    0.07805      0.00000     0.42020    0.00175     0.42195
      H   30    0.07828      0.00000     0.41993    0.00179     0.42172
      H   31    0.09163      0.00000     0.40724    0.00113     0.40837
      H   32    0.23588      0.00000     0.25914    0.00498     0.26412
 =======================================================================
   * Total *    0.00000     14.99453    41.79411    0.21136    57.00000

 Normal termination of Gaussian 16 at Thu Dec 10 18:30:19 2020.
