 Gaussian 16, Revision A.03,

 -----------------------------------------------------------
 # opt freq B3LYP/6-31G(d) empiricaldispersion=gd3bj scf=xqc
 -----------------------------------------------------------

 ------------------------------
 CID_91251618_JID_5840_neutraal
 ------------------------------
 Symbolic Z-matrix:
 Charge =  0 Multiplicity = 1

 SCF Done:  E(RB3LYP) =  -690.221964153     A.U. after   15 cycles
 SCF Done:  E(RB3LYP) =  -690.227873076     A.U. after   13 cycles
 SCF Done:  E(RB3LYP) =  -690.228809329     A.U. after   12 cycles
 SCF Done:  E(RB3LYP) =  -690.228488388     A.U. after   12 cycles
 SCF Done:  E(RB3LYP) =  -690.229226209     A.U. after   12 cycles
 SCF Done:  E(RB3LYP) =  -690.229261972     A.U. after   11 cycles
 SCF Done:  E(RB3LYP) =  -690.229284612     A.U. after   10 cycles
 SCF Done:  E(RB3LYP) =  -690.229288272     A.U. after    9 cycles
 SCF Done:  E(RB3LYP) =  -690.229289593     A.U. after    8 cycles
 SCF Done:  E(RB3LYP) =  -690.229289969     A.U. after    8 cycles
 SCF Done:  E(RB3LYP) =  -690.229290059     A.U. after    8 cycles
 SCF Done:  E(RB3LYP) =  -690.229290084     A.U. after    7 cycles
 Optimization completed.
    -- Stationary point found.
 Normal termination of Gaussian 16 at Thu Dec 10 17:11:29 2020.

 --------------------------------------------------------------------
 #N Geom=AllCheck Guess=TCheck SCRF=Check GenChk RB3LYP/6-31G(d) Freq
 --------------------------------------------------------------------

 Structure from the checkpoint file:  "JID_5840.chk"
 ------------------------------
 CID_91251618_JID_5840_neutraal
 ------------------------------
 Charge =  0 Multiplicity = 1

 SCF Done:  E(RB3LYP) =  -690.229290084     A.U. after    1 cycles

  Exact polarizability: 210.406  10.330 132.389 -14.166  11.981  72.534
 Approx polarizability: 319.293  19.787 233.331 -31.250  32.054 111.819

                      1                      2                      3
                      A                      A                      A
 Frequencies --     23.6325                49.4433                88.5525
 Red. masses --      3.4816                 4.3054                 2.6566
 Frc consts  --      0.0011                 0.0062                 0.0123
 IR Inten    --      0.2784                 0.1372                 0.1819

                      4                      5                      6
                      A                      A                      A
 Frequencies --    106.3361               152.0135               176.4712
 Red. masses --      4.2835                 4.1261                 3.3746
 Frc consts  --      0.0285                 0.0562                 0.0619
 IR Inten    --      0.2139                 0.6665                 0.4656

                      7                      8                      9
                      A                      A                      A
 Frequencies --    207.1168               264.9565               270.9960
 Red. masses --      2.3461                 2.2920                 4.3335
 Frc consts  --      0.0593                 0.0948                 0.1875
 IR Inten    --      2.2083                 0.9071                 2.0503

                     10                     11                     12
                      A                      A                      A
 Frequencies --    291.3077               315.3320               385.9203
 Red. masses --      2.9697                 3.7507                 7.9059
 Frc consts  --      0.1485                 0.2197                 0.6937
 IR Inten    --      7.5948                 2.6162                 0.6471

                     13                     14                     15
                      A                      A                      A
 Frequencies --    398.5030               417.4119               436.7785
 Red. masses --      2.5288                 5.9112                 3.1614
 Frc consts  --      0.2366                 0.6068                 0.3553
 IR Inten    --      0.6599                11.3979                 3.4777

                     16                     17                     18
                      A                      A                      A
 Frequencies --    557.2596               563.2406               572.9322
 Red. masses --      6.9225                 4.2986                 4.1797
 Frc consts  --      1.2666                 0.8035                 0.8084
 IR Inten    --     18.2695                 2.0586                 2.3714

                     19                     20                     21
                      A                      A                      A
 Frequencies --    611.3999               647.1564               675.8386
 Red. masses --      7.1487                 6.0489                 5.0105
 Frc consts  --      1.5745                 1.4926                 1.3484
 IR Inten    --      6.6059                 5.1886                 5.7577

                     22                     23                     24
                      A                      A                      A
 Frequencies --    734.3645               760.9117               765.7163
 Red. masses --      2.1483                 2.6570                 6.4780
 Frc consts  --      0.6826                 0.9064                 2.2378
 IR Inten    --      1.2032                20.5183                 2.8737

                     25                     26                     27
                      A                      A                      A
 Frequencies --    771.4706               803.8615               819.3888
 Red. masses --      1.7533                 1.8281                 1.2120
 Frc consts  --      0.6148                 0.6960                 0.4794
 IR Inten    --     31.3064                20.6247               107.7674

                     28                     29                     30
                      A                      A                      A
 Frequencies --    860.1821               869.7624               880.4691
 Red. masses --      4.2695                 1.4124                 3.1977
 Frc consts  --      1.8612                 0.6295                 1.4605
 IR Inten    --     10.5815                 0.6097                12.0124

                     31                     32                     33
                      A                      A                      A
 Frequencies --    901.4277               919.6884               946.5570
 Red. masses --      2.3615                 1.7998                 1.3440
 Frc consts  --      1.1306                 0.8969                 0.7095
 IR Inten    --      8.6449                 2.2019                 1.4009

                     34                     35                     36
                      A                      A                      A
 Frequencies --    983.0282              1037.6929              1051.6549
 Red. masses --      1.2535                 2.0779                 1.9025
 Frc consts  --      0.7137                 1.3183                 1.2397
 IR Inten    --      0.0154                 0.6909                16.6325

                     37                     38                     39
                      A                      A                      A
 Frequencies --   1071.6678              1115.7712              1132.5804
 Red. masses --      2.4863                 1.8066                 1.8758
 Frc consts  --      1.6824                 1.3252                 1.4177
 IR Inten    --     42.0285                 9.5890                14.3252

                     40                     41                     42
                      A                      A                      A
 Frequencies --   1156.4525              1178.9122              1206.3572
 Red. masses --      1.9962                 1.4490                 2.5164
 Frc consts  --      1.5729                 1.1865                 2.1577
 IR Inten    --     21.3279                 3.9027                27.5367

                     43                     44                     45
                      A                      A                      A
 Frequencies --   1242.8115              1265.9535              1298.2240
 Red. masses --      1.9566                 1.8397                 1.2957
 Frc consts  --      1.7806                 1.7371                 1.2866
 IR Inten    --     26.4971                52.9474                 7.9344

                     46                     47                     48
                      A                      A                      A
 Frequencies --   1304.7380              1334.9607              1364.9180
 Red. masses --      3.1581                 1.6924                 1.6652
 Frc consts  --      3.1675                 1.7770                 1.8278
 IR Inten    --     69.9019                87.4044               115.7836

                     49                     50                     51
                      A                      A                      A
 Frequencies --   1384.5549              1390.1708              1447.2509
 Red. masses --      1.7312                 2.0091                 1.2528
 Frc consts  --      1.9554                 2.2876                 1.5460
 IR Inten    --     38.4463                18.2527                 2.5048

                     52                     53                     54
                      A                      A                      A
 Frequencies --   1466.9755              1487.0347              1500.4905
 Red. masses --      2.3736                 2.3830                 1.8451
 Frc consts  --      3.0096                 3.1046                 2.4476
 IR Inten    --    191.1424                 2.8213                 3.1296

                     55                     56                     57
                      A                      A                      A
 Frequencies --   1512.2778              1520.3153              1531.3893
 Red. masses --      1.4417                 1.1207                 1.0624
 Frc consts  --      1.9426                 1.5262                 1.4679
 IR Inten    --     14.9931                12.8528                 7.4453

                     58                     59                     60
                      A                      A                      A
 Frequencies --   1535.4979              1547.2446              1615.8230
 Red. masses --      1.0933                 4.8271                 3.8581
 Frc consts  --      1.5188                 6.8085                 5.9348
 IR Inten    --     18.1642                24.0187               334.9076

                     61                     62                     63
                      A                      A                      A
 Frequencies --   1651.3403              1680.6684              1691.7059
 Red. masses --      5.2836                 6.4984                 9.7663
 Frc consts  --      8.4889                10.8149                16.4676
 IR Inten    --     52.8864               121.6849               205.0871

                     64                     65                     66
                      A                      A                      A
 Frequencies --   3050.0614              3053.9247              3068.0967
 Red. masses --      1.0370                 1.0596                 1.0599
 Frc consts  --      5.6837                 5.8223                 5.8782
 IR Inten    --     15.4396                37.4503                12.6600

                     67                     68                     69
                      A                      A                      A
 Frequencies --   3089.7065              3116.1068              3120.8513
 Red. masses --      1.1018                 1.1044                 1.1023
 Frc consts  --      6.1972                 6.3186                 6.3253
 IR Inten    --      6.1639                13.9274                53.9656

                     70                     71                     72
                      A                      A                      A
 Frequencies --   3123.1060              3196.3371              3209.5597
 Red. masses --      1.1040                 1.0866                 1.0903
 Frc consts  --      6.3444                 6.5406                 6.6176
 IR Inten    --     41.9861                 2.8963                12.3719

                     73                     74                     75
                      A                      A                      A
 Frequencies --   3223.2718              3229.2537              3309.4882
 Red. masses --      1.0947                 1.0953                 1.0661
 Frc consts  --      6.7011                 6.7293                 6.8796
 IR Inten    --     13.3968                 7.5285               144.1007

 - Thermochemistry -
 -------------------
 Temperature   298.150 Kelvin.  Pressure   1.00000 Atm.
 Atom     1 has atomic number  6 and mass  12.00000

 Molecular mass:   204.07864 amu.
 Principal axes and moments of inertia in atomic units:
                           1         2         3
     Eigenvalues --  1514.749624604.528275615.22013
           X            0.99982  -0.01869   0.00410
           Y            0.01872   0.99979  -0.00823
           Z           -0.00395   0.00830   0.99996
 This molecule is an asymmetric top.
 Rotational symmetry number  1.
 Warning -- assumption of classical behavior for rotation
           may cause significant error
 Rotational temperatures (Kelvin)      0.05718     0.01881     0.01542
 Rotational constants (GHZ):           1.19145     0.39195     0.32140
 Zero-point vibrational energy     572680.0 (Joules/Mol)
                                  136.87381 (Kcal/Mol)
 Warning -- explicit consideration of  19 degrees of freedom as
           vibrations may cause significant error
 Vibrational temperatures:     34.00    71.14   127.41   152.99   218.71
          (Kelvin)            253.90   297.99   381.21   389.90   419.13
                              453.69   555.25   573.36   600.56   628.43
                              801.77   810.38   824.32   879.67   931.11
                              972.38  1056.59  1094.78  1101.70  1109.97
                             1156.58  1178.92  1237.61  1251.39  1266.80
                             1296.95  1323.23  1361.88  1414.36  1493.01
                             1513.10  1541.89  1605.35  1629.53  1663.88
                             1696.19  1735.68  1788.13  1821.42  1867.85
                             1877.23  1920.71  1963.81  1992.07  2000.15
                             2082.27  2110.65  2139.51  2158.87  2175.83
                             2187.39  2203.33  2209.24  2226.14  2324.81
                             2375.91  2418.11  2433.99  4388.36  4393.92
                             4414.31  4445.40  4483.38  4490.21  4493.45
                             4598.82  4617.84  4637.57  4646.18  4761.62

 Zero-point correction=                           0.218122 (Hartree/Particle)
 Thermal correction to Energy=                    0.231075
 Thermal correction to Enthalpy=                  0.232019
 Thermal correction to Gibbs Free Energy=         0.177523
 Sum of electronic and zero-point Energies=           -690.011168
 Sum of electronic and thermal Energies=              -689.998215
 Sum of electronic and thermal Enthalpies=            -689.997271
 Sum of electronic and thermal Free Energies=         -690.051767

                     E (Thermal)             CV                S
                      KCal/Mol        Cal/Mol-Kelvin    Cal/Mol-Kelvin
 Total                  145.002             49.841            114.696
 Electronic               0.000              0.000              0.000
 Translational            0.889              2.981             41.844
 Rotational               0.889              2.981             32.038
 Vibrational            143.224             43.879             40.814
 Vibration     1          0.593              1.985              6.303
 Vibration     2          0.595              1.978              4.840
 Vibration     3          0.601              1.957              3.692
 Vibration     4          0.605              1.944              3.335
 Vibration     5          0.619              1.900              2.647
 Vibration     6          0.628              1.871              2.365
 Vibration     7          0.641              1.830              2.069
 Vibration     8          0.671              1.737              1.629
 Vibration     9          0.675              1.727              1.590
 Vibration    10          0.687              1.690              1.466
 Vibration    11          0.703              1.644              1.334
 Vibration    12          0.755              1.500              1.016
 Vibration    13          0.765              1.473              0.968
 Vibration    14          0.780              1.432              0.901
 Vibration    15          0.797              1.390              0.837
 Vibration    16          0.913              1.124              0.529
 Vibration    17          0.919              1.111              0.517
 Vibration    18          0.929              1.090              0.499
 Vibration    19          0.971              1.008              0.430

 Optimization completed.
    -- Stationary point found.
 Normal termination of Gaussian 16 at Thu Dec 10 17:20:24 2020.

 ----------------------------------------------------------------------
 # B3LYP/6-311++G(d,p) empiricaldispersion=gd3bj scf=xqc pop=npa geom=c
 heck
 ----------------------------------------------------------------------

 --------------------------------------
 CID_91251618_JID_5840_Energie_neutraal
 --------------------------------------
 Structure from the checkpoint file:  "JID_5840.chk"
 Charge =  0 Multiplicity = 1

 SCF Done:  E(RB3LYP) =  -690.422193207     A.U. after   15 cycles
 Normal termination of Gaussian 16 at Thu Dec 10 17:24:35 2020.

 ----------------------------------------------------------------------
 # B3LYP/6-311++G(d,p) empiricaldispersion=gd3bj scf=xqc pop=npa geom=c
 heck
 ----------------------------------------------------------------------

 ------------------------------------
 CID_91251618_JID_5840_Energie_kation
 ------------------------------------
 Structure from the checkpoint file:  "JID_5840.chk"
 Charge =  1 Multiplicity = 2

 SCF Done:  E(UB3LYP) =  -690.122546142     A.U. after   24 cycles
 Normal termination of Gaussian 16 at Thu Dec 10 17:33:38 2020.
 Gaussian 16:  ES64L-G16RevA.03 25-Dec-2016

 ----------------------------------------------------------------------
 # B3LYP/6-311++G(d,p) empiricaldispersion=gd3bj scf=xqc pop=npa geom=c
 heck
 ----------------------------------------------------------------------

 -----------------------------------
 CID_91251618_JID_5840_Energie_anion
 -----------------------------------
 Structure from the checkpoint file:  "JID_5840.chk"
 Charge = -1 Multiplicity = 2

                         Standard orientation:
 ---------------------------------------------------------------------
 Center     Atomic      Atomic             Coordinates (Angstroms)
 Number     Number       Type             X           Y           Z
 ---------------------------------------------------------------------
      1          6           0        2.859863   -1.621744    1.389802
      2          6           0        3.723414   -0.967556    0.308000
      3          6           0        2.909657   -0.476068   -0.908111
      4          6           0        1.949202    0.619304   -0.507706
      5          8           0        2.351190    1.773891   -0.254261
      6          6           0        0.550468    0.350956   -0.360532
      7          6           0       -0.395245    1.268984    0.060762
      8          6           0       -1.656441    0.585802    0.099554
      9          6           0       -2.972088    0.940180    0.432667
     10          6           0       -3.953210   -0.037728    0.342442
     11          6           0       -3.638537   -1.348935   -0.071566
     12          6           0       -2.339160   -1.720881   -0.406414
     13          6           0       -1.364587   -0.733015   -0.311919
     14          8           0       -0.038971   -0.891587   -0.592398
     15          8           0       -0.157350    2.541041    0.372393
     16          1           0        2.148073   -0.908052    1.819623
     17          1           0        3.480225   -2.005300    2.206853
     18          1           0        2.280838   -2.458304    0.981609
     19          1           0        4.267719   -0.112901    0.726498
     20          1           0        4.475589   -1.681038   -0.049556
     21          1           0        3.589587   -0.057657   -1.658174
     22          1           0        2.363532   -1.311438   -1.358774
     23          1           0       -3.205962    1.950914    0.750336
     24          1           0       -4.980866    0.205788    0.593555
     25          1           0       -4.430780   -2.089262   -0.131004
     26          1           0       -2.089338   -2.726747   -0.725324
     27          1           0        0.822407    2.651446    0.236605
 ---------------------------------------------------------------------

 SCF Done:  E(UB3LYP) =  -690.446545529     A.U. after   22 cycles

 The electronic state is 2-A.
 Alpha  occ. eigenvalues --  -19.03795 -19.00185 -18.93219 -10.09511 -10.07763
 Alpha  occ. eigenvalues --  -10.07519 -10.06287 -10.05227 -10.04568 -10.04281
 Alpha  occ. eigenvalues --  -10.04111 -10.03883 -10.03817 -10.03789 -10.03654
 Alpha  occ. eigenvalues --   -0.96403  -0.92100  -0.86481  -0.72199  -0.67144
 Alpha  occ. eigenvalues --   -0.65249  -0.61809  -0.60030  -0.57554  -0.51688
 Alpha  occ. eigenvalues --   -0.47615  -0.47258  -0.45906  -0.41601  -0.39665
 Alpha  occ. eigenvalues --   -0.37274  -0.35360  -0.33708  -0.32757  -0.31928
 Alpha  occ. eigenvalues --   -0.31496  -0.30178  -0.29338  -0.28114  -0.27759
 Alpha  occ. eigenvalues --   -0.25799  -0.25501  -0.24774  -0.24513  -0.23139
 Alpha  occ. eigenvalues --   -0.22370  -0.22181  -0.21649  -0.20103  -0.19972
 Alpha  occ. eigenvalues --   -0.14131  -0.11073  -0.10279  -0.07748   0.03352
 Alpha virt. eigenvalues --    0.08139   0.08545   0.09948   0.10051   0.10871
 Alpha virt. eigenvalues --    0.11534   0.12182   0.12300   0.12996   0.13639
 Alpha virt. eigenvalues --    0.13928   0.14125   0.14986   0.15190   0.16255

  Beta  occ. eigenvalues --  -19.03719 -19.00068 -18.92715 -10.09489 -10.07450
  Beta  occ. eigenvalues --  -10.07139 -10.06341 -10.05181 -10.04563 -10.04368
  Beta  occ. eigenvalues --  -10.04043 -10.03851 -10.03810 -10.03659 -10.03404
  Beta  occ. eigenvalues --   -0.96280  -0.91822  -0.85560  -0.71950  -0.66995
  Beta  occ. eigenvalues --   -0.64855  -0.61570  -0.59602  -0.57415  -0.51143
  Beta  occ. eigenvalues --   -0.47466  -0.47107  -0.45703  -0.41278  -0.39355
  Beta  occ. eigenvalues --   -0.37104  -0.35238  -0.33281  -0.32632  -0.31580
  Beta  occ. eigenvalues --   -0.31316  -0.30002  -0.29168  -0.27938  -0.27632
  Beta  occ. eigenvalues --   -0.25450  -0.24652  -0.24536  -0.23688  -0.23045
  Beta  occ. eigenvalues --   -0.22193  -0.21649  -0.21544  -0.19925  -0.18200
  Beta  occ. eigenvalues --   -0.13032  -0.10484  -0.09867  -0.06189
  Beta virt. eigenvalues --    0.07949   0.08495   0.09321   0.09938   0.10035
  Beta virt. eigenvalues --    0.10832   0.11486   0.12253   0.12811   0.12955
  Beta virt. eigenvalues --    0.13660   0.14056   0.14936   0.15127   0.15683

 Mulliken charges and spin densities:
               1          2
     1  C   -0.617349   0.022196
     2  C   -0.067864  -0.118593
     3  C   -0.135318   0.038060
     4  C   -0.664401   0.250160
     5  O   -0.475008   0.176227
     6  C    0.121690  -0.046737
     7  C    0.137324   0.201120
     8  C    1.018728  -0.034462
     9  C    0.086752   0.221678
    10  C   -0.139407  -0.063761
    11  C   -0.315801   0.179687
    12  C   -0.423368   0.031243
    13  C   -0.778825   0.007223
    14  O   -0.056779   0.023054
    15  O   -0.316620   0.033022
    16  H    0.163701   0.007548
    17  H    0.098264   0.009147
    18  H    0.123069  -0.002193
    19  H    0.150232  -0.012070
    20  H    0.058760   0.058185
    21  H    0.099039   0.053170
    22  H    0.155493  -0.000422
    23  H    0.131302  -0.014638
    24  H    0.109975   0.004609
    25  H    0.109575  -0.013956
    26  H    0.122096  -0.004822
    27  H    0.304740  -0.004675
 Sum of Mulliken charges =  -1.00000   1.00000

 Dipole moment (field-independent basis, Debye):
    X=             -0.3351    Y=             -3.2353    Z=              0.3154  Tot=              3.2679
 Quadrupole moment (field-independent basis, Debye-Ang):
   XX=           -126.5840   YY=           -108.0221   ZZ=            -98.3095
   XY=             -6.3519   XZ=              0.9745   YZ=              1.2075

 Summary of Natural Population Analysis:

                                       Natural Population
                Natural  -----------------------------------------------
    Atom  No    Charge         Core      Valence    Rydberg      Total
 -----------------------------------------------------------------------
      C    1   -0.28828      0.99967     2.28423    0.00438     3.28828
      C    2   -0.17935      0.99964     2.17251    0.00720     3.17935
      C    3   -0.22623      0.99961     2.21708    0.00954     3.22623
      C    4    0.29181      0.99956     1.68923    0.01939     2.70819
      O    5   -0.29493      0.99987     3.28831    0.00675     4.29493
      C    6    0.04812      0.99930     1.94024    0.01234     2.95188
      C    7    0.21386      0.99931     1.77281    0.01403     2.78614
      C    8   -0.08281      0.99946     2.07505    0.00830     3.08281
      C    9   -0.04379      0.99955     2.03520    0.00903     3.04379
      C   10   -0.14124      0.99959     2.13232    0.00934     3.14124
      C   11   -0.06369      0.99959     2.05446    0.00964     3.06369
      C   12   -0.12570      0.99952     2.11729    0.00889     3.12570
      C   13    0.17447      0.99938     1.81357    0.01258     2.82553
      O   14   -0.24210      0.99985     3.23439    0.00785     4.24210
      O   15   -0.33762      0.99987     3.33126    0.00649     4.33762
      H   16    0.10438      0.00000     0.39458    0.00104     0.39562
      H   17    0.08921      0.00000     0.40980    0.00099     0.41079
      H   18    0.09581      0.00000     0.40324    0.00095     0.40419
      H   19    0.09659      0.00000     0.40159    0.00182     0.40341
      H   20    0.08403      0.00000     0.41401    0.00196     0.41597
      H   21    0.10222      0.00000     0.39582    0.00196     0.39778
      H   22    0.09936      0.00000     0.39920    0.00144     0.40064
      H   23    0.09559      0.00000     0.40290    0.00151     0.40441
      H   24    0.09123      0.00000     0.40774    0.00103     0.40877
      H   25    0.08780      0.00000     0.41118    0.00102     0.41220
      H   26    0.09756      0.00000     0.40093    0.00150     0.40244
      H   27    0.25375      0.00000     0.24282    0.00343     0.24625
 =======================================================================
   * Total *    0.00003     14.99378    38.84178    0.16441    53.99997

 Normal termination of Gaussian 16 at Thu Dec 10 17:42:00 2020.
