 Gaussian 16, Revision A.03,

 -----------------------------------------------------------
 # opt freq B3LYP/6-31G(d) empiricaldispersion=gd3bj scf=xqc
 -----------------------------------------------------------

 -------------------------------
 CID_129925251_JID_2393_neutraal
 -------------------------------
 Symbolic Z-matrix:
 Charge =  0 Multiplicity = 1

 SCF Done:  E(RB3LYP) =  -594.347884317     A.U. after   14 cycles
 SCF Done:  E(RB3LYP) =  -594.351042333     A.U. after   12 cycles
 SCF Done:  E(RB3LYP) =  -594.350096185     A.U. after   12 cycles
 SCF Done:  E(RB3LYP) =  -594.351618504     A.U. after   11 cycles
 SCF Done:  E(RB3LYP) =  -594.351651469     A.U. after   11 cycles
 SCF Done:  E(RB3LYP) =  -594.351671144     A.U. after   10 cycles
 SCF Done:  E(RB3LYP) =  -594.351672618     A.U. after    8 cycles
 SCF Done:  E(RB3LYP) =  -594.351673356     A.U. after    8 cycles
 SCF Done:  E(RB3LYP) =  -594.351673576     A.U. after    7 cycles
 SCF Done:  E(RB3LYP) =  -594.351673871     A.U. after    8 cycles
 SCF Done:  E(RB3LYP) =  -594.351673956     A.U. after    7 cycles
 Optimization completed.
    -- Stationary point found.
 Normal termination of Gaussian 16 at Wed Dec  9 17:16:10 2020.

 --------------------------------------------------------------------
 #N Geom=AllCheck Guess=TCheck SCRF=Check GenChk RB3LYP/6-31G(d) Freq
 --------------------------------------------------------------------

 Structure from the checkpoint file:  "JID_2393.chk"
 -------------------------------
 CID_129925251_JID_2393_neutraal
 -------------------------------
 Charge =  0 Multiplicity = 1

 SCF Done:  E(RB3LYP) =  -594.351673956     A.U. after    1 cycles

  Exact polarizability: 110.464   4.114  92.679   3.253   1.341  86.720
 Approx polarizability: 138.883   6.687 135.041  11.581  -0.216 133.423

                      1                      2                      3
                      A                      A                      A
 Frequencies --     39.9341                55.3727                78.0609
 Red. masses --      6.6111                 4.3558                 4.4946
 Frc consts  --      0.0062                 0.0079                 0.0161
 IR Inten    --      0.9189                 0.1748                 0.1586

                      4                      5                      6
                      A                      A                      A
 Frequencies --    124.1272               153.1684               245.3637
 Red. masses --      4.7064                 3.5241                 2.6271
 Frc consts  --      0.0427                 0.0487                 0.0932
 IR Inten    --      1.6310                 0.7598                 0.9893

                      7                      8                      9
                      A                      A                      A
 Frequencies --    252.7343               276.0858               298.6939
 Red. masses --      1.8426                 6.3095                 3.9264
 Frc consts  --      0.0693                 0.2834                 0.2064
 IR Inten    --      0.3974                 9.6593                 8.8009

                     10                     11                     12
                      A                      A                      A
 Frequencies --    344.5502               373.0770               396.2785
 Red. masses --      2.3181                 2.1437                 1.3086
 Frc consts  --      0.1621                 0.1758                 0.1211
 IR Inten    --      1.6394                 8.2304                93.4446

                     13                     14                     15
                      A                      A                      A
 Frequencies --    444.2287               449.1824               468.8757
 Red. masses --      2.2715                 4.1119                 3.0722
 Frc consts  --      0.2641                 0.4888                 0.3979
 IR Inten    --      1.8972                16.0248                 2.9151

                     16                     17                     18
                      A                      A                      A
 Frequencies --    518.3981               603.8319               626.5809
 Red. masses --      2.4894                 2.0139                 1.2443
 Frc consts  --      0.3942                 0.4326                 0.2878
 IR Inten    --     29.1728                 8.0094                91.4619

                     19                     20                     21
                      A                      A                      A
 Frequencies --    656.8014               766.2207               793.6193
 Red. masses --      3.8948                 3.2021                 2.8184
 Frc consts  --      0.9899                 1.1076                 1.0459
 IR Inten    --     18.3021                42.3972                17.9544

                     22                     23                     24
                      A                      A                      A
 Frequencies --    799.8310               830.0688               845.0696
 Red. masses --      1.9292                 1.5198                 2.0832
 Frc consts  --      0.7272                 0.6170                 0.8765
 IR Inten    --     80.4966                 3.8923                25.7647

                     25                     26                     27
                      A                      A                      A
 Frequencies --    904.4476               923.6647               973.4949
 Red. masses --      2.3026                 2.2467                 1.6887
 Frc consts  --      1.1098                 1.1294                 0.9429
 IR Inten    --      0.7394                 0.3812                12.4919

                     28                     29                     30
                      A                      A                      A
 Frequencies --   1005.7692              1011.7628              1051.5940
 Red. masses --      1.8465                 1.7721                 3.0689
 Frc consts  --      1.1005                 1.0688                 1.9995
 IR Inten    --     10.6254                 0.9273                 1.0446

                     31                     32                     33
                      A                      A                      A
 Frequencies --   1072.3479              1102.4170              1116.3022
 Red. masses --      1.6178                 3.8360                 2.6027
 Frc consts  --      1.0961                 2.7468                 1.9109
 IR Inten    --      2.1562               151.4160                10.0037

                     34                     35                     36
                      A                      A                      A
 Frequencies --   1130.1738              1149.7823              1176.8468
 Red. masses --      2.4676                 2.0601                 3.1149
 Frc consts  --      1.8570                 1.6046                 2.5418
 IR Inten    --      8.8184                13.6894                31.8018

                     37                     38                     39
                      A                      A                      A
 Frequencies --   1184.9473              1188.4347              1218.3302
 Red. masses --      2.3558                 1.1560                 1.3953
 Frc consts  --      1.9489                 0.9619                 1.2202
 IR Inten    --    145.9793                 2.6557                 1.0878

                     40                     41                     42
                      A                      A                      A
 Frequencies --   1243.1128              1284.5951              1304.5712
 Red. masses --      1.1925                 1.2721                 1.3537
 Frc consts  --      1.0857                 1.2369                 1.3574
 IR Inten    --      2.5394                32.6931                 3.8779

                     43                     44                     45
                      A                      A                      A
 Frequencies --   1321.9603              1328.8569              1349.1634
 Red. masses --      1.2612                 1.2430                 1.3317
 Frc consts  --      1.2986                 1.2932                 1.4282
 IR Inten    --      3.6430                 4.4059                 5.6779

                     46                     47                     48
                      A                      A                      A
 Frequencies --   1369.4525              1371.3326              1388.1580
 Red. masses --      1.3006                 1.3661                 1.4047
 Frc consts  --      1.4371                 1.5136                 1.5949
 IR Inten    --     35.4328                27.5115                32.5774

                     49                     50                     51
                      A                      A                      A
 Frequencies --   1390.4928              1407.4123              1426.8867
 Red. masses --      1.4021                 1.4481                 1.6171
 Frc consts  --      1.5972                 1.6900                 1.9398
 IR Inten    --     12.9283                 4.6753                 1.8284

                     52                     53                     54
                      A                      A                      A
 Frequencies --   1450.0677              1485.5824              1497.3491
 Red. masses --      1.4742                 1.5110                 1.1956
 Frc consts  --      1.8264                 1.9647                 1.5794
 IR Inten    --     13.7436                19.3392                 3.2788

                     55                     56                     57
                      A                      A                      A
 Frequencies --   1505.8107              1512.1822              1519.8406
 Red. masses --      1.1574                 1.1022                 1.1008
 Frc consts  --      1.5462                 1.4850                 1.4982
 IR Inten    --      0.4942                 2.6502                 8.5114

                     58                     59                     60
                      A                      A                      A
 Frequencies --   1527.3656              1538.4107              1834.4138
 Red. masses --      1.1236                 1.1065                 9.6002
 Frc consts  --      1.5443                 1.5429                19.0338
 IR Inten    --      1.2920                 2.0015               271.7362

                     61                     62                     63
                      A                      A                      A
 Frequencies --   2909.5052              2916.2191              3019.7016
 Red. masses --      1.0744                 1.0726                 1.0815
 Frc consts  --      5.3588                 5.3746                 5.8105
 IR Inten    --     29.1452               137.1170                12.0544

                     64                     65                     66
                      A                      A                      A
 Frequencies --   3036.2196              3040.4136              3046.3036
 Red. masses --      1.0610                 1.0605                 1.0636
 Frc consts  --      5.7626                 5.7760                 5.8151
 IR Inten    --      1.5904                31.8522                39.3636

                     67                     68                     69
                      A                      A                      A
 Frequencies --   3079.5054              3080.9633              3081.7963
 Red. masses --      1.0928                 1.0949                 1.0902
 Frc consts  --      6.1062                 6.1235                 6.1007
 IR Inten    --     58.7289                20.0494                28.5840

                     70                     71                     72
                      A                      A                      A
 Frequencies --   3086.8047              3098.3254              3109.6795
 Red. masses --      1.0995                 1.1007                 1.0889
 Frc consts  --      6.1728                 6.2257                 6.2041
 IR Inten    --     38.4668                50.4359                30.9159

                     73                     74                     75
                      A                      A                      A
 Frequencies --   3501.1779              3670.3387              3682.2268
 Red. masses --      1.0746                 1.0640                 1.0650
 Frc consts  --      7.7610                 8.4451                 8.5081
 IR Inten    --      2.4187                55.0427                40.7657

 - Thermochemistry -
 -------------------
 Temperature   298.150 Kelvin.  Pressure   1.00000 Atm.
 Atom     1 has atomic number  6 and mass  12.00000

 Molecular mass:   173.10519 amu.
 Principal axes and moments of inertia in atomic units:
                           1         2         3
     Eigenvalues --  1003.675303776.454724024.33651
           X            0.99997   0.00577  -0.00592
           Y           -0.00536   0.99780   0.06613
           Z            0.00629  -0.06609   0.99779
 This molecule is an asymmetric top.
 Rotational symmetry number  1.
 Warning -- assumption of classical behavior for rotation
           may cause significant error
 Rotational temperatures (Kelvin)      0.08630     0.02294     0.02152
 Rotational constants (GHZ):           1.79813     0.47789     0.44846
 Zero-point vibrational energy     622456.9 (Joules/Mol)
                                  148.77077 (Kcal/Mol)
 Warning -- explicit consideration of  17 degrees of freedom as
           vibrations may cause significant error
 Vibrational temperatures:     57.46    79.67   112.31   178.59   220.38
          (Kelvin)            353.02   363.63   397.23   429.75   495.73
                              536.77   570.16   639.15   646.27   674.61
                              745.86   868.78   901.51   944.99  1102.42
                             1141.84  1150.78  1194.28  1215.87  1301.30
                             1328.95  1400.64  1447.08  1455.70  1513.01
                             1542.87  1586.13  1606.11  1626.07  1654.28
                             1693.22  1704.87  1709.89  1752.91  1788.56
                             1848.25  1876.99  1902.01  1911.93  1941.15
                             1970.34  1973.04  1997.25  2000.61  2024.95
                             2052.97  2086.32  2137.42  2154.35  2166.53
                             2175.69  2186.71  2197.54  2213.43  2639.31
                             4186.13  4195.79  4344.68  4368.44  4374.48
                             4382.95  4430.72  4432.82  4434.02  4441.22
                             4457.80  4474.14  5037.41  5280.80  5297.90

 Zero-point correction=                           0.237081 (Hartree/Particle)
 Thermal correction to Energy=                    0.248960
 Thermal correction to Enthalpy=                  0.249904
 Thermal correction to Gibbs Free Energy=         0.198455
 Sum of electronic and zero-point Energies=           -594.114593
 Sum of electronic and thermal Energies=              -594.102714
 Sum of electronic and thermal Enthalpies=            -594.101770
 Sum of electronic and thermal Free Energies=         -594.153219

                     E (Thermal)             CV                S
                      KCal/Mol        Cal/Mol-Kelvin    Cal/Mol-Kelvin
 Total                  156.225             45.367            108.283
 Electronic               0.000              0.000              0.000
 Translational            0.889              2.981             41.354
 Rotational               0.889              2.981             31.101
 Vibrational            154.447             39.405             35.829
 Vibration     1          0.594              1.981              5.262
 Vibration     2          0.596              1.975              4.616
 Vibration     3          0.599              1.964              3.939
 Vibration     4          0.610              1.929              3.035
 Vibration     5          0.619              1.899              2.632
 Vibration     6          0.660              1.770              1.764
 Vibration     7          0.664              1.758              1.711
 Vibration     8          0.678              1.718              1.558
 Vibration     9          0.692              1.676              1.424
 Vibration    10          0.723              1.586              1.191
 Vibration    11          0.744              1.527              1.067
 Vibration    12          0.763              1.478              0.976
 Vibration    13          0.804              1.374              0.813
 Vibration    14          0.808              1.363              0.798
 Vibration    15          0.826              1.319              0.741
 Vibration    16          0.873              1.209              0.614
 Vibration    17          0.962              1.024              0.443

 Optimization completed.
    -- Stationary point found.
 Normal termination of Gaussian 16 at Wed Dec  9 17:22:27 2020.

 ----------------------------------------------------------------------
 # B3LYP/6-311++G(d,p) empiricaldispersion=gd3bj scf=xqc pop=npa geom=c
 heck
 ----------------------------------------------------------------------

 ---------------------------------------
 CID_129925251_JID_2393_Energie_neutraal
 ---------------------------------------
 Structure from the checkpoint file:  "JID_2393.chk"
 Charge =  0 Multiplicity = 1

 SCF Done:  E(RB3LYP) =  -594.545235739     A.U. after   14 cycles
 Normal termination of Gaussian 16 at Wed Dec  9 17:25:44 2020.

 ----------------------------------------------------------------------
 # B3LYP/6-311++G(d,p) empiricaldispersion=gd3bj scf=xqc pop=npa geom=c
 heck
 ----------------------------------------------------------------------

 -------------------------------------
 CID_129925251_JID_2393_Energie_kation
 -------------------------------------
 Structure from the checkpoint file:  "JID_2393.chk"
 Charge =  1 Multiplicity = 2

 SCF Done:  E(UB3LYP) =  -594.229798536     A.U. after   23 cycles
 Normal termination of Gaussian 16 at Wed Dec  9 17:31:55 2020.
 Gaussian 16:  ES64L-G16RevA.03 25-Dec-2016

 ----------------------------------------------------------------------
 # B3LYP/6-311++G(d,p) empiricaldispersion=gd3bj scf=xqc pop=npa geom=c
 heck
 ----------------------------------------------------------------------

 ------------------------------------
 CID_129925251_JID_2393_Energie_anion
 ------------------------------------
 Structure from the checkpoint file:  "JID_2393.chk"
 Charge = -1 Multiplicity = 2

                         Standard orientation:
 ---------------------------------------------------------------------
 Center     Atomic      Atomic             Coordinates (Angstroms)
 Number     Number       Type             X           Y           Z
 ---------------------------------------------------------------------
      1          6           0        1.166379    0.432109    1.054919
      2          6           0        2.483735    1.144255    0.738693
      3          7           0        3.464151    0.178043    0.246044
      4          6           0        3.023568   -0.444854   -1.001156
      5          6           0        1.732530   -1.225688   -0.750120
      6          6           0        0.631477   -0.315921   -0.178315
      7          6           0       -0.631346   -1.135320    0.117900
      8          6           0       -1.853553   -0.372405    0.673443
      9          6           0       -2.349895    0.647999   -0.337983
     10          8           0       -3.226625    0.408563   -1.142638
     11          8           0       -1.701698    1.829232   -0.281699
     12          8           0       -2.908800   -1.266682    0.968582
     13          1           0        0.436157    1.170173    1.404217
     14          1           0        1.336698   -0.284940    1.869160
     15          1           0        2.280828    1.952689    0.006780
     16          1           0        2.883327    1.617311    1.642726
     17          1           0        4.359117    0.640120    0.102218
     18          1           0        3.812233   -1.119295   -1.353224
     19          1           0        2.841577    0.297450   -1.805259
     20          1           0        1.943942   -2.032349   -0.036096
     21          1           0        1.390126   -1.692043   -1.682794
     22          1           0        0.395035    0.437390   -0.944191
     23          1           0       -0.957222   -1.654431   -0.793830
     24          1           0       -0.402824   -1.913300    0.856646
     25          1           0       -1.589095    0.141403    1.601757
     26          1           0       -2.068249    2.382841   -0.997991
     27          1           0       -3.431094   -1.339283    0.149328
 ---------------------------------------------------------------------

 SCF Done:  E(UB3LYP) =  -594.533592057     A.U. after   33 cycles
 SCF Done:  E(UB3LYP) =  -594.533592057     a.u. after    1 cycles

 The electronic state is 2-A.
 Alpha  occ. eigenvalues --  -19.07751 -19.03824 -19.03188 -14.19077 -10.21717
 Alpha  occ. eigenvalues --  -10.14645 -10.08559 -10.08398 -10.08098 -10.07475
 Alpha  occ. eigenvalues --  -10.06453 -10.06168  -1.02276  -0.95054  -0.92814
 Alpha  occ. eigenvalues --   -0.80721  -0.71905  -0.65901  -0.64892  -0.58625
 Alpha  occ. eigenvalues --   -0.52740  -0.52009  -0.49223  -0.45731  -0.44607
 Alpha  occ. eigenvalues --   -0.41231  -0.40464  -0.38330  -0.37266  -0.34950
 Alpha  occ. eigenvalues --   -0.34555  -0.33756  -0.32978  -0.32256  -0.29884
 Alpha  occ. eigenvalues --   -0.28716  -0.28381  -0.27617  -0.26137  -0.24644
 Alpha  occ. eigenvalues --   -0.24062  -0.22927  -0.22087  -0.21056  -0.20230
 Alpha  occ. eigenvalues --   -0.18616  -0.12485   0.04556
 Alpha virt. eigenvalues --    0.06631   0.07712   0.07754   0.08477   0.09435
 Alpha virt. eigenvalues --    0.09709   0.10062   0.10888   0.11486   0.11875
 Alpha virt. eigenvalues --    0.13184   0.13534   0.14227   0.14286   0.15253

  Beta  occ. eigenvalues --  -19.07670 -19.03818 -19.03169 -14.19050 -10.21714
  Beta  occ. eigenvalues --  -10.14631 -10.08533 -10.08374 -10.08093 -10.07464
  Beta  occ. eigenvalues --  -10.06447 -10.06161  -1.02187  -0.95009  -0.92759
  Beta  occ. eigenvalues --   -0.80681  -0.71880  -0.65859  -0.64856  -0.58558
  Beta  occ. eigenvalues --   -0.52653  -0.51961  -0.49155  -0.45668  -0.44550
  Beta  occ. eigenvalues --   -0.41176  -0.40400  -0.38287  -0.37231  -0.34909
  Beta  occ. eigenvalues --   -0.34525  -0.33719  -0.32943  -0.32204  -0.29851
  Beta  occ. eigenvalues --   -0.28677  -0.28357  -0.27585  -0.26114  -0.24605
  Beta  occ. eigenvalues --   -0.24011  -0.22887  -0.22055  -0.21026  -0.20175
  Beta  occ. eigenvalues --   -0.18594  -0.12420
  Beta virt. eigenvalues --    0.07119   0.07894   0.08088   0.08263   0.08794
  Beta virt. eigenvalues --    0.09811   0.10127   0.10573   0.11273   0.11845
  Beta virt. eigenvalues --    0.12224   0.13348   0.13828   0.14465   0.14602

 Mulliken charges and spin densities:
               1          2
     1  C   -1.038842   0.648953
     2  C    1.146303  -1.705751
     3  N   -0.422076   0.299569
     4  C    0.706808  -1.221717
     5  C   -0.542752   0.294082
     6  C    0.543162   0.105686
     7  C    0.010458  -0.358607
     8  C   -0.124410  -0.424583
     9  C    0.369099  -0.425058
    10  O   -0.299616   0.023373
    11  O   -0.138612   0.003259
    12  O   -0.202079   0.013096
    13  H    0.137275  -0.014814
    14  H    0.116091   0.032932
    15  H   -0.290374   0.422149
    16  H   -0.259294   0.432038
    17  H   -0.201635   0.452160
    18  H   -0.370389   0.556775
    19  H   -0.330173   0.449717
    20  H    0.150520  -0.009967
    21  H   -0.078807   0.206898
    22  H    0.299743  -0.093826
    23  H    0.024301   0.148416
    24  H    0.190849  -0.030331
    25  H    0.038211   0.193126
    26  H   -0.681264   0.995878
    27  H    0.247502   0.006547
 Sum of Mulliken charges =  -1.00000   1.00000

 Dipole moment (field-independent basis, Debye):
    X=             -2.9259    Y=             -5.7260    Z=              3.0298  Tot=              7.1082
 Quadrupole moment (field-independent basis, Debye-Ang):
   XX=           -148.1910   YY=           -115.9977   ZZ=           -105.5866
   XY=              3.0545   XZ=             -0.1421   YZ=              6.8686

 Summary of Natural Population Analysis:

                                       Natural Population
                Natural  -----------------------------------------------
    Atom  No    Charge         Core      Valence    Rydberg      Total
 -----------------------------------------------------------------------
      C    1   -0.19391      0.99961     2.18519    0.00911     3.19391
      C    2   -0.08611      0.99962     2.07445    0.01204     3.08611
      N    3   -0.34226      0.99974     2.82996    0.01256     3.84226
      C    4   -0.08625      0.99962     2.07453    0.01210     3.08625
      C    5   -0.18944      0.99961     2.18032    0.00950     3.18944
      C    6   -0.11822      0.99958     2.10810    0.01054     3.11822
      C    7   -0.19019      0.99959     2.18179    0.00880     3.19019
      C    8    0.02158      0.99952     1.96395    0.01495     2.97842
      C    9    0.39935      0.99970     1.57493    0.02602     2.60065
      O   10   -0.31468      0.99987     3.30809    0.00672     4.31468
      O   11   -0.33576      0.99987     3.32814    0.00775     4.33576
      O   12   -0.36960      0.99990     3.36335    0.00636     4.36960
      H   13    0.10347      0.00000     0.39510    0.00144     0.39653
      H   14    0.09347      0.00000     0.40515    0.00138     0.40653
      H   15    0.08145      0.00000     0.41618    0.00238     0.41855
      H   16    0.09431      0.00000     0.40456    0.00112     0.40569
      H   17    0.17784      0.00000     0.31800    0.00416     0.32216
      H   18    0.09472      0.00000     0.40400    0.00128     0.40528
      H   19    0.07957      0.00000     0.41815    0.00227     0.42043
      H   20    0.09441      0.00000     0.40418    0.00141     0.40559
      H   21    0.09874      0.00000     0.40035    0.00091     0.40126
      H   22    0.10096      0.00000     0.39587    0.00317     0.39904
      H   23    0.10007      0.00000     0.39869    0.00123     0.39993
      H   24    0.10162      0.00000     0.39714    0.00123     0.39838
      H   25    0.09821      0.00000     0.39986    0.00193     0.40179
      H   26    0.25041      0.00000     0.21465    0.03495     0.24959
      H   27    0.23623      0.00000     0.26087    0.00290     0.26377
 =======================================================================
   * Total *   -0.00000     11.99623    34.80556    0.19821    47.00000

 Normal termination of Gaussian 16 at Wed Dec  9 17:43:00 2020.
