 Gaussian 16, Revision A.03,

 -----------------------------------------------------------
 # opt freq B3LYP/6-31G(d) empiricaldispersion=gd3bj scf=xqc
 -----------------------------------------------------------

 -------------------------------
 CID_137380018_JID_5458_neutraal
 -------------------------------
 Symbolic Z-matrix:
 Charge =  0 Multiplicity = 1

 SCF Done:  E(RB3LYP) =  -1087.08240781     A.U. after   14 cycles
 SCF Done:  E(RB3LYP) =  -1087.09539683     A.U. after   12 cycles
 SCF Done:  E(RB3LYP) =  -1087.09719419     A.U. after   12 cycles
 SCF Done:  E(RB3LYP) =  -1087.09763273     A.U. after   12 cycles
 SCF Done:  E(RB3LYP) =  -1087.09809740     A.U. after   11 cycles
 SCF Done:  E(RB3LYP) =  -1087.09830458     A.U. after   11 cycles
 SCF Done:  E(RB3LYP) =  -1087.09835701     A.U. after   10 cycles
 SCF Done:  E(RB3LYP) =  -1087.09836864     A.U. after    9 cycles
 SCF Done:  E(RB3LYP) =  -1087.09837012     A.U. after    8 cycles
 SCF Done:  E(RB3LYP) =  -1087.09837130     A.U. after    8 cycles
 SCF Done:  E(RB3LYP) =  -1087.09838136     A.U. after   10 cycles
 SCF Done:  E(RB3LYP) =  -1087.09838394     A.U. after    9 cycles
 SCF Done:  E(RB3LYP) =  -1087.09838522     A.U. after    9 cycles
 SCF Done:  E(RB3LYP) =  -1087.09838546     A.U. after    8 cycles
 SCF Done:  E(RB3LYP) =  -1087.09838553     A.U. after    8 cycles
 SCF Done:  E(RB3LYP) =  -1087.09838553     A.U. after    7 cycles
 Optimization completed.
    -- Stationary point found.
 Normal termination of Gaussian 16 at Thu Dec 10 16:18:53 2020.

 --------------------------------------------------------------------
 #N Geom=AllCheck Guess=TCheck SCRF=Check GenChk RB3LYP/6-31G(d) Freq
 --------------------------------------------------------------------

 Structure from the checkpoint file:  "JID_5458.chk"
 -------------------------------
 CID_137380018_JID_5458_neutraal
 -------------------------------
 Charge =  0 Multiplicity = 1

 SCF Done:  E(RB3LYP) =  -1087.09838553     A.U. after    1 cycles

  Exact polarizability: 137.237  -1.678 123.437  -1.381  -4.162 119.329
 Approx polarizability: 181.396  -3.690 173.140  -3.624  -7.494 192.116

                      1                      2                      3
                      A                      A                      A
 Frequencies --     26.4967                37.3011                41.6795
 Red. masses --      4.0911                 7.5007                 3.4552
 Frc consts  --      0.0017                 0.0061                 0.0035
 IR Inten    --      1.5651                 2.4924                 4.8144

                      4                      5                      6
                      A                      A                      A
 Frequencies --     63.9429                78.4683               100.8106
 Red. masses --      3.0384                 3.2862                 3.6462
 Frc consts  --      0.0073                 0.0119                 0.0218
 IR Inten    --      2.2430                 0.7347                 0.9385

                      7                      8                      9
                      A                      A                      A
 Frequencies --    155.1723               167.1692               183.9031
 Red. masses --      3.1724                 3.2382                 2.5793
 Frc consts  --      0.0450                 0.0533                 0.0514
 IR Inten    --      2.9102                 0.3055                 3.5026

                     10                     11                     12
                      A                      A                      A
 Frequencies --    217.7565               221.7140               273.9347
 Red. masses --      3.1076                 1.5424                 2.6200
 Frc consts  --      0.0868                 0.0447                 0.1158
 IR Inten    --      5.6430                20.0159                 3.4353

                     13                     14                     15
                      A                      A                      A
 Frequencies --    292.8871               315.3661               339.7483
 Red. masses --      5.8692                 2.9582                 2.7543
 Frc consts  --      0.2966                 0.1733                 0.1873
 IR Inten    --      4.1477                 2.4785                 2.1260

                     16                     17                     18
                      A                      A                      A
 Frequencies --    371.0043               424.9462               436.8560
 Red. masses --      2.4825                 1.8450                 5.5179
 Frc consts  --      0.2013                 0.1963                 0.6204
 IR Inten    --      0.3444                 0.1385                15.2046

                     19                     20                     21
                      A                      A                      A
 Frequencies --    451.1667               501.1149               530.8097
 Red. masses --      3.7107                 3.1208                 4.3975
 Frc consts  --      0.4450                 0.4617                 0.7300
 IR Inten    --      0.8184                24.5736                24.4836

                     22                     23                     24
                      A                      A                      A
 Frequencies --    571.1120               612.0138               683.1230
 Red. masses --      2.6835                 3.1707                 3.8126
 Frc consts  --      0.5157                 0.6997                 1.0483
 IR Inten    --      4.1032                16.8122                40.5535

                     25                     26                     27
                      A                      A                      A
 Frequencies --    684.8792               710.2218               815.0203
 Red. masses --      3.4763                 2.2261                 1.9596
 Frc consts  --      0.9607                 0.6616                 0.7669
 IR Inten    --    131.5828                56.9931                 4.3094

                     28                     29                     30
                      A                      A                      A
 Frequencies --    859.1019               864.9736               912.1287
 Red. masses --      1.9876                 1.7007                 2.7694
 Frc consts  --      0.8643                 0.7497                 1.3575
 IR Inten    --     39.9588                12.8582                32.3266

                     31                     32                     33
                      A                      A                      A
 Frequencies --    919.3781               925.0510               926.5709
 Red. masses --      1.2892                 2.8559                 2.1092
 Frc consts  --      0.6420                 1.4399                 1.0669
 IR Inten    --      1.3142                 6.1681                 1.2927

                     34                     35                     36
                      A                      A                      A
 Frequencies --    942.3791               978.1530               983.2303
 Red. masses --      2.6471                 2.3779                 1.3275
 Frc consts  --      1.3851                 1.3405                 0.7561
 IR Inten    --     36.4436                 2.3543                 1.1555

                     37                     38                     39
                      A                      A                      A
 Frequencies --   1011.9184              1028.4281              1032.9732
 Red. masses --      2.3172                 2.6517                 3.0121
 Frc consts  --      1.3980                 1.6524                 1.8936
 IR Inten    --     19.2012                 5.9886                 0.8719

                     40                     41                     42
                      A                      A                      A
 Frequencies --   1081.8824              1095.1214              1100.2044
 Red. masses --      2.6912                 2.5503                 1.4311
 Frc consts  --      1.8559                 1.8020                 1.0207
 IR Inten    --     26.3906                21.1246                11.9335

                     43                     44                     45
                      A                      A                      A
 Frequencies --   1106.0642              1123.6593              1139.2202
 Red. masses --      2.1244                 6.0738                 2.9840
 Frc consts  --      1.5312                 4.5183                 2.2817
 IR Inten    --     27.3172               204.9427                58.9975

                     46                     47                     48
                      A                      A                      A
 Frequencies --   1143.9448              1146.8107              1181.5633
 Red. masses --      1.3228                 1.7818                 1.6991
 Frc consts  --      1.0199                 1.3807                 1.3976
 IR Inten    --      7.8817                16.4733                 4.0163

                     49                     50                     51
                      A                      A                      A
 Frequencies --   1186.4548              1207.7220              1232.8035
 Red. masses --      1.5896                 1.3504                 1.5383
 Frc consts  --      1.3184                 1.1605                 1.3775
 IR Inten    --     11.9669                 6.4231                16.8545

                     52                     53                     54
                      A                      A                      A
 Frequencies --   1245.4374              1255.1252              1256.9500
 Red. masses --      1.3495                 1.3554                 1.5107
 Frc consts  --      1.2333                 1.2580                 1.4062
 IR Inten    --      9.9437                 3.5023                19.4844

                     55                     56                     57
                      A                      A                      A
 Frequencies --   1287.7321              1298.1596              1324.2014
 Red. masses --      1.2816                 1.3176                 1.5081
 Frc consts  --      1.2522                 1.3082                 1.5581
 IR Inten    --      2.3982                 7.5718                 1.0580

                     58                     59                     60
                      A                      A                      A
 Frequencies --   1327.5257              1338.9787              1349.5792
 Red. masses --      1.5071                 1.4441                 6.7035
 Frc consts  --      1.5649                 1.5254                 7.1936
 IR Inten    --      4.9717                 5.1754               171.4499

                     61                     62                     63
                      A                      A                      A
 Frequencies --   1367.6383              1374.7762              1390.2110
 Red. masses --      1.2978                 1.5164                 1.3084
 Frc consts  --      1.4302                 1.6886                 1.4899
 IR Inten    --     10.4639                11.7808                 2.1674

                     64                     65                     66
                      A                      A                      A
 Frequencies --   1399.1908              1414.8401              1424.5939
 Red. masses --      1.2559                 1.3342                 1.3706
 Frc consts  --      1.4486                 1.5736                 1.6388
 IR Inten    --     12.2254                28.6316                 3.0963

                     67                     68                     69
                      A                      A                      A
 Frequencies --   1444.4013              1507.4229              1515.4365
 Red. masses --      1.5301                 1.0818                 1.0939
 Frc consts  --      1.8809                 1.4483                 1.4801
 IR Inten    --      6.3575                 5.4760                 3.3765

                     70                     71                     72
                      A                      A                      A
 Frequencies --   1523.3204              1537.4892              1550.2594
 Red. masses --      1.0965                 1.0814                 1.0868
 Frc consts  --      1.4991                 1.5061                 1.5389
 IR Inten    --      2.4402                 0.5874                 3.1837

                     73                     74                     75
                      A                      A                      A
 Frequencies --   1560.2689              1564.8733              1622.3144
 Red. masses --      1.1117                 1.0976                 1.0953
 Frc consts  --      1.5945                 1.5837                 1.6985
 IR Inten    --      2.4116                 0.2941                43.2054

                     76                     77                     78
                      A                      A                      A
 Frequencies --   2978.4708              3018.5430              3021.6884
 Red. masses --      1.0717                 1.0626                 1.0669
 Frc consts  --      5.6014                 5.7043                 5.7395
 IR Inten    --     76.6345                 5.9766                65.8143

                     79                     80                     81
                      A                      A                      A
 Frequencies --   3023.2001              3032.8738              3045.7406
 Red. masses --      1.0633                 1.0622                 1.0677
 Frc consts  --      5.7258                 5.7564                 5.8358
 IR Inten    --     49.0494                84.8430                25.9384

                     82                     83                     84
                      A                      A                      A
 Frequencies --   3048.0700              3053.0120              3070.2018
 Red. masses --      1.0625                 1.0998                 1.0962
 Frc consts  --      5.8159                 6.0396                 6.0880
 IR Inten    --     10.0998                26.6181                68.8750

                     85                     86                     87
                      A                      A                      A
 Frequencies --   3079.6154              3081.2011              3088.7128
 Red. masses --      1.0879                 1.0979                 1.1008
 Frc consts  --      6.0790                 6.1414                 6.1873
 IR Inten    --     36.9127                26.8571                50.3860

                     88                     89                     90
                      A                      A                      A
 Frequencies --   3090.0316              3094.6556              3113.2119
 Red. masses --      1.1040                 1.0909                 1.0997
 Frc consts  --      6.2109                 6.1555                 6.2798
 IR Inten    --     17.5322                43.9717                36.2099

                     91                     92                     93
                      A                      A                      A
 Frequencies --   3138.4047              3498.7061              3606.9897
 Red. masses --      1.0872                 1.0472                 1.0978
 Frc consts  --      6.3095                 7.5528                 8.4155
 IR Inten    --      4.8621                33.8525                37.7592

 - Thermochemistry -
 -------------------
 Temperature   298.150 Kelvin.  Pressure   1.00000 Atm.
 Atom     1 has atomic number  6 and mass  12.00000

 Molecular mass:   234.10381 amu.
 Principal axes and moments of inertia in atomic units:
                           1         2         3
     Eigenvalues --  2254.524885331.977236384.95463
           X            0.99998   0.00459  -0.00311
           Y           -0.00462   0.99996  -0.00802
           Z            0.00307   0.00803   0.99996
 This molecule is an asymmetric top.
 Rotational symmetry number  1.
 Warning -- assumption of classical behavior for rotation
           may cause significant error
 Rotational temperatures (Kelvin)      0.03842     0.01624     0.01357
 Rotational constants (GHZ):           0.80050     0.33848     0.28266
 Zero-point vibrational energy     744091.7 (Joules/Mol)
                                  177.84217 (Kcal/Mol)
 Warning -- explicit consideration of  23 degrees of freedom as
           vibrations may cause significant error
 Vibrational temperatures:     38.12    53.67    59.97    92.00   112.90
          (Kelvin)            145.04   223.26   240.52   264.60   313.30
                              319.00   394.13   421.40   453.74   488.82
                              533.79   611.40   628.54   649.13   720.99
                              763.72   821.70   880.55   982.86   985.39
                             1021.85  1172.63  1236.06  1244.50  1312.35
                             1322.78  1330.94  1333.13  1355.87  1407.34
                             1414.65  1455.92  1479.68  1486.22  1556.59
                             1575.64  1582.95  1591.38  1616.70  1639.08
                             1645.88  1650.00  1700.01  1707.04  1737.64
                             1773.73  1791.91  1805.85  1808.47  1852.76
                             1867.76  1905.23  1910.01  1926.49  1941.74
                             1967.73  1978.00  2000.20  2013.12  2035.64
                             2049.67  2078.17  2168.85  2180.38  2191.72
                             2212.10  2230.48  2244.88  2251.50  2334.15
                             4285.36  4343.01  4347.54  4349.71  4363.63
                             4382.14  4385.49  4392.60  4417.34  4430.88
                             4433.16  4443.97  4445.87  4452.52  4479.22
                             4515.46  5033.86  5189.65

 Zero-point correction=                           0.283410 (Hartree/Particle)
 Thermal correction to Energy=                    0.299040
 Thermal correction to Enthalpy=                  0.299984
 Thermal correction to Gibbs Free Energy=         0.238425
 Sum of electronic and zero-point Energies=          -1086.814976
 Sum of electronic and thermal Energies=             -1086.799345
 Sum of electronic and thermal Enthalpies=           -1086.798401
 Sum of electronic and thermal Free Energies=        -1086.859961

                     E (Thermal)             CV                S
                      KCal/Mol        Cal/Mol-Kelvin    Cal/Mol-Kelvin
 Total                  187.651             57.925            129.563
 Electronic               0.000              0.000              0.000
 Translational            0.889              2.981             42.253
 Rotational               0.889              2.981             32.706
 Vibrational            185.873             51.963             54.603
 Vibration     1          0.593              1.984              6.076
 Vibration     2          0.594              1.982              5.398
 Vibration     3          0.594              1.981              5.178
 Vibration     4          0.597              1.972              4.332
 Vibration     5          0.600              1.964              3.929
 Vibration     6          0.604              1.948              3.439
 Vibration     7          0.620              1.897              2.608
 Vibration     8          0.624              1.883              2.467
 Vibration     9          0.631              1.862              2.288
 Vibration    10          0.646              1.814              1.978
 Vibration    11          0.648              1.808              1.945
 Vibration    12          0.676              1.721              1.571
 Vibration    13          0.688              1.687              1.457
 Vibration    14          0.703              1.644              1.334
 Vibration    15          0.720              1.596              1.213
 Vibration    16          0.743              1.532              1.076
 Vibration    17          0.787              1.416              0.875
 Vibration    18          0.797              1.390              0.837
 Vibration    19          0.810              1.358              0.792
 Vibration    20          0.856              1.248              0.655
 Vibration    21          0.886              1.182              0.585
 Vibration    22          0.927              1.094              0.502
 Vibration    23          0.971              1.006              0.429

                           ! Non-Optimized Parameters !
 Normal termination of Gaussian 16 at Thu Dec 10 16:30:21 2020.

 ----------------------------------------------------------------------
 # B3LYP/6-311++G(d,p) empiricaldispersion=gd3bj scf=xqc pop=npa geom=c
 heck
 ----------------------------------------------------------------------

 ---------------------------------------
 CID_137380018_JID_5458_Energie_neutraal
 ---------------------------------------
 Structure from the checkpoint file:  "JID_5458.chk"
 Charge =  0 Multiplicity = 1

 SCF Done:  E(RB3LYP) =  -1087.32992536     A.U. after   15 cycles
 Normal termination of Gaussian 16 at Thu Dec 10 16:36:50 2020.

 ----------------------------------------------------------------------
 # B3LYP/6-311++G(d,p) empiricaldispersion=gd3bj scf=xqc pop=npa geom=c
 heck
 ----------------------------------------------------------------------

 -------------------------------------
 CID_137380018_JID_5458_Energie_kation
 -------------------------------------
 Structure from the checkpoint file:  "JID_5458.chk"
 Charge =  1 Multiplicity = 2

 SCF Done:  E(UB3LYP) =  -1087.02786166     A.U. after   23 cycles
 Normal termination of Gaussian 16 at Thu Dec 10 16:52:50 2020.
 Gaussian 16:  ES64L-G16RevA.03 25-Dec-2016

 ----------------------------------------------------------------------
 # B3LYP/6-311++G(d,p) empiricaldispersion=gd3bj scf=xqc pop=npa geom=c
 heck
 ----------------------------------------------------------------------

 ------------------------------------
 CID_137380018_JID_5458_Energie_anion
 ------------------------------------
 Structure from the checkpoint file:  "JID_5458.chk"
 Charge = -1 Multiplicity = 2

                         Standard orientation:
 ---------------------------------------------------------------------
 Center     Atomic      Atomic             Coordinates (Angstroms)
 Number     Number       Type             X           Y           Z
 ---------------------------------------------------------------------
      1          6           0       -2.740658   -0.057599    1.055962
      2          6           0       -3.208832   -1.518452    0.993451
      3          8           0       -3.331548   -1.857161   -0.394443
      4          6           0       -2.933499   -0.743190   -1.190090
      5          6           0       -2.034981    0.119319   -0.298012
      6          6           0       -1.876516    1.559039   -0.781177
      7          6           0       -1.030174    2.480122    0.117327
      8          7           0        0.372267    2.148541    0.311326
      9          6           0        0.847253    1.127702    1.259811
     10          6           0        2.043723    0.898811    0.310700
     11          6           0        1.241788    1.656936   -0.768717
     12         16           0        2.553652   -0.786823   -0.026218
     13          8           0        3.452540   -0.753707   -1.183864
     14          8           0        2.942841   -1.393766    1.250301
     15          7           0        1.109927   -1.537582   -0.523299
     16          1           0       -3.598374    0.624600    1.120085
     17          1           0       -2.095929    0.136339    1.918640
     18          1           0       -2.474176   -2.193922    1.454586
     19          1           0       -4.172028   -1.677034    1.493611
     20          1           0       -3.816581   -0.170414   -1.521881
     21          1           0       -2.420780   -1.123008   -2.080912
     22          1           0       -1.054079   -0.365453   -0.255568
     23          1           0       -1.450583    1.556585   -1.794187
     24          1           0       -2.870974    2.019065   -0.876320
     25          1           0       -1.079215    3.494523   -0.302626
     26          1           0       -1.478702    2.541098    1.116504
     27          1           0        1.086032    1.506535    2.259578
     28          1           0        0.214806    0.235928    1.357082
     29          1           0        2.960061    1.404867    0.621039
     30          1           0        0.757661    0.973803   -1.481248
     31          1           0        1.778865    2.432538   -1.325366
     32          1           0        1.219510   -1.873121   -1.478146
     33          1           0        0.901417   -2.309532    0.106944
 ---------------------------------------------------------------------

 SCF Done:  E(UB3LYP) =  -1087.32308724     A.U. after   28 cycles

 The electronic state is 2-A.
 Alpha  occ. eigenvalues --  -88.97122 -19.02740 -19.02728 -19.02121 -14.24696
 Alpha  occ. eigenvalues --  -14.21903 -10.12830 -10.11990 -10.11886 -10.11791
 Alpha  occ. eigenvalues --  -10.11390 -10.10615 -10.07715 -10.07688 -10.07664
 Alpha  occ. eigenvalues --   -8.03351  -5.99650  -5.99592  -5.99403  -1.02877
 Alpha  occ. eigenvalues --   -0.93736  -0.92058  -0.86605  -0.81560  -0.72663
 Alpha  occ. eigenvalues --   -0.69454  -0.65124  -0.62803  -0.60565  -0.57224
 Alpha  occ. eigenvalues --   -0.52076  -0.50002  -0.48677  -0.47051  -0.43643
 Alpha  occ. eigenvalues --   -0.43355  -0.42342  -0.41014  -0.39818  -0.39491
 Alpha  occ. eigenvalues --   -0.36942  -0.36053  -0.35376  -0.34167  -0.33770
 Alpha  occ. eigenvalues --   -0.31845  -0.31727  -0.31216  -0.28895  -0.28335
 Alpha  occ. eigenvalues --   -0.27165  -0.26712  -0.26497  -0.25027  -0.23691
 Alpha  occ. eigenvalues --   -0.23491  -0.23239  -0.22391  -0.21847  -0.21814
 Alpha  occ. eigenvalues --   -0.19906  -0.15588  -0.12833   0.03880
 Alpha virt. eigenvalues --    0.06140   0.06703   0.06941   0.08473   0.08700
 Alpha virt. eigenvalues --    0.09047   0.09463   0.10158   0.10893   0.11553
 Alpha virt. eigenvalues --    0.12073   0.12291   0.12703   0.12844   0.13391

  Beta  occ. eigenvalues --  -88.97116 -19.02726 -19.02714 -19.02122 -14.24608
  Beta  occ. eigenvalues --  -14.21904 -10.12813 -10.11973 -10.11862 -10.11770
  Beta  occ. eigenvalues --  -10.11370 -10.10602 -10.07705 -10.07671 -10.07643
  Beta  occ. eigenvalues --   -8.03342  -5.99638  -5.99586  -5.99398  -1.02844
  Beta  occ. eigenvalues --   -0.93728  -0.92026  -0.86593  -0.81412  -0.72634
  Beta  occ. eigenvalues --   -0.69423  -0.65083  -0.62753  -0.60520  -0.57173
  Beta  occ. eigenvalues --   -0.52009  -0.49942  -0.48621  -0.46998  -0.43544
  Beta  occ. eigenvalues --   -0.43307  -0.42308  -0.40985  -0.39784  -0.39458
  Beta  occ. eigenvalues --   -0.36914  -0.36026  -0.35350  -0.34142  -0.33737
  Beta  occ. eigenvalues --   -0.31822  -0.31696  -0.31185  -0.28868  -0.28301
  Beta  occ. eigenvalues --   -0.27122  -0.26680  -0.26468  -0.24995  -0.23650
  Beta  occ. eigenvalues --   -0.23463  -0.23199  -0.22349  -0.21827  -0.21795
  Beta  occ. eigenvalues --   -0.19826  -0.15575  -0.12817
  Beta virt. eigenvalues --    0.06096   0.07185   0.07185   0.07551   0.08813
  Beta virt. eigenvalues --    0.09097   0.09674   0.09925   0.10427   0.11176
  Beta virt. eigenvalues --    0.11848   0.12305   0.12532   0.13034   0.13229

 Mulliken charges and spin densities:
               1          2
     1  C    0.095052  -0.320253
     2  C    0.503896  -0.934916
     3  O   -0.101469   0.001952
     4  C    0.469286  -0.877284
     5  C   -0.688203   0.717678
     6  C   -0.885413   0.610897
     7  C   -0.412232  -0.140011
     8  N    0.094377  -0.083242
     9  C   -0.079969  -0.280496
    10  C   -0.562368   0.485875
    11  C    0.246899  -0.663690
    12  S    0.993875  -0.910413
    13  O   -0.193009   0.003217
    14  O   -0.238472   0.020195
    15  N   -0.415426  -0.033805
    16  H   -0.151502   0.315837
    17  H    0.007728   0.130919
    18  H   -0.229743   0.389341
    19  H   -0.088273   0.247346
    20  H   -0.010145   0.152615
    21  H   -0.407821   0.595090
    22  H    2.762906  -2.399403
    23  H   -0.081812   0.246848
    24  H   -0.124387   0.261600
    25  H   -0.393068   0.589534
    26  H    0.016770   0.150027
    27  H   -0.244772   0.446565
    28  H   -0.174628   0.331449
    29  H    0.098527   0.187124
    30  H   -0.120979   0.281199
    31  H   -0.233597   0.425027
    32  H   -0.274037   0.573002
    33  H   -0.177991   0.480173
 Sum of Mulliken charges =  -1.00000   1.00000

 Dipole moment (field-independent basis, Debye):
    X=             -0.1564    Y=              2.6618    Z=              1.4859  Tot=              3.0524
 Quadrupole moment (field-independent basis, Debye-Ang):
   XX=           -165.0673   YY=           -150.8389   ZZ=           -139.3599
   XY=              2.7933   XZ=              0.1136   YZ=             -0.5914

 Summary of Natural Population Analysis:

                                       Natural Population
                Natural  -----------------------------------------------
    Atom  No    Charge         Core      Valence    Rydberg      Total
 -----------------------------------------------------------------------
      C    1   -0.20516      0.99962     2.19733    0.00821     3.20516
      C    2   -0.00510      0.99960     1.99515    0.01035     3.00510
      O    3   -0.30476      0.99989     3.29564    0.00923     4.30476
      C    4   -0.00017      0.99957     1.98756    0.01304     3.00017
      C    5   -0.14271      0.99958     2.13247    0.01066     3.14271
      C    6   -0.19634      0.99960     2.18754    0.00920     3.19634
      C    7   -0.07918      0.99960     2.06772    0.01186     3.07918
      N    8   -0.28331      0.99973     2.76940    0.01418     3.78331
      C    9   -0.07485      0.99961     2.06398    0.01126     3.07485
      C   10   -0.21352      0.99951     2.20015    0.01386     3.21352
      C   11   -0.07680      0.99961     2.06585    0.01133     3.07680
      S   12    1.09551      4.99927     1.80549    0.09973     6.90449
      O   13   -0.46442      0.99991     3.45891    0.00560     4.46442
      O   14   -0.46479      0.99991     3.45926    0.00562     4.46479
      N   15   -0.52149      0.99978     3.01016    0.01155     4.02149
      H   16    0.09611      0.00000     0.40250    0.00139     0.40389
      H   17    0.10443      0.00000     0.39434    0.00123     0.39557
      H   18    0.08299      0.00000     0.41497    0.00204     0.41701
      H   19    0.08213      0.00000     0.41638    0.00148     0.41787
      H   20    0.07472      0.00000     0.42379    0.00149     0.42528
      H   21    0.09199      0.00000     0.40620    0.00181     0.40801
      H   22    0.11140      0.00000     0.38386    0.00474     0.38860
      H   23    0.09931      0.00000     0.39918    0.00151     0.40069
      H   24    0.09955      0.00000     0.39909    0.00136     0.40045
      H   25    0.09455      0.00000     0.40422    0.00123     0.40545
      H   26    0.09592      0.00000     0.40288    0.00120     0.40408
      H   27    0.09430      0.00000     0.40425    0.00145     0.40570
      H   28    0.09437      0.00000     0.40329    0.00235     0.40563
      H   29    0.11981      0.00000     0.37909    0.00110     0.38019
      H   30    0.09549      0.00000     0.40227    0.00223     0.40451
      H   31    0.09508      0.00000     0.40358    0.00134     0.40492
      H   32    0.20306      0.00000     0.29221    0.00473     0.29694
      H   33    0.20187      0.00000     0.29429    0.00385     0.29813
 =======================================================================
   * Total *    0.00000     18.99479    43.72300    0.28221    63.00000

 Normal termination of Gaussian 16 at Thu Dec 10 17:13:29 2020.
