 Gaussian 16, Revision A.03,

 -----------------------------------------------------------
 # opt freq B3LYP/6-31G(d) empiricaldispersion=gd3bj scf=xqc
 -----------------------------------------------------------

 -------------------------------
 CID_130591084_JID_3590_neutraal
 -------------------------------
 Symbolic Z-matrix:
 Charge =  0 Multiplicity = 1

 SCF Done:  E(RB3LYP) =  -992.422141171     A.U. after   15 cycles
 SCF Done:  E(RB3LYP) =  -992.429315996     A.U. after   12 cycles
 SCF Done:  E(RB3LYP) =  -992.430244512     A.U. after   12 cycles
 SCF Done:  E(RB3LYP) =  -992.430624643     A.U. after   12 cycles
 SCF Done:  E(RB3LYP) =  -992.430925162     A.U. after   11 cycles
 SCF Done:  E(RB3LYP) =  -992.431661426     A.U. after   13 cycles
 SCF Done:  E(RB3LYP) =  -992.432074890     A.U. after   15 cycles
 SCF Done:  E(RB3LYP) =  -992.432879912     A.U. after   12 cycles
 SCF Done:  E(RB3LYP) =  -992.433199143     A.U. after   11 cycles
 SCF Done:  E(RB3LYP) =  -992.433338574     A.U. after   12 cycles
 SCF Done:  E(RB3LYP) =  -992.433450462     A.U. after   12 cycles
 SCF Done:  E(RB3LYP) =  -992.433456683     A.U. after   10 cycles
 SCF Done:  E(RB3LYP) =  -992.433457817     A.U. after    9 cycles
 SCF Done:  E(RB3LYP) =  -992.433457447     A.U. after   10 cycles
 SCF Done:  E(RB3LYP) =  -992.433457912     A.U. after    9 cycles
 Optimization completed.
    -- Stationary point found.
 Normal termination of Gaussian 16 at Wed Dec  9 23:27:30 2020.

 --------------------------------------------------------------------
 #N Geom=AllCheck Guess=TCheck SCRF=Check GenChk RB3LYP/6-31G(d) Freq
 --------------------------------------------------------------------

 Structure from the checkpoint file:  "JID_3590.chk"
 -------------------------------
 CID_130591084_JID_3590_neutraal
 -------------------------------
 Charge =  0 Multiplicity = 1

 SCF Done:  E(RB3LYP) =  -992.433457913     A.U. after    1 cycles

  Exact polarizability: 123.731  -2.321 117.818   1.238  -0.028  91.943
 Approx polarizability: 154.139   2.315 184.699  -0.550   1.983 148.753

                      1                      2                      3
                      A                      A                      A
 Frequencies --     16.1858                56.7121               101.4820
 Red. masses --      4.3887                 3.9251                 2.7240
 Frc consts  --      0.0007                 0.0074                 0.0165
 IR Inten    --      1.7913                 1.5600                 1.1374

                      4                      5                      6
                      A                      A                      A
 Frequencies --    112.9385               124.5392               138.8003
 Red. masses --      2.8136                 2.3178                 3.2804
 Frc consts  --      0.0211                 0.0212                 0.0372
 IR Inten    --      2.2514                 4.6445                 1.1477

                      7                      8                      9
                      A                      A                      A
 Frequencies --    194.2841               234.3268               245.2560
 Red. masses --      2.9323                 4.1007                 1.1981
 Frc consts  --      0.0652                 0.1327                 0.0425
 IR Inten    --      0.3332                 5.6378                 0.2314

                     10                     11                     12
                      A                      A                      A
 Frequencies --    262.2424               273.5833               279.4756
 Red. masses --      1.4477                 2.0470                 2.5953
 Frc consts  --      0.0587                 0.0903                 0.1194
 IR Inten    --      0.1974                 0.6555                 0.6980

                     13                     14                     15
                      A                      A                      A
 Frequencies --    315.4618               336.3387               382.0171
 Red. masses --      2.4069                 4.1473                 4.6903
 Frc consts  --      0.1411                 0.2764                 0.4033
 IR Inten    --      0.5222                 0.7102                 7.2007

                     16                     17                     18
                      A                      A                      A
 Frequencies --    404.4965               431.7213               451.3308
 Red. masses --      3.1047                 3.7173                 2.4932
 Frc consts  --      0.2993                 0.4082                 0.2992
 IR Inten    --      2.0861                11.9759                11.0035

                     19                     20                     21
                      A                      A                      A
 Frequencies --    480.2058               499.6948               566.3068
 Red. masses --      4.2229                 3.8854                 8.9892
 Frc consts  --      0.5737                 0.5716                 1.6985
 IR Inten    --     35.3080                15.6449                34.9581

                     22                     23                     24
                      A                      A                      A
 Frequencies --    614.7169               671.1301               734.1119
 Red. masses --      3.9562                 1.9203                 4.8511
 Frc consts  --      0.8808                 0.5096                 1.5403
 IR Inten    --      2.5246                15.9376                81.3517

                     25                     26                     27
                      A                      A                      A
 Frequencies --    768.2995               813.3349               835.0474
 Red. masses --      2.2283                 3.8019                 2.1135
 Frc consts  --      0.7750                 1.4818                 0.8683
 IR Inten    --      2.2413                47.6411                 5.5808

                     28                     29                     30
                      A                      A                      A
 Frequencies --    878.4202               933.5312               970.2147
 Red. masses --      2.5222                 1.6719                 1.3539
 Frc consts  --      1.1467                 0.8585                 0.7509
 IR Inten    --     18.4827                 0.4538                 8.3267

                     31                     32                     33
                      A                      A                      A
 Frequencies --    981.7419               996.6017              1002.6628
 Red. masses --      1.8534                 1.0750                 2.6039
 Frc consts  --      1.0525                 0.6291                 1.5424
 IR Inten    --     46.2285                34.1159                48.0379

                     34                     35                     36
                      A                      A                      A
 Frequencies --   1036.3566              1040.2868              1060.5079
 Red. masses --      1.3880                 1.5274                 2.2716
 Frc consts  --      0.8783                 0.9739                 1.5052
 IR Inten    --      6.2183                 0.3263               103.9544

                     37                     38                     39
                      A                      A                      A
 Frequencies --   1112.6666              1122.3317              1148.4851
 Red. masses --      5.4522                 7.0404                 3.2325
 Frc consts  --      3.9769                 5.2250                 2.5121
 IR Inten    --      6.1460               204.0535                48.2740

                     40                     41                     42
                      A                      A                      A
 Frequencies --   1187.7254              1190.1870              1201.1149
 Red. masses --      1.4753                 1.5858                 2.4744
 Frc consts  --      1.2262                 1.3235                 2.1033
 IR Inten    --     19.3492                30.7210                22.3594

                     43                     44                     45
                      A                      A                      A
 Frequencies --   1220.3657              1244.0117              1251.6105
 Red. masses --      2.6945                 1.3349                 1.5841
 Frc consts  --      2.3643                 1.2172                 1.4621
 IR Inten    --     18.3382                 7.6883                 8.8235

                     46                     47                     48
                      A                      A                      A
 Frequencies --   1267.0740              1293.5796              1303.4035
 Red. masses --      1.4734                 1.3069                 1.6108
 Frc consts  --      1.3937                 1.2885                 1.6123
 IR Inten    --     22.6660                 8.0970                58.4859

                     49                     50                     51
                      A                      A                      A
 Frequencies --   1317.6013              1338.5243              1380.9191
 Red. masses --     12.2609                 1.2954                 1.3915
 Frc consts  --     12.5412                 1.3674                 1.5634
 IR Inten    --    183.5244                 6.6309                 5.3335

                     52                     53                     54
                      A                      A                      A
 Frequencies --   1400.0811              1431.8016              1438.3258
 Red. masses --      1.5204                 1.1808                 1.2752
 Frc consts  --      1.7560                 1.4262                 1.5543
 IR Inten    --      0.9319                12.9377                 7.9135

                     55                     56                     57
                      A                      A                      A
 Frequencies --   1510.7389              1513.0796              1515.0354
 Red. masses --      1.1353                 1.0884                 1.0511
 Frc consts  --      1.5266                 1.4681                 1.4215
 IR Inten    --      1.0518                 2.6704                 3.0436

                     58                     59                     60
                      A                      A                      A
 Frequencies --   1525.2739              1530.8301              1545.1212
 Red. masses --      1.0629                 1.0515                 1.0532
 Frc consts  --      1.4569                 1.4518                 1.4814
 IR Inten    --      1.1770                 2.7551                 7.3942

                     61                     62                     63
                      A                      A                      A
 Frequencies --   1550.3384              1570.0066              1700.2347
 Red. masses --      1.0715                 1.0830                 4.5773
 Frc consts  --      1.5173                 1.5729                 7.7961
 IR Inten    --     16.5988                 4.1372                 0.6595

                     64                     65                     66
                      A                      A                      A
 Frequencies --   3032.0985              3039.3633              3061.6490
 Red. masses --      1.0375                 1.0716                 1.0660
 Frc consts  --      5.6196                 5.8321                 5.8872
 IR Inten    --     43.5420                33.9795                22.9681

                     67                     68                     69
                      A                      A                      A
 Frequencies --   3063.4320              3082.0197              3101.1238
 Red. masses --      1.0398                 1.0632                 1.0993
 Frc consts  --      5.7492                 5.9501                 6.2286
 IR Inten    --     28.7234                33.6955                28.5115

                     70                     71                     72
                      A                      A                      A
 Frequencies --   3125.1318              3137.1368              3140.1158
 Red. masses --      1.0994                 1.1027                 1.1029
 Frc consts  --      6.3264                 6.3940                 6.4072
 IR Inten    --      0.3860                12.3385                12.3805

                     73                     74                     75
                      A                      A                      A
 Frequencies --   3140.5538              3143.3705              3156.3101
 Red. masses --      1.1027                 1.1006                 1.0932
 Frc consts  --      6.4077                 6.4071                 6.4169
 IR Inten    --     45.0820                22.5250                 4.7510

                     76                     77                     78
                      A                      A                      A
 Frequencies --   3176.7264              3216.2201              3265.6768
 Red. masses --      1.0573                 1.0959                 1.1164
 Frc consts  --      6.2867                 6.6788                 7.0150
 IR Inten    --      3.3421                 0.3330                 3.1169

 - Thermochemistry -
 -------------------
 Temperature   298.150 Kelvin.  Pressure   1.00000 Atm.
 Atom     1 has atomic number  6 and mass  12.00000

 Molecular mass:   205.07727 amu.
 Principal axes and moments of inertia in atomic units:
                           1         2         3
     Eigenvalues --  1439.379313474.257273864.42800
           X            0.99995  -0.00975   0.00178
           Y            0.00979   0.99972  -0.02147
           Z           -0.00157   0.02149   0.99977
 This molecule is an asymmetric top.
 Rotational symmetry number  1.
 Warning -- assumption of classical behavior for rotation
           may cause significant error
 Rotational temperatures (Kelvin)      0.06017     0.02493     0.02241
 Rotational constants (GHZ):           1.25383     0.51946     0.46701
 Zero-point vibrational energy     615692.6 (Joules/Mol)
                                  147.15406 (Kcal/Mol)
 Warning -- explicit consideration of  22 degrees of freedom as
           vibrations may cause significant error
 Vibrational temperatures:     23.29    81.60   146.01   162.49   179.18
          (Kelvin)            199.70   279.53   337.14   352.87   377.31
                              393.63   402.10   453.88   483.92   549.64
                              581.98   621.15   649.36   690.91   718.95
                              814.79   884.44   965.61  1056.22  1105.41
                             1170.21  1201.45  1263.85  1343.14  1395.92
                             1412.51  1433.89  1442.61  1491.09  1496.74
                             1525.83  1600.88  1614.78  1652.41  1708.87
                             1712.41  1728.14  1755.83  1789.86  1800.79
                             1823.04  1861.17  1875.31  1895.73  1925.84
                             1986.83  2014.40  2060.04  2069.43  2173.62
                             2176.98  2179.80  2194.53  2202.52  2223.08
                             2230.59  2258.89  2446.26  4362.51  4372.97
                             4405.03  4407.60  4434.34  4461.83  4496.37
                             4513.64  4517.93  4518.56  4522.61  4541.23
                             4570.60  4627.42  4698.58

 Zero-point correction=                           0.234505 (Hartree/Particle)
 Thermal correction to Energy=                    0.248641
 Thermal correction to Enthalpy=                  0.249585
 Thermal correction to Gibbs Free Energy=         0.192964
 Sum of electronic and zero-point Energies=           -992.198953
 Sum of electronic and thermal Energies=              -992.184817
 Sum of electronic and thermal Enthalpies=            -992.183873
 Sum of electronic and thermal Free Energies=         -992.240494

                     E (Thermal)             CV                S
                      KCal/Mol        Cal/Mol-Kelvin    Cal/Mol-Kelvin
 Total                  156.025             52.635            119.169
 Electronic               0.000              0.000              0.000
 Translational            0.889              2.981             41.859
 Rotational               0.889              2.981             31.336
 Vibrational            154.247             46.673             45.974
 Vibration     1          0.593              1.986              7.054
 Vibration     2          0.596              1.975              4.568
 Vibration     3          0.604              1.948              3.426
 Vibration     4          0.607              1.939              3.218
 Vibration     5          0.610              1.928              3.029
 Vibration     6          0.614              1.915              2.820
 Vibration     7          0.635              1.848              2.187
 Vibration     8          0.654              1.788              1.846
 Vibration     9          0.660              1.771              1.764
 Vibration    10          0.670              1.742              1.647
 Vibration    11          0.676              1.722              1.573
 Vibration    12          0.680              1.712              1.537
 Vibration    13          0.703              1.644              1.334
 Vibration    14          0.717              1.603              1.229
 Vibration    15          0.751              1.509              1.031
 Vibration    16          0.770              1.460              0.946
 Vibration    17          0.793              1.401              0.853
 Vibration    18          0.810              1.358              0.792
 Vibration    19          0.837              1.294              0.710
 Vibration    20          0.855              1.251              0.659
 Vibration    21          0.922              1.104              0.511
 Vibration    22          0.974              1.001              0.425

                           ! Non-Optimized Parameters !
 Normal termination of Gaussian 16 at Wed Dec  9 23:34:56 2020.

 ----------------------------------------------------------------------
 # B3LYP/6-311++G(d,p) empiricaldispersion=gd3bj scf=xqc pop=npa geom=c
 heck
 ----------------------------------------------------------------------

 ---------------------------------------
 CID_130591084_JID_3590_Energie_neutraal
 ---------------------------------------
 Structure from the checkpoint file:  "JID_3590.chk"
 Charge =  0 Multiplicity = 1

 SCF Done:  E(RB3LYP) =  -992.633174094     A.U. after   15 cycles
 Normal termination of Gaussian 16 at Wed Dec  9 23:37:49 2020.

 ----------------------------------------------------------------------
 # B3LYP/6-311++G(d,p) empiricaldispersion=gd3bj scf=xqc pop=npa geom=c
 heck
 ----------------------------------------------------------------------

 -------------------------------------
 CID_130591084_JID_3590_Energie_kation
 -------------------------------------
 Structure from the checkpoint file:  "JID_3590.chk"
 Charge =  1 Multiplicity = 2

 SCF Done:  E(UB3LYP) =  -992.312253508     A.U. after   22 cycles
 Normal termination of Gaussian 16 at Wed Dec  9 23:43:26 2020.
 Gaussian 16:  ES64L-G16RevA.03 25-Dec-2016

 ----------------------------------------------------------------------
 # B3LYP/6-311++G(d,p) empiricaldispersion=gd3bj scf=xqc pop=npa geom=c
 heck
 ----------------------------------------------------------------------

 ------------------------------------
 CID_130591084_JID_3590_Energie_anion
 ------------------------------------
 Structure from the checkpoint file:  "JID_3590.chk"
 Charge = -1 Multiplicity = 2

                         Standard orientation:
 ---------------------------------------------------------------------
 Center     Atomic      Atomic             Coordinates (Angstroms)
 Number     Number       Type             X           Y           Z
 ---------------------------------------------------------------------
      1          6           0        3.148895    1.337485   -0.754385
      2          6           0        2.068809    0.432839   -0.167960
      3          6           0        1.774391    0.746457    1.322580
      4          6           0        0.286914    0.438370    1.569067
      5          7           0       -0.296129    0.395847    0.208350
      6          6           0        0.698514    0.652112   -0.845450
      7         16           0       -1.643958   -0.527770   -0.089488
      8          8           0       -1.478869   -1.215577   -1.376644
      9          8           0       -1.951938   -1.290435    1.125054
     10          6           0       -2.954496    0.656198   -0.317168
     11          6           0       -2.776047    1.968156   -0.211501
     12          8           0        2.581424   -0.883381   -0.363512
     13          6           0        1.757853   -1.987338   -0.019197
     14          1           0        3.299219    1.105882   -1.813307
     15          1           0        4.096005    1.169280   -0.233245
     16          1           0        2.874754    2.392582   -0.657544
     17          1           0        2.434131    0.163783    1.970732
     18          1           0        1.975034    1.805701    1.511445
     19          1           0       -0.202643    1.214153    2.167974
     20          1           0        0.129101   -0.517366    2.071387
     21          1           0        0.610072    1.686527   -1.201889
     22          1           0        0.549498   -0.017491   -1.693192
     23          1           0       -3.903849    0.182393   -0.550490
     24          1           0       -3.602712    2.656911   -0.359044
     25          1           0       -1.802043    2.385100    0.023851
     26          1           0        1.474010   -1.984259    1.041961
     27          1           0        0.850268   -2.042153   -0.630950
     28          1           0        2.361443   -2.878186   -0.209426
 ---------------------------------------------------------------------

 SCF Done:  E(UB3LYP) =  -992.624080809     A.U. after   33 cycles
 SCF Done:  E(UB3LYP) =  -992.624080809     a.u. after    1 cycles

 The electronic state is 2-A.
 Alpha  occ. eigenvalues --  -88.95235 -19.02565 -19.00590 -19.00559 -14.23656
 Alpha  occ. eigenvalues --  -10.13652 -10.11118 -10.10484 -10.10391 -10.08278
 Alpha  occ. eigenvalues --  -10.07121 -10.06562 -10.06050  -8.01345  -5.97675
 Alpha  occ. eigenvalues --   -5.97604  -5.97395  -1.00957  -0.93932  -0.89853
 Alpha  occ. eigenvalues --   -0.83972  -0.70728  -0.68208  -0.65174  -0.60984
 Alpha  occ. eigenvalues --   -0.58020  -0.55887  -0.51484  -0.46790  -0.46137
 Alpha  occ. eigenvalues --   -0.42414  -0.40275  -0.39506  -0.37721  -0.36853
 Alpha  occ. eigenvalues --   -0.35578  -0.34459  -0.33872  -0.32342  -0.31759
 Alpha  occ. eigenvalues --   -0.30782  -0.29440  -0.28625  -0.28456  -0.27962
 Alpha  occ. eigenvalues --   -0.25774  -0.24657  -0.23839  -0.23096  -0.21703
 Alpha  occ. eigenvalues --   -0.20132  -0.19528  -0.17382  -0.17122  -0.14092
 Alpha  occ. eigenvalues --    0.04730
 Alpha virt. eigenvalues --    0.06782   0.07756   0.08096   0.08536   0.09582
 Alpha virt. eigenvalues --    0.10202   0.10569   0.11183   0.11679   0.12442
 Alpha virt. eigenvalues --    0.12775   0.14073   0.14393   0.14808   0.15632

  Beta  occ. eigenvalues --  -88.95235 -19.02559 -19.00559 -19.00528 -14.23660
  Beta  occ. eigenvalues --  -10.13653 -10.11111 -10.10467 -10.10374 -10.08127
  Beta  occ. eigenvalues --  -10.07089 -10.06359 -10.06015  -8.01345  -5.97674
  Beta  occ. eigenvalues --   -5.97596  -5.97399  -1.00898  -0.93924  -0.89781
  Beta  occ. eigenvalues --   -0.83954  -0.70640  -0.67923  -0.65112  -0.60913
  Beta  occ. eigenvalues --   -0.57977  -0.55722  -0.51229  -0.46741  -0.46044
  Beta  occ. eigenvalues --   -0.42294  -0.40217  -0.39436  -0.37660  -0.36827
  Beta  occ. eigenvalues --   -0.35491  -0.34292  -0.33842  -0.32309  -0.31728
  Beta  occ. eigenvalues --   -0.30758  -0.29355  -0.28523  -0.28405  -0.27917
  Beta  occ. eigenvalues --   -0.25734  -0.24623  -0.23775  -0.22789  -0.21644
  Beta  occ. eigenvalues --   -0.20047  -0.19418  -0.17254  -0.16329  -0.14076
  Beta virt. eigenvalues --    0.07263   0.08020   0.08399   0.08851   0.09151
  Beta virt. eigenvalues --    0.10084   0.10300   0.11049   0.11707   0.11835
  Beta virt. eigenvalues --    0.12817   0.13072   0.14348   0.14541   0.15049

 Mulliken charges and spin densities:
               1          2
     1  C    1.109466  -1.698896
     2  C   -2.275005   2.198757
     3  C    1.343135  -1.696086
     4  C   -0.318543  -0.037126
     5  N   -0.348406   0.150827
     6  C    0.322760  -0.961707
     7  S    0.548157  -0.119601
     8  O   -0.148017  -0.008744
     9  O   -0.143214   0.001484
    10  C   -0.315941   0.179224
    11  C    0.186386  -0.367605
    12  O   -0.016895  -0.004158
    13  C   -0.112138  -0.097698
    14  H    0.001205   0.149454
    15  H   -0.245578   0.404550
    16  H   -0.433665   0.598539
    17  H   -0.072566   0.261414
    18  H   -0.374246   0.569850
    19  H   -0.271511   0.460875
    20  H    0.263143  -0.061512
    21  H    0.096872   0.052905
    22  H    0.219902   0.031356
    23  H    0.131345   0.072459
    24  H   -0.262221   0.389745
    25  H   -0.258039   0.440688
    26  H    0.110599   0.016795
    27  H    0.133572   0.032254
    28  H    0.129444   0.041958
 Sum of Mulliken charges =  -1.00000   1.00000

 Dipole moment (field-independent basis, Debye):
    X=             -0.2915    Y=             -5.0668    Z=             -1.7699  Tot=              5.3749
 Quadrupole moment (field-independent basis, Debye-Ang):
   XX=           -140.4140   YY=           -133.2757   ZZ=           -115.6914
   XY=             -7.6636   XZ=              2.4300   YZ=             -9.1490

 Summary of Natural Population Analysis:

                                       Natural Population
                Natural  -----------------------------------------------
    Atom  No    Charge         Core      Valence    Rydberg      Total
 -----------------------------------------------------------------------
      C    1   -0.28594      0.99960     2.27860    0.00773     3.28594
      C    2    0.13561      0.99951     1.84730    0.01759     2.86439
      C    3   -0.21032      0.99957     2.20107    0.00967     3.21032
      C    4   -0.08108      0.99961     2.06953    0.01195     3.08108
      N    5   -0.39508      0.99973     2.87923    0.01613     3.89508
      C    6   -0.09647      0.99954     2.08468    0.01225     3.09647
      S    7    1.10921      4.99915     1.78926    0.10238     6.89079
      O    8   -0.46893      0.99991     3.46352    0.00550     4.46893
      O    9   -0.46518      0.99991     3.46031    0.00497     4.46518
      C   10   -0.19734      0.99945     2.18496    0.01292     3.19734
      C   11   -0.13623      0.99955     2.12793    0.00875     3.13623
      O   12   -0.30815      0.99986     3.29837    0.00991     4.30815
      C   13   -0.10485      0.99959     2.09672    0.00854     3.10485
      H   14    0.10147      0.00000     0.39741    0.00112     0.39853
      H   15    0.10480      0.00000     0.39387    0.00134     0.39520
      H   16    0.10422      0.00000     0.39413    0.00165     0.39578
      H   17    0.10765      0.00000     0.39139    0.00096     0.39235
      H   18    0.11130      0.00000     0.38515    0.00356     0.38870
      H   19    0.10055      0.00000     0.39795    0.00150     0.39945
      H   20    0.10237      0.00000     0.39630    0.00134     0.39763
      H   21    0.09811      0.00000     0.40050    0.00140     0.40189
      H   22    0.11631      0.00000     0.38255    0.00114     0.38369
      H   23    0.10426      0.00000     0.39480    0.00094     0.39574
      H   24    0.09545      0.00000     0.40353    0.00102     0.40455
      H   25    0.10193      0.00000     0.39630    0.00177     0.39807
      H   26    0.07889      0.00000     0.41987    0.00123     0.42111
      H   27    0.09056      0.00000     0.40793    0.00151     0.40944
      H   28    0.08691      0.00000     0.41229    0.00081     0.41309
 =======================================================================
   * Total *    0.00000     16.99497    37.75545    0.24957    55.00000

 Normal termination of Gaussian 16 at Wed Dec  9 23:51:49 2020.
