 Gaussian 16, Revision A.03,

 -----------------------------------------------------------
 # opt freq B3LYP/6-31G(d) empiricaldispersion=gd3bj scf=xqc
 -----------------------------------------------------------

 -------------------------------
 CID_119072644_JID_8997_neutraal
 -------------------------------
 Symbolic Z-matrix:
 Charge =  0 Multiplicity = 1

 SCF Done:  E(RB3LYP) =  -840.004344945     A.U. after   14 cycles
 SCF Done:  E(RB3LYP) =  -840.008822663     A.U. after   12 cycles
 SCF Done:  E(RB3LYP) =  -840.009137355     A.U. after   12 cycles
 SCF Done:  E(RB3LYP) =  -840.010522729     A.U. after   12 cycles
 SCF Done:  E(RB3LYP) =  -840.009724004     A.U. after   12 cycles
 SCF Done:  E(RB3LYP) =  -840.010895574     A.U. after   12 cycles
 SCF Done:  E(RB3LYP) =  -840.011044773     A.U. after   11 cycles
 SCF Done:  E(RB3LYP) =  -840.011140383     A.U. after   11 cycles
 SCF Done:  E(RB3LYP) =  -840.011213675     A.U. after   11 cycles
 SCF Done:  E(RB3LYP) =  -840.011423934     A.U. after   13 cycles
 SCF Done:  E(RB3LYP) =  -840.013363860     A.U. after    8 cycles
 SCF Done:  E(RB3LYP) =  -840.013363930     A.U. after    9 cycles
 SCF Done:  E(RB3LYP) =  -840.013363962     A.U. after    8 cycles
 SCF Done:  E(RB3LYP) =  -840.013364025     A.U. after    8 cycles
 SCF Done:  E(RB3LYP) =  -840.013364059     A.U. after    7 cycles
 Optimization completed.
    -- Stationary point found.
 Normal termination of Gaussian 16 at Fri Dec 11 23:42:37 2020.

 --------------------------------------------------------------------
 #N Geom=AllCheck Guess=TCheck SCRF=Check GenChk RB3LYP/6-31G(d) Freq
 --------------------------------------------------------------------

 Structure from the checkpoint file:  "JID_8997.chk"
 -------------------------------
 CID_119072644_JID_8997_neutraal
 -------------------------------
 Charge =  0 Multiplicity = 1

 SCF Done:  E(RB3LYP) =  -840.013364060     A.U. after    1 cycles

  Exact polarizability: 191.141  10.076 141.171   1.854  -2.002 130.541
 Approx polarizability: 227.310  16.753 215.635  -4.837  -2.740 214.733

                      1                      2                      3
                      A                      A                      A
 Frequencies --      9.9727                23.7779                25.3277
 Red. masses --      3.3836                 5.0507                 3.8892
 Frc consts  --      0.0002                 0.0017                 0.0015
 IR Inten    --      0.2517                 0.8785                 0.4673

                      4                      5                      6
                      A                      A                      A
 Frequencies --     34.8284                61.9694                71.6354
 Red. masses --      5.2451                 3.3785                 4.3511
 Frc consts  --      0.0037                 0.0076                 0.0132
 IR Inten    --      0.7964                 0.2575                 0.7090

                      7                      8                      9
                      A                      A                      A
 Frequencies --     89.3424               121.0825               131.7134
 Red. masses --      4.0598                 3.5635                 3.8566
 Frc consts  --      0.0191                 0.0308                 0.0394
 IR Inten    --      0.2745                 0.8012                 0.4964

                     10                     11                     12
                      A                      A                      A
 Frequencies --    170.7642               199.1160               226.1972
 Red. masses --      3.6355                 2.8663                 1.1631
 Frc consts  --      0.0625                 0.0670                 0.0351
 IR Inten    --      0.8613                 0.8892                 0.3609

                     13                     14                     15
                      A                      A                      A
 Frequencies --    229.4731               249.5495               253.1126
 Red. masses --      1.1734                 1.1986                 2.1271
 Frc consts  --      0.0364                 0.0440                 0.0803
 IR Inten    --      0.1095                 0.2382                 1.9767

                     16                     17                     18
                      A                      A                      A
 Frequencies --    259.1380               267.2298               278.8726
 Red. masses --      1.5476                 2.1083                 2.1373
 Frc consts  --      0.0612                 0.0887                 0.0979
 IR Inten    --      1.6293                 2.7593                 0.3218

                     19                     20                     21
                      A                      A                      A
 Frequencies --    291.2817               297.9441               325.3936
 Red. masses --      2.4569                 1.1624                 2.2379
 Frc consts  --      0.1228                 0.0608                 0.1396
 IR Inten    --      0.8490                 1.5196                 1.2366

                     22                     23                     24
                      A                      A                      A
 Frequencies --    359.7090               383.0370               411.1176
 Red. masses --      2.8925                 3.1938                 5.7569
 Frc consts  --      0.2205                 0.2761                 0.5733
 IR Inten    --      1.2042                 3.1226                 1.2472

                     25                     26                     27
                      A                      A                      A
 Frequencies --    422.0846               433.6100               490.3776
 Red. masses --      2.2579                 2.9286                 3.0980
 Frc consts  --      0.2370                 0.3244                 0.4389
 IR Inten    --      2.6936                 5.0488                 7.0426

                     28                     29                     30
                      A                      A                      A
 Frequencies --    511.3958               549.9875               624.2512
 Red. masses --      3.9699                 3.3884                 3.5621
 Frc consts  --      0.6117                 0.6039                 0.8179
 IR Inten    --     12.3146                11.9140                 6.8395

                     31                     32                     33
                      A                      A                      A
 Frequencies --    643.1903               678.5561               681.5858
 Red. masses --      2.8234                 4.1292                 2.4257
 Frc consts  --      0.6882                 1.1202                 0.6639
 IR Inten    --      1.9571                 0.6534                14.2368

                     34                     35                     36
                      A                      A                      A
 Frequencies --    720.9205               727.0470               781.0858
 Red. masses --      2.8653                 1.9426                 5.0531
 Frc consts  --      0.8774                 0.6050                 1.8164
 IR Inten    --     10.1605                50.0084                12.1972

                     37                     38                     39
                      A                      A                      A
 Frequencies --    791.7260               825.3825               893.4323
 Red. masses --      2.9426                 2.8463                 2.4859
 Frc consts  --      1.0867                 1.1425                 1.1691
 IR Inten    --     56.3709                 7.4194                 9.4966

                     40                     41                     42
                      A                      A                      A
 Frequencies --    896.4258               912.8288               952.4458
 Red. masses --      2.3509                10.2242                 1.1622
 Frc consts  --      1.1130                 5.0195                 0.6212
 IR Inten    --     35.4733                20.7335                 1.8127

                     43                     44                     45
                      A                      A                      A
 Frequencies --    970.7125               976.2225               981.3538
 Red. masses --      2.4626                 2.2745                 1.5483
 Frc consts  --      1.3672                 1.2771                 0.8785
 IR Inten    --      5.1577                14.9085                 0.1965

                     46                     47                     48
                      A                      A                      A
 Frequencies --   1018.1117              1040.1187              1047.6630
 Red. masses --      5.1185                 2.1294                 5.6099
 Frc consts  --      3.1259                 1.3573                 3.6279
 IR Inten    --      8.5565                 9.0374                 7.3781

                     49                     50                     51
                      A                      A                      A
 Frequencies --   1069.8237              1082.8884              1086.8353
 Red. masses --      2.5183                 1.4904                 1.6209
 Frc consts  --      1.6982                 1.0297                 1.1281
 IR Inten    --     40.9847                10.5712                32.2988

                     52                     53                     54
                      A                      A                      A
 Frequencies --   1094.9313              1120.3495              1130.8142
 Red. masses --      2.1619                 1.9689                 2.3227
 Frc consts  --      1.5271                 1.4561                 1.7500
 IR Inten    --     10.9786                54.1637                 0.7810

                     55                     56                     57
                      A                      A                      A
 Frequencies --   1135.7800              1171.4546              1197.9788
 Red. masses --      1.2416                 2.8175                 1.5042
 Frc consts  --      0.9437                 2.2781                 1.2719
 IR Inten    --      6.8146                12.1137                 5.2879

                     58                     59                     60
                      A                      A                      A
 Frequencies --   1205.8900              1229.5217              1246.1066
 Red. masses --      1.8664                 1.3581                 2.2452
 Frc consts  --      1.5991                 1.2097                 2.0541
 IR Inten    --      0.9442                11.5703                29.2763

                     61                     62                     63
                      A                      A                      A
 Frequencies --   1286.9230              1316.5846              1318.3193
 Red. masses --      1.3753                 2.4519                 5.7126
 Frc consts  --      1.3420                 2.5041                 5.8496
 IR Inten    --      8.3617                14.8391                46.3453

                     64                     65                     66
                      A                      A                      A
 Frequencies --   1356.1232              1359.3265              1362.6243
 Red. masses --      1.3709                 1.7068                 1.4453
 Frc consts  --      1.4854                 1.8582                 1.5811
 IR Inten    --      7.8518                21.1023                17.2517

                     67                     68                     69
                      A                      A                      A
 Frequencies --   1368.4045              1378.1722              1404.4018
 Red. masses --      1.5853                 1.6662                 2.9123
 Frc consts  --      1.7489                 1.8646                 3.3843
 IR Inten    --     72.5899                72.2690                47.6880

                     70                     71                     72
                      A                      A                      A
 Frequencies --   1419.1479              1427.6993              1428.8862
 Red. masses --      1.3296                 1.2127                 1.2889
 Frc consts  --      1.5777                 1.4564                 1.5504
 IR Inten    --      7.9940                 3.6249                 5.3098

                     73                     74                     75
                      A                      A                      A
 Frequencies --   1438.2895              1451.2555              1467.7517
 Red. masses --      1.4206                 1.2617                 1.1538
 Frc consts  --      1.7314                 1.5657                 1.4644
 IR Inten    --     27.1574                 3.8121                 5.9391

                     76                     77                     78
                      A                      A                      A
 Frequencies --   1497.9627              1499.1866              1508.6540
 Red. masses --      1.0921                 1.1675                 1.2436
 Frc consts  --      1.4438                 1.5460                 1.6676
 IR Inten    --      4.2485                 1.1977                53.1994

                     79                     80                     81
                      A                      A                      A
 Frequencies --   1513.4759              1518.7971              1520.1214
 Red. masses --      1.0992                 1.0445                 1.3225
 Frc consts  --      1.4834                 1.4196                 1.8005
 IR Inten    --      7.4888                 4.6154                37.1128

                     82                     83                     84
                      A                      A                      A
 Frequencies --   1520.4925              1521.7990              1532.1170
 Red. masses --      1.0490                 1.0676                 1.0465
 Frc consts  --      1.4289                 1.4568                 1.4473
 IR Inten    --      2.1751                22.7523                 7.8678

                     85                     86                     87
                      A                      A                      A
 Frequencies --   1535.1130              1538.3151              1540.6598
 Red. masses --      1.0785                 1.1153                 1.0569
 Frc consts  --      1.4975                 1.5549                 1.4781
 IR Inten    --     12.9765                 9.9924                 0.8119

                     88                     89                     90
                      A                      A                      A
 Frequencies --   1545.5436              1549.4215              1572.4456
 Red. masses --      1.0612                 1.0506                 5.7174
 Frc consts  --      1.4935                 1.4861                 8.3292
 IR Inten    --      9.5456                 8.7484                 9.1372

                     91                     92                     93
                      A                      A                      A
 Frequencies --   1631.5611              1772.0161              2930.0761
 Red. masses --      8.2446                 7.4936                 1.0624
 Frc consts  --     12.9308                13.8636                 5.3740
 IR Inten    --    112.9368               283.7551                59.7198

                     94                     95                     96
                      A                      A                      A
 Frequencies --   2947.3619              3050.0185              3058.6902
 Red. masses --      1.0620                 1.0703                 1.0340
 Frc consts  --      5.4355                 5.8662                 5.6996
 IR Inten    --    108.1308                14.0515                19.4758

                     97                     98                     99
                      A                      A                      A
 Frequencies --   3061.4834              3064.7159              3074.1111
 Red. masses --      1.0349                 1.0377                 1.0709
 Frc consts  --      5.7149                 5.7425                 5.9627
 IR Inten    --     18.5640                15.4375                39.9920

                    100                    101                    102
                      A                      A                      A
 Frequencies --   3084.1570              3085.9817              3090.5800
 Red. masses --      1.0854                 1.0730                 1.0733
 Frc consts  --      6.0832                 6.0206                 6.0400
 IR Inten    --      3.3187                39.6314                20.3226

                    103                    104                    105
                      A                      A                      A
 Frequencies --   3092.3117              3121.5363              3123.1161
 Red. masses --      1.0834                 1.1032                 1.1013
 Frc consts  --      6.1041                 6.3335                 6.3288
 IR Inten    --      3.3971                28.0492                35.4618

                    106                    107                    108
                      A                      A                      A
 Frequencies --   3131.3596              3133.1912              3134.1846
 Red. masses --      1.1036                 1.1036                 1.0913
 Frc consts  --      6.3757                 6.3830                 6.3161
 IR Inten    --     11.5303                18.4298                 4.9429

                    109                    110                    111
                      A                      A                      A
 Frequencies --   3135.7006              3140.1682              3144.5141
 Red. masses --      1.1038                 1.1023                 1.0990
 Frc consts  --      6.3946                 6.4039                 6.4024
 IR Inten    --     20.7666                33.2893                32.7805

                    112                    113                    114
                      A                      A                      A
 Frequencies --   3147.7663              3180.6276              3567.1603
 Red. masses --      1.0998                 1.0933                 1.0747
 Frc consts  --      6.4207                 6.5164                 8.0574
 IR Inten    --     26.6051                17.0329                36.8409

 - Thermochemistry -
 -------------------
 Temperature   298.150 Kelvin.  Pressure   1.00000 Atm.
 Atom     1 has atomic number  6 and mass  12.00000

 Molecular mass:   254.17428 amu.
 Principal axes and moments of inertia in atomic units:
                           1         2         3
     Eigenvalues --  1844.85968********************
           X            0.99985   0.01683   0.00280
           Y           -0.01678   0.99975  -0.01494
           Z           -0.00305   0.01489   0.99988
 This molecule is an asymmetric top.
 Rotational symmetry number  1.
 Warning -- assumption of classical behavior for rotation
           may cause significant error
 Rotational temperatures (Kelvin)      0.04695     0.00845     0.00799
 Rotational constants (GHZ):           0.97825     0.17614     0.16649
 Zero-point vibrational energy     913437.8 (Joules/Mol)
                                  218.31688 (Kcal/Mol)
 Warning -- explicit consideration of  29 degrees of freedom as
           vibrations may cause significant error
 Vibrational temperatures:     14.35    34.21    36.44    50.11    89.16
          (Kelvin)            103.07   128.54   174.21   189.51   245.69
                              286.48   325.45   330.16   359.05   364.17
                              372.84   384.48   401.24   419.09   428.68
                              468.17   517.54   551.10   591.51   607.29
                              623.87   705.54   735.78   791.31   898.16
                              925.41   976.29   980.65  1037.24  1046.06
                             1123.81  1139.12  1187.54  1285.45  1289.76
                             1313.36  1370.36  1396.64  1404.57  1411.95
                             1464.84  1496.50  1507.35  1539.24  1558.03
                             1563.71  1575.36  1611.93  1626.99  1634.13
                             1685.46  1723.62  1735.01  1769.01  1792.87
                             1851.60  1894.27  1896.77  1951.16  1955.77
                             1960.51  1968.83  1982.88  2020.62  2041.84
                             2054.14  2055.85  2069.38  2088.03  2111.77
                             2155.23  2157.00  2170.62  2177.55  2185.21
                             2187.12  2187.65  2189.53  2204.37  2208.69
                             2213.29  2216.67  2223.69  2229.27  2262.40
                             2347.45  2549.54  4215.73  4240.60  4388.30
                             4400.77  4404.79  4409.44  4422.96  4437.41
                             4440.04  4446.66  4449.15  4491.19  4493.47
                             4505.33  4507.96  4509.39  4511.57  4518.00
                             4524.25  4528.93  4576.21  5132.35

 Zero-point correction=                           0.347910 (Hartree/Particle)
 Thermal correction to Energy=                    0.367857
 Thermal correction to Enthalpy=                  0.368801
 Thermal correction to Gibbs Free Energy=         0.296276
 Sum of electronic and zero-point Energies=           -839.665454
 Sum of electronic and thermal Energies=              -839.645507
 Sum of electronic and thermal Enthalpies=            -839.644563
 Sum of electronic and thermal Free Energies=         -839.717089

                     E (Thermal)             CV                S
                      KCal/Mol        Cal/Mol-Kelvin    Cal/Mol-Kelvin
 Total                  230.834             72.714            152.643
 Electronic               0.000              0.000              0.000
 Translational            0.889              2.981             42.499
 Rotational               0.889              2.981             33.682
 Vibrational            229.056             66.752             76.463
 Vibration     1          0.593              1.987              8.016
 Vibration     2          0.593              1.985              6.291
 Vibration     3          0.593              1.985              6.165
 Vibration     4          0.594              1.983              5.533
 Vibration     5          0.597              1.972              4.393
 Vibration     6          0.598              1.968              4.108
 Vibration     7          0.602              1.957              3.674
 Vibration     8          0.609              1.932              3.083
 Vibration     9          0.612              1.922              2.921
 Vibration    10          0.626              1.878              2.427
 Vibration    11          0.637              1.841              2.141
 Vibration    12          0.650              1.801              1.909
 Vibration    13          0.652              1.796              1.883
 Vibration    14          0.662              1.764              1.734
 Vibration    15          0.664              1.758              1.709
 Vibration    16          0.668              1.747              1.668
 Vibration    17          0.672              1.733              1.614
 Vibration    18          0.679              1.713              1.541
 Vibration    19          0.687              1.690              1.467
 Vibration    20          0.691              1.678              1.428
 Vibration    21          0.709              1.625              1.283
 Vibration    22          0.734              1.555              1.123
 Vibration    23          0.752              1.506              1.027
 Vibration    24          0.775              1.446              0.923
 Vibration    25          0.784              1.422              0.885
 Vibration    26          0.794              1.397              0.847
 Vibration    27          0.846              1.271              0.683
 Vibration    28          0.867              1.225              0.630
 Vibration    29          0.905              1.140              0.544

 Optimization completed.
    -- Stationary point found.
 Normal termination of Gaussian 16 at Fri Dec 11 23:58:00 2020.

 ----------------------------------------------------------------------
 # B3LYP/6-311++G(d,p) empiricaldispersion=gd3bj scf=xqc pop=npa geom=c
 heck
 ----------------------------------------------------------------------

 ---------------------------------------
 CID_119072644_JID_8997_Energie_neutraal
 ---------------------------------------
 Structure from the checkpoint file:  "JID_8997.chk"
 Charge =  0 Multiplicity = 1

 SCF Done:  E(RB3LYP) =  -840.251068541     A.U. after   16 cycles
 Normal termination of Gaussian 16 at Sat Dec 12 00:04:57 2020.

 ----------------------------------------------------------------------
 # B3LYP/6-311++G(d,p) empiricaldispersion=gd3bj scf=xqc pop=npa geom=c
 heck
 ----------------------------------------------------------------------

 -------------------------------------
 CID_119072644_JID_8997_Energie_kation
 -------------------------------------
 Structure from the checkpoint file:  "JID_8997.chk"
 Charge =  1 Multiplicity = 2

 SCF Done:  E(UB3LYP) =  -839.961387174     A.U. after   25 cycles
 Normal termination of Gaussian 16 at Sat Dec 12 00:19:35 2020.
 Gaussian 16:  ES64L-G16RevA.03 25-Dec-2016

 ----------------------------------------------------------------------
 # B3LYP/6-311++G(d,p) empiricaldispersion=gd3bj scf=xqc pop=npa geom=c
 heck
 ----------------------------------------------------------------------

 ------------------------------------
 CID_119072644_JID_8997_Energie_anion
 ------------------------------------
 Structure from the checkpoint file:  "JID_8997.chk"
 Charge = -1 Multiplicity = 2

                         Standard orientation:
 ---------------------------------------------------------------------
 Center     Atomic      Atomic             Coordinates (Angstroms)
 Number     Number       Type             X           Y           Z
 ---------------------------------------------------------------------
      1          6           0        5.577884    0.150432    0.518066
      2          6           0        4.197566    0.828449    0.543938
      3          6           0        4.162468    2.081351   -0.352675
      4          6           0        3.119133   -0.124427    0.137672
      5          7           0        2.021640   -0.430842    0.772724
      6          6           0        1.400873   -1.309978   -0.097495
      7          7           0        2.063532   -1.537240   -1.202625
      8          8           0        3.225854   -0.748366   -1.047545
      9          6           0        0.071942   -1.937450    0.191102
     10          6           0       -0.800883   -1.044956    1.092978
     11          7           0       -0.900837    0.333282    0.642778
     12          6           0       -1.728303    0.966301   -0.256135
     13          8           0       -1.417551    2.077757   -0.668215
     14          6           0       -3.072029    0.354512   -0.714028
     15          6           0       -3.033665   -1.099243   -1.228136
     16          7           0       -4.124196    0.667710    0.264339
     17          6           0       -5.458899    0.609917   -0.309751
     18          6           0       -4.052363   -0.024005    1.539084
     19          1           0        5.832815   -0.173080   -0.496043
     20          1           0        5.604634   -0.725812    1.173856
     21          1           0        6.343854    0.855594    0.856140
     22          1           0        3.955600    1.120140    1.571234
     23          1           0        4.378684    1.818235   -1.393149
     24          1           0        3.182273    2.567162   -0.318047
     25          1           0        4.916144    2.800245   -0.015375
     26          1           0       -0.426756   -2.146953   -0.758438
     27          1           0        0.224246   -2.902000    0.694232
     28          1           0       -1.790791   -1.485413    1.195528
     29          1           0       -0.358786   -1.018226    2.093391
     30          1           0       -0.059573    0.877569    0.803926
     31          1           0       -3.296826    0.983846   -1.579120
     32          1           0       -2.949143   -1.845518   -0.435176
     33          1           0       -3.952593   -1.317132   -1.781602
     34          1           0       -2.196299   -1.236912   -1.920628
     35          1           0       -5.808768   -0.414250   -0.541514
     36          1           0       -6.172747    1.050637    0.395007
     37          1           0       -5.487811    1.197277   -1.233288
     38          1           0       -4.204293   -1.119529    1.473879
     39          1           0       -3.089660    0.171055    2.016841
     40          1           0       -4.833949    0.372148    2.196189
 ---------------------------------------------------------------------

 SCF Done:  E(UB3LYP) =  -840.243436961     A.U. after   33 cycles
 SCF Done:  E(UB3LYP) =  -840.243436961     a.u. after    1 cycles

 The electronic state is 2-A.
 Alpha  occ. eigenvalues --  -19.11301 -18.99287 -14.25973 -14.24161 -14.22232
 Alpha  occ. eigenvalues --  -14.22156 -10.18057 -10.17387 -10.14022 -10.12410
 Alpha  occ. eigenvalues --  -10.12210 -10.11233 -10.10346 -10.09727 -10.09647
 Alpha  occ. eigenvalues --  -10.08621 -10.08130 -10.07952  -1.06201  -0.94574
 Alpha  occ. eigenvalues --   -0.84491  -0.83973  -0.82505  -0.78508  -0.71496
 Alpha  occ. eigenvalues --   -0.68297  -0.67703  -0.62273  -0.61046  -0.58880
 Alpha  occ. eigenvalues --   -0.57782  -0.56276  -0.52636  -0.51354  -0.48855
 Alpha  occ. eigenvalues --   -0.46472  -0.41969  -0.40891  -0.40629  -0.39995
 Alpha  occ. eigenvalues --   -0.38719  -0.37527  -0.37357  -0.35939  -0.35317
 Alpha  occ. eigenvalues --   -0.34860  -0.34336  -0.33407  -0.32871  -0.31928
 Alpha  occ. eigenvalues --   -0.31092  -0.30748  -0.30609  -0.29871  -0.28973
 Alpha  occ. eigenvalues --   -0.28390  -0.28063  -0.27644  -0.27225  -0.27175
 Alpha  occ. eigenvalues --   -0.26774  -0.25458  -0.24135  -0.22942  -0.20437
 Alpha  occ. eigenvalues --   -0.18844  -0.16983  -0.16050  -0.12741   0.03804
 Alpha virt. eigenvalues --    0.05085   0.05770   0.06660   0.07275   0.08049
 Alpha virt. eigenvalues --    0.08190   0.08613   0.09002   0.09253   0.09600
 Alpha virt. eigenvalues --    0.09920   0.10652   0.11019   0.11473   0.11883

  Beta  occ. eigenvalues --  -19.11180 -18.99287 -14.25826 -14.24156 -14.22251
  Beta  occ. eigenvalues --  -14.22152 -10.18057 -10.17264 -10.13972 -10.12390
  Beta  occ. eigenvalues --  -10.12207 -10.11236 -10.10325 -10.09696 -10.09641
  Beta  occ. eigenvalues --  -10.08606 -10.08082 -10.07931  -1.06001  -0.94571
  Beta  occ. eigenvalues --   -0.84414  -0.83952  -0.82480  -0.78304  -0.71434
  Beta  occ. eigenvalues --   -0.68248  -0.67664  -0.62232  -0.60980  -0.58830
  Beta  occ. eigenvalues --   -0.57725  -0.56111  -0.52595  -0.51285  -0.48775
  Beta  occ. eigenvalues --   -0.46411  -0.41913  -0.40836  -0.40581  -0.39604
  Beta  occ. eigenvalues --   -0.38679  -0.37501  -0.37298  -0.35877  -0.35255
  Beta  occ. eigenvalues --   -0.34816  -0.34274  -0.33377  -0.32753  -0.31898
  Beta  occ. eigenvalues --   -0.31059  -0.30697  -0.30544  -0.29841  -0.28911
  Beta  occ. eigenvalues --   -0.28348  -0.28020  -0.27589  -0.27197  -0.27100
  Beta  occ. eigenvalues --   -0.26721  -0.25438  -0.23992  -0.22649  -0.20350
  Beta  occ. eigenvalues --   -0.18182  -0.16948  -0.16038  -0.12719
  Beta virt. eigenvalues --    0.05790   0.05962   0.06893   0.07381   0.07585
  Beta virt. eigenvalues --    0.08389   0.08531   0.08792   0.09221   0.09520
  Beta virt. eigenvalues --    0.09813   0.10195   0.10983   0.11138   0.11596

 Mulliken charges and spin densities:
               1          2
     1  C    0.680209  -1.284461
     2  C   -2.189577   2.354359
     3  C   -0.241284  -0.274022
     4  C   -0.102924  -1.228646
     5  N    0.004079   0.039721
     6  C    0.771068  -0.579845
     7  N   -0.410097   0.096063
     8  O    0.281254   0.016678
     9  C    0.790063  -0.340589
    10  C    0.223442  -0.387965
    11  N   -0.276798   0.073889
    12  C   -0.227715   0.055746
    13  O   -0.304013  -0.001215
    14  C   -0.905444   0.666153
    15  C    0.412722  -0.982229
    16  N    0.088785   0.087954
    17  C    0.283169  -0.544812
    18  C    0.335643  -0.743132
    19  H    0.112561   0.042570
    20  H   -0.139452   0.296873
    21  H   -0.582309   0.755874
    22  H    0.046527   0.135221
    23  H    0.102375   0.055407
    24  H    0.156543  -0.011415
    25  H    0.064767   0.099525
    26  H    0.282061  -0.090993
    27  H   -0.386207   0.587072
    28  H    0.132380   0.006616
    29  H    0.058761   0.160196
    30  H    0.343262   0.028887
    31  H    0.192715   0.020651
    32  H   -0.247525   0.409656
    33  H    0.056465   0.104197
    34  H    0.123758   0.021957
    35  H   -0.153390   0.271194
    36  H   -0.006014   0.133708
    37  H   -0.017277   0.148683
    38  H   -0.218072   0.360756
    39  H   -0.049067   0.207525
    40  H   -0.085446   0.232192
 Sum of Mulliken charges =  -1.00000   1.00000

 Dipole moment (field-independent basis, Debye):
    X=             -0.7608    Y=              1.4263    Z=             -1.5181  Tot=              2.2176
 Quadrupole moment (field-independent basis, Debye-Ang):
   XX=           -224.1391   YY=           -155.7929   ZZ=           -141.8959
   XY=             -0.6417   XZ=             -0.1398   YZ=              2.7675

 Summary of Natural Population Analysis:

                                       Natural Population
                Natural  -----------------------------------------------
    Atom  No    Charge         Core      Valence    Rydberg      Total
 -----------------------------------------------------------------------
      C    1   -0.28012      0.99965     2.27472    0.00575     3.28012
      C    2   -0.14266      0.99957     2.13361    0.00948     3.14266
      C    3   -0.27824      0.99965     2.27330    0.00530     3.27824
      C    4    0.31591      0.99959     1.66315    0.02135     2.68409
      N    5   -0.29069      0.99967     2.78249    0.00853     3.79069
      C    6    0.18014      0.99964     1.80169    0.01853     2.81986
      N    7   -0.07547      0.99966     2.56418    0.01163     3.57547
      O    8   -0.16554      0.99985     3.15837    0.00732     4.16554
      C    9   -0.21458      0.99957     2.20648    0.00853     3.21458
      C   10   -0.09135      0.99961     2.07994    0.01180     3.09135
      N   11   -0.32257      0.99967     2.81401    0.00889     3.82257
      C   12    0.34691      0.99963     1.63021    0.02325     2.65309
      O   13   -0.32135      0.99988     3.31574    0.00572     4.32135
      C   14   -0.04170      0.99954     2.02874    0.01342     3.04170
      C   15   -0.30244      0.99964     2.29700    0.00580     3.30244
      N   16   -0.27510      0.99972     2.76358    0.01179     3.77510
      C   17   -0.17582      0.99964     2.16774    0.00843     3.17582
      C   18   -0.18180      0.99964     2.17310    0.00906     3.18180
      H   19    0.10131      0.00000     0.39747    0.00122     0.39869
      H   20    0.10413      0.00000     0.39485    0.00103     0.39587
      H   21    0.10162      0.00000     0.39672    0.00166     0.39838
      H   22    0.10914      0.00000     0.38908    0.00179     0.39086
      H   23    0.10124      0.00000     0.39793    0.00082     0.39876
      H   24    0.10414      0.00000     0.39511    0.00075     0.39586
      H   25    0.09918      0.00000     0.40014    0.00068     0.40082
      H   26    0.11001      0.00000     0.38864    0.00135     0.38999
      H   27    0.11386      0.00000     0.38413    0.00201     0.38614
      H   28    0.10483      0.00000     0.39364    0.00153     0.39517
      H   29    0.10353      0.00000     0.39505    0.00142     0.39647
      H   30    0.20156      0.00000     0.29590    0.00254     0.29844
      H   31    0.10662      0.00000     0.39148    0.00190     0.39338
      H   32    0.10079      0.00000     0.39802    0.00119     0.39921
      H   33    0.10307      0.00000     0.39615    0.00078     0.39693
      H   34    0.10306      0.00000     0.39591    0.00103     0.39694
      H   35    0.08126      0.00000     0.41736    0.00139     0.41874
      H   36    0.09526      0.00000     0.40383    0.00092     0.40474
      H   37    0.09457      0.00000     0.40453    0.00089     0.40543
      H   38    0.08174      0.00000     0.41642    0.00184     0.41826
      H   39    0.09927      0.00000     0.39912    0.00161     0.40073
      H   40    0.09627      0.00000     0.40278    0.00095     0.40373
 =======================================================================
   * Total *    0.00000     17.99382    50.78230    0.22388    69.00000

 Normal termination of Gaussian 16 at Sat Dec 12 00:39:01 2020.
