 Gaussian 16, Revision A.03,

 -----------------------------------------------------------
 # opt freq B3LYP/6-31G(d) empiricaldispersion=gd3bj scf=xqc
 -----------------------------------------------------------

 ------------------------------
 CID_151652842_JID_550_neutraal
 ------------------------------
 Symbolic Z-matrix:
 Charge =  0 Multiplicity = 1

 SCF Done:  E(RB3LYP) =  -524.123380146     A.U. after   16 cycles
 SCF Done:  E(RB3LYP) =  -524.130953446     A.U. after   15 cycles
 SCF Done:  E(RB3LYP) =  -524.131893508     A.U. after   14 cycles
 SCF Done:  E(RB3LYP) =  -524.132551946     A.U. after   13 cycles
 SCF Done:  E(RB3LYP) =  -524.132677434     A.U. after   12 cycles
 SCF Done:  E(RB3LYP) =  -524.132701715     A.U. after   12 cycles
 SCF Done:  E(RB3LYP) =  -524.132722224     A.U. after   10 cycles
 SCF Done:  E(RB3LYP) =  -524.132733012     A.U. after   10 cycles
 SCF Done:  E(RB3LYP) =  -524.132735710     A.U. after   10 cycles
 SCF Done:  E(RB3LYP) =  -524.132737168     A.U. after    9 cycles
 SCF Done:  E(RB3LYP) =  -524.132737564     A.U. after    9 cycles
 Optimization completed.
    -- Stationary point found.
 Normal termination of Gaussian 16 at Tue Dec  8 12:14:43 2020.

 --------------------------------------------------------------------
 #N Geom=AllCheck Guess=TCheck SCRF=Check GenChk RB3LYP/6-31G(d) Freq
 --------------------------------------------------------------------

 Structure from the checkpoint file:  "JID_550.chk"
 ------------------------------
 CID_151652842_JID_550_neutraal
 ------------------------------
 Charge =  0 Multiplicity = 1

 SCF Done:  E(RB3LYP) =  -524.132737564     A.U. after    1 cycles

  Exact polarizability: 112.734  19.551  72.909  -3.932  -1.251  39.350
 Approx polarizability: 201.594  66.108 133.306 -17.232  -9.087  62.597

                      1                      2                      3
                      A                      A                      A
 Frequencies --     69.2911                98.9627               142.7436
 Red. masses --     10.2585                 8.9653                 9.8989
 Frc consts  --      0.0290                 0.0517                 0.1188
 IR Inten    --      1.0459                 0.0026                 0.2718

                      4                      5                      6
                      A                      A                      A
 Frequencies --    177.1584               260.7268               341.5771
 Red. masses --      6.7880                 2.4160                 5.8178
 Frc consts  --      0.1255                 0.0968                 0.3999
 IR Inten    --      1.9041                 6.5703                 1.5683

                      7                      8                      9
                      A                      A                      A
 Frequencies --    384.9265               438.7091               527.2620
 Red. masses --      7.4257                10.8396                 9.8003
 Frc consts  --      0.6483                 1.2292                 1.6053
 IR Inten    --      2.1080                 0.7854                12.7434

                     10                     11                     12
                      A                      A                      A
 Frequencies --    536.8390               599.2591               671.8135
 Red. masses --      5.5610                 6.5196                 3.8876
 Frc consts  --      0.9443                 1.3794                 1.0338
 IR Inten    --      4.6877                17.7630                19.4688

                     13                     14                     15
                      A                      A                      A
 Frequencies --    720.2490               777.1223               789.4210
 Red. masses --      4.4317                 1.9801                 4.8999
 Frc consts  --      1.3545                 0.7046                 1.7991
 IR Inten    --     13.2729                23.0030                 4.2427

                     16                     17                     18
                      A                      A                      A
 Frequencies --    857.7356               905.9313               924.4186
 Red. masses --      6.5752                 4.3013                 4.2665
 Frc consts  --      2.8501                 2.0799                 2.1481
 IR Inten    --     52.8202                12.3395                22.0994

                     19                     20                     21
                      A                      A                      A
 Frequencies --    961.8924              1027.2569              1091.5694
 Red. masses --      1.5571                 2.0209                 3.9436
 Frc consts  --      0.8488                 1.2565                 2.7685
 IR Inten    --      7.8109                59.0271                 6.6891

                     22                     23                     24
                      A                      A                      A
 Frequencies --   1153.9719              1189.5393              1297.2070
 Red. masses --      4.2002                 3.8167                 1.1131
 Frc consts  --      3.2955                 3.1820                 1.1036
 IR Inten    --     48.2500                91.7918                 4.6998

                     25                     26                     27
                      A                      A                      A
 Frequencies --   1332.3701              1369.0972              1397.0677
 Red. masses --      1.8511                 7.7120                 1.2398
 Frc consts  --      1.9361                 8.5170                 1.4257
 IR Inten    --     80.0175               208.1924                29.0717

                     28                     29                     30
                      A                      A                      A
 Frequencies --   1417.0870              1524.9571              1691.4852
 Red. masses --      1.3498                 1.1073                 7.3024
 Frc consts  --      1.5970                 1.5171                12.3099
 IR Inten    --     41.9708                 3.2295                11.6189

                     31                     32                     33
                      A                      A                      A
 Frequencies --   1729.6978              2294.2990              3079.3477
 Red. masses --      8.4662                13.9768                 1.0673
 Frc consts  --     14.9238                43.3470                 5.9629
 IR Inten    --    332.0984               683.7104                29.7358

                     34                     35                     36
                      A                      A                      A
 Frequencies --   3165.8328              3197.8436              3245.3927
 Red. masses --      1.1000                 1.0897                 1.0930
 Frc consts  --      6.4959                 6.5654                 6.7826
 IR Inten    --     17.0232                 8.5947                 3.2291

 - Thermochemistry -
 -------------------
 Temperature   298.150 Kelvin.  Pressure   1.00000 Atm.
 Atom     1 has atomic number  6 and mass  12.00000

 Molecular mass:   140.03343 amu.
 Principal axes and moments of inertia in atomic units:
                           1         2         3
     Eigenvalues --   546.955841868.897982280.75764
           X            0.99996   0.00898   0.00177
           Y           -0.00901   0.99988   0.01272
           Z           -0.00166  -0.01274   0.99992
 This molecule is an asymmetric top.
 Rotational symmetry number  1.
 Warning -- assumption of classical behavior for rotation
           may cause significant error
 Rotational temperatures (Kelvin)      0.15836     0.04634     0.03798
 Rotational constants (GHZ):           3.29961     0.96567     0.79129
 Zero-point vibrational energy     247567.5 (Joules/Mol)
                                   59.17006 (Kcal/Mol)
 Warning -- explicit consideration of  11 degrees of freedom as
           vibrations may cause significant error
 Vibrational temperatures:     99.69   142.39   205.38   254.89   375.13
          (Kelvin)            491.45   553.82   631.20   758.61   772.39
                              862.20   966.59  1036.28  1118.11  1135.80
                             1234.09  1303.43  1330.03  1383.95  1477.99
                             1570.52  1660.31  1711.48  1866.39  1916.98
                             1969.83  2010.07  2038.87  2194.07  2433.67
                             2488.65  3300.98  4430.49  4554.93  4600.98
                             4669.40

 Zero-point correction=                           0.094293 (Hartree/Particle)
 Thermal correction to Energy=                    0.102668
 Thermal correction to Enthalpy=                  0.103612
 Thermal correction to Gibbs Free Energy=         0.060360
 Sum of electronic and zero-point Energies=           -524.038444
 Sum of electronic and thermal Energies=              -524.030070
 Sum of electronic and thermal Enthalpies=            -524.029125
 Sum of electronic and thermal Free Energies=         -524.072377

                     E (Thermal)             CV                S
                      KCal/Mol        Cal/Mol-Kelvin    Cal/Mol-Kelvin
 Total                   64.425             30.085             91.031
 Electronic               0.000              0.000              0.000
 Translational            0.889              2.981             40.722
 Rotational               0.889              2.981             29.235
 Vibrational             62.648             24.124             21.075
 Vibration     1          0.598              1.969              4.173
 Vibration     2          0.604              1.950              3.475
 Vibration     3          0.616              1.910              2.767
 Vibration     4          0.628              1.870              2.358
 Vibration     5          0.669              1.745              1.657
 Vibration     6          0.721              1.592              1.205
 Vibration     7          0.754              1.502              1.020
 Vibration     8          0.799              1.386              0.831
 Vibration     9          0.882              1.190              0.593
 Vibration    10          0.892              1.169              0.572
 Vibration    11          0.957              1.033              0.451

                           ! Non-Optimized Parameters !
 Normal termination of Gaussian 16 at Tue Dec  8 12:18:44 2020.

 ----------------------------------------------------------------------
 # B3LYP/6-311++G(d,p) empiricaldispersion=gd3bj scf=xqc pop=npa geom=c
 heck
 ----------------------------------------------------------------------

 --------------------------------------
 CID_151652842_JID_550_Energie_neutraal
 --------------------------------------
 Structure from the checkpoint file:  "JID_550.chk"
 Charge =  0 Multiplicity = 1

 SCF Done:  E(RB3LYP) =  -524.279849053     A.U. after   15 cycles
 Normal termination of Gaussian 16 at Tue Dec  8 12:21:54 2020.

 ----------------------------------------------------------------------
 # B3LYP/6-311++G(d,p) empiricaldispersion=gd3bj scf=xqc pop=npa geom=c
 heck
 ----------------------------------------------------------------------

 ------------------------------------
 CID_151652842_JID_550_Energie_kation
 ------------------------------------
 Structure from the checkpoint file:  "JID_550.chk"
 Charge =  1 Multiplicity = 2

 SCF Done:  E(UB3LYP) =  -523.956030735     A.U. after   23 cycles
 Normal termination of Gaussian 16 at Tue Dec  8 12:24:21 2020.
 Gaussian 16:  ES64L-G16RevA.03 25-Dec-2016

 ----------------------------------------------------------------------
 # B3LYP/6-311++G(d,p) empiricaldispersion=gd3bj scf=xqc pop=npa geom=c
 heck
 ----------------------------------------------------------------------

 -----------------------------------
 CID_151652842_JID_550_Energie_anion
 -----------------------------------
 Structure from the checkpoint file:  "JID_550.chk"
 Charge = -1 Multiplicity = 2

                         Standard orientation:
 ---------------------------------------------------------------------
 Center     Atomic      Atomic             Coordinates (Angstroms)
 Number     Number       Type             X           Y           Z
 ---------------------------------------------------------------------
      1          6           0        2.002462    1.018940    0.346987
      2          6           0        0.672968    1.452767   -0.174741
      3          6           0       -0.369192    0.645228    0.066822
      4          8           0       -0.197969   -0.527782    0.760836
      5          7           0        0.511490   -1.570420    0.021681
      6          6           0        1.704133   -1.278366   -0.356491
      7          8           0        2.491812   -0.205657   -0.285615
      8          7           0       -1.679313    0.963007   -0.308554
      9          7           0       -2.539001    0.081058   -0.130063
     10          7           0       -3.426782   -0.618201   -0.015760
     11          1           0        2.785015    1.744884    0.128110
     12          1           0        1.976164    0.836723    1.426373
     13          1           0        0.557381    2.362602   -0.749892
     14          1           0        2.203709   -2.096217   -0.872942
 ---------------------------------------------------------------------

 SCF Done:  E(UB3LYP) =  -524.278262591     A.U. after   33 cycles
 SCF Done:  E(UB3LYP) =  -524.278262591     a.u. after    1 cycles

 The electronic state is 2-A.
 Alpha  occ. eigenvalues --  -19.03743 -19.02915 -14.32707 -14.23613 -14.22749
 Alpha  occ. eigenvalues --  -14.21889 -10.13838 -10.10997 -10.09909 -10.01346
 Alpha  occ. eigenvalues --   -1.00279  -0.96720  -0.93477  -0.84290  -0.74366
 Alpha  occ. eigenvalues --   -0.64799  -0.60273  -0.50448  -0.47149  -0.42325
 Alpha  occ. eigenvalues --   -0.38647  -0.37985  -0.37168  -0.34520  -0.32567
 Alpha  occ. eigenvalues --   -0.31584  -0.30250  -0.27593  -0.25442  -0.24216
 Alpha  occ. eigenvalues --   -0.22224  -0.18793  -0.18102  -0.15092  -0.12345
 Alpha  occ. eigenvalues --   -0.08736   0.05486
 Alpha virt. eigenvalues --    0.08635   0.09456   0.09998   0.10887   0.11897
 Alpha virt. eigenvalues --    0.13326   0.14556   0.14881   0.16869   0.17073
 Alpha virt. eigenvalues --    0.17815   0.18553   0.18725   0.19782   0.20858

  Beta  occ. eigenvalues --  -19.03652 -19.02846 -14.32368 -14.23259 -14.22907
  Beta  occ. eigenvalues --  -14.21717 -10.13830 -10.10691 -10.09880 -10.01186
  Beta  occ. eigenvalues --   -0.99747  -0.96476  -0.93219  -0.84096  -0.74035
  Beta  occ. eigenvalues --   -0.64417  -0.59935  -0.50122  -0.46816  -0.42062
  Beta  occ. eigenvalues --   -0.38460  -0.37197  -0.36377  -0.34204  -0.32154
  Beta  occ. eigenvalues --   -0.30910  -0.30012  -0.27312  -0.25041  -0.24063
  Beta  occ. eigenvalues --   -0.22054  -0.18258  -0.17783  -0.14897  -0.12152
  Beta  occ. eigenvalues --   -0.07546
  Beta virt. eigenvalues --    0.08650   0.09918   0.10476   0.11078   0.11257
  Beta virt. eigenvalues --    0.12210   0.13481   0.14926   0.15643   0.16878
  Beta virt. eigenvalues --    0.17214   0.17824   0.18721   0.19058   0.19793

 Mulliken charges and spin densities:
               1          2
     1  C    1.113471  -1.771326
     2  C   -1.744495   2.284164
     3  C    0.941563  -1.293666
     4  O    0.006941  -0.004297
     5  N   -0.428934   0.163821
     6  C    0.213798  -0.237656
     7  O   -0.016580  -0.032781
     8  N    0.097183  -0.133070
     9  N    0.036275   0.127482
    10  N   -0.249466   0.245271
    11  H   -0.319915   0.486728
    12  H   -0.092662   0.279604
    13  H   -0.259937   0.408938
    14  H   -0.297241   0.476788
 Sum of Mulliken charges =  -1.00000   1.00000

 Dipole moment (field-independent basis, Debye):
    X=             -0.2883    Y=              0.5967    Z=              0.3781  Tot=              0.7630
 Quadrupole moment (field-independent basis, Debye-Ang):
   XX=            -99.2511   YY=            -76.0795   ZZ=            -69.4812
   XY=             -4.0314   XZ=              3.0190   YZ=              2.4823

 Summary of Natural Population Analysis:

                                       Natural Population
                Natural  -----------------------------------------------
    Atom  No    Charge         Core      Valence    Rydberg      Total
 -----------------------------------------------------------------------
      C    1   -0.02314      0.99955     2.00925    0.01435     3.02314
      C    2   -0.15500      0.99948     2.14598    0.00955     3.15500
      C    3    0.27776      0.99935     1.70663    0.01625     2.72224
      O    4   -0.23434      0.99986     3.22504    0.00944     4.23434
      N    5   -0.10423      0.99967     2.59167    0.01289     3.60423
      C    6    0.19957      0.99961     1.77931    0.02150     2.80043
      O    7   -0.26900      0.99987     3.25743    0.01170     4.26900
      N    8   -0.21860      0.99964     2.70616    0.01281     3.71860
      N    9    0.15627      0.99970     2.32752    0.01651     3.34373
      N   10   -0.00042      0.99981     2.48594    0.01466     3.50042
      H   11    0.09378      0.00000     0.40455    0.00167     0.40622
      H   12    0.09048      0.00000     0.40775    0.00177     0.40952
      H   13    0.10155      0.00000     0.39712    0.00133     0.39845
      H   14    0.08533      0.00000     0.41311    0.00156     0.41467
 =======================================================================
   * Total *    0.00000      9.99654    25.85747    0.14599    36.00000

 Normal termination of Gaussian 16 at Tue Dec  8 12:27:01 2020.
