 Gaussian 16, Revision A.03,

 -----------------------------------------------------------
 # opt freq B3LYP/6-31G(d) empiricaldispersion=gd3bj scf=xqc
 -----------------------------------------------------------

 -------------------------------
 CID_151364145_JID_2965_neutraal
 -------------------------------
 Symbolic Z-matrix:
 Charge =  0 Multiplicity = 1

 SCF Done:  E(RB3LYP) =  -948.025990215     A.U. after   16 cycles
 SCF Done:  E(RB3LYP) =  -948.037132003     A.U. after   15 cycles
 SCF Done:  E(RB3LYP) =  -948.038856498     A.U. after   13 cycles
 SCF Done:  E(RB3LYP) =  -948.039335194     A.U. after   13 cycles
 SCF Done:  E(RB3LYP) =  -948.039538018     A.U. after   13 cycles
 SCF Done:  E(RB3LYP) =  -948.039645507     A.U. after   12 cycles
 SCF Done:  E(RB3LYP) =  -948.039666832     A.U. after   11 cycles
 SCF Done:  E(RB3LYP) =  -948.039674741     A.U. after   11 cycles
 SCF Done:  E(RB3LYP) =  -948.039681328     A.U. after   10 cycles
 SCF Done:  E(RB3LYP) =  -948.039704728     A.U. after   12 cycles
 SCF Done:  E(RB3LYP) =  -948.040951799     A.U. after   11 cycles
 SCF Done:  E(RB3LYP) =  -948.040953164     A.U. after    9 cycles
 SCF Done:  E(RB3LYP) =  -948.040953573     A.U. after    8 cycles
 SCF Done:  E(RB3LYP) =  -948.040953759     A.U. after    8 cycles
 SCF Done:  E(RB3LYP) =  -948.040953780     A.U. after    8 cycles
 Optimization completed.
    -- Stationary point found.
 Normal termination of Gaussian 16 at Wed Dec  9 18:30:43 2020.

 --------------------------------------------------------------------
 #N Geom=AllCheck Guess=TCheck SCRF=Check GenChk RB3LYP/6-31G(d) Freq
 --------------------------------------------------------------------

 Structure from the checkpoint file:  "JID_2965.chk"
 -------------------------------
 CID_151364145_JID_2965_neutraal
 -------------------------------
 Charge =  0 Multiplicity = 1

 SCF Done:  E(RB3LYP) =  -948.040953780     A.U. after    1 cycles

  Exact polarizability: 118.902  -0.684 116.037   0.397  10.700  77.756
 Approx polarizability: 157.043  -4.658 203.353  -0.410  41.732 142.577

                      1                      2                      3
                      A                      A                      A
 Frequencies --     32.6128                46.3067                60.0889
 Red. masses --      6.1325                 5.5987                 4.0928
 Frc consts  --      0.0038                 0.0071                 0.0087
 IR Inten    --      0.4684                 1.6716                 0.6796

                      4                      5                      6
                      A                      A                      A
 Frequencies --     62.5094               104.6042               149.8968
 Red. masses --      2.8958                 4.2044                 8.8225
 Frc consts  --      0.0067                 0.0271                 0.1168
 IR Inten    --      0.0847                 1.3011                 0.5605

                      7                      8                      9
                      A                      A                      A
 Frequencies --    167.6875               177.6554               257.7371
 Red. masses --      4.0792                 4.9124                 3.0852
 Frc consts  --      0.0676                 0.0913                 0.1208
 IR Inten    --      0.7290                 1.8307                 0.0700

                     10                     11                     12
                      A                      A                      A
 Frequencies --    283.0464               313.5592               359.7453
 Red. masses --      2.9779                 2.8780                 2.9997
 Frc consts  --      0.1406                 0.1667                 0.2287
 IR Inten    --      1.1646                 2.7329                 2.6780

                     13                     14                     15
                      A                      A                      A
 Frequencies --    404.5565               405.5273               425.6441
 Red. masses --      3.5402                 6.1668                 2.5445
 Frc consts  --      0.3414                 0.5975                 0.2716
 IR Inten    --      5.0055                 3.0037                 5.7439

                     16                     17                     18
                      A                      A                      A
 Frequencies --    466.3492               529.6661               551.4860
 Red. masses --      2.2977                 6.7971                 3.7594
 Frc consts  --      0.2944                 1.1235                 0.6737
 IR Inten    --     18.8122                76.2084                63.3117

                     19                     20                     21
                      A                      A                      A
 Frequencies --    563.1303               672.3411               689.9937
 Red. masses --     12.5217                 1.8526                 2.9096
 Frc consts  --      2.3395                 0.4934                 0.8162
 IR Inten    --     11.5617                24.6266                73.0439

                     22                     23                     24
                      A                      A                      A
 Frequencies --    702.9113               762.9434               813.6853
 Red. masses --      8.9478                 1.8248                 2.1458
 Frc consts  --      2.6048                 0.6258                 0.8370
 IR Inten    --     18.8733                38.6095                 2.3122

                     25                     26                     27
                      A                      A                      A
 Frequencies --    883.5343               935.1450               946.3856
 Red. masses --      2.0133                 1.5791                 1.3533
 Frc consts  --      0.9260                 0.8136                 0.7141
 IR Inten    --     10.3168                 0.6875                34.8035

                     28                     29                     30
                      A                      A                      A
 Frequencies --    957.1482              1028.8556              1036.4644
 Red. masses --      1.9298                 1.5150                 1.1678
 Frc consts  --      1.0417                 0.9449                 0.7392
 IR Inten    --      9.3207                 1.9896                 6.3167

                     31                     32                     33
                      A                      A                      A
 Frequencies --   1053.7524              1112.3264              1127.7357
 Red. masses --      1.6390                 2.3993                 2.3869
 Frc consts  --      1.0723                 1.7490                 1.7886
 IR Inten    --      9.3452                24.5658                42.9686

                     34                     35                     36
                      A                      A                      A
 Frequencies --   1143.9405              1195.6684              1207.7853
 Red. masses --      3.2714                 1.1630                 1.4472
 Frc consts  --      2.5223                 0.9796                 1.2438
 IR Inten    --    105.1493                 3.3377                10.2474

                     37                     38                     39
                      A                      A                      A
 Frequencies --   1274.2352              1283.6546              1317.1619
 Red. masses --      1.4089                 5.8319                 1.5157
 Frc consts  --      1.3478                 5.6619                 1.5493
 IR Inten    --     19.3509               144.5377                18.9727

                     40                     41                     42
                      A                      A                      A
 Frequencies --   1337.8599              1344.6265              1364.9765
 Red. masses --      1.2984                 1.5509                 2.4154
 Frc consts  --      1.3693                 1.6521                 2.6515
 IR Inten    --     16.4507                63.4753                79.0045

                     43                     44                     45
                      A                      A                      A
 Frequencies --   1374.6369              1407.0984              1415.9431
 Red. masses --      1.3926                 1.4165                 1.4065
 Frc consts  --      1.5504                 1.6524                 1.6614
 IR Inten    --      3.8733                10.8918                 6.9219

                     46                     47                     48
                      A                      A                      A
 Frequencies --   1476.5796              1481.8511              1511.1959
 Red. masses --      1.1516                 1.1246                 1.0803
 Frc consts  --      1.4793                 1.4550                 1.4536
 IR Inten    --      0.8833                10.1516                 8.1234

                     49                     50                     51
                      A                      A                      A
 Frequencies --   1528.5777              1534.6260              1735.5593
 Red. masses --      1.0923                 1.0952                 4.4747
 Frc consts  --      1.5037                 1.5197                 7.9413
 IR Inten    --      9.3996                 2.6964                 4.8118

                     52                     53                     54
                      A                      A                      A
 Frequencies --   2267.0222              3042.1535              3060.5163
 Red. masses --     13.9809                 1.0625                 1.0645
 Frc consts  --     42.3346                 5.7936                 5.8745
 IR Inten    --    429.6690                15.2755                12.6127

                     55                     56                     57
                      A                      A                      A
 Frequencies --   3061.5033              3085.9424              3091.5202
 Red. masses --      1.0663                 1.0962                 1.0605
 Frc consts  --      5.8884                 6.1504                 5.9716
 IR Inten    --     11.2616                17.5762                 1.6434

                     58                     59                     60
                      A                      A                      A
 Frequencies --   3100.9965              3113.2385              3138.9151
 Red. masses --      1.1005                 1.1000                 1.0834
 Frc consts  --      6.2350                 6.2814                 6.2893
 IR Inten    --     33.0456                15.8811                27.7539

                     61                     62                     63
                      A                      A                      A
 Frequencies --   3150.3860              3157.9455              3237.7204
 Red. masses --      1.1047                 1.0663                 1.1157
 Frc consts  --      6.4599                 6.2652                 6.8909
 IR Inten    --      1.7829                 5.5474                18.0062

 - Thermochemistry -
 -------------------
 Temperature   298.150 Kelvin.  Pressure   1.00000 Atm.
 Atom     1 has atomic number  6 and mass  12.00000

 Molecular mass:   189.05720 amu.
 Principal axes and moments of inertia in atomic units:
                           1         2         3
     Eigenvalues --  1397.644843544.454264191.60332
           X            1.00000  -0.00199   0.00198
           Y            0.00199   0.99999  -0.00294
           Z           -0.00197   0.00294   0.99999
 This molecule is an asymmetric top.
 Rotational symmetry number  1.
 Warning -- assumption of classical behavior for rotation
           may cause significant error
 Rotational temperatures (Kelvin)      0.06197     0.02444     0.02066
 Rotational constants (GHZ):           1.29127     0.50917     0.43056
 Zero-point vibrational energy     475688.3 (Joules/Mol)
                                  113.69222 (Kcal/Mol)
 Warning -- explicit consideration of  19 degrees of freedom as
           vibrations may cause significant error
 Vibrational temperatures:     46.92    66.63    86.45    89.94   150.50
          (Kelvin)            215.67   241.26   255.61   370.83   407.24
                              451.14   517.59   582.07   583.46   612.41
                              670.97   762.07   793.47   810.22   967.35
                              992.75  1011.33  1097.71  1170.71  1271.21
                             1345.47  1361.64  1377.12  1480.29  1491.24
                             1516.11  1600.39  1622.56  1645.88  1720.30
                             1737.73  1833.34  1846.89  1895.10  1924.88
                             1934.62  1963.90  1977.80  2024.50  2037.23
                             2124.47  2132.05  2174.27  2199.28  2207.98
                             2497.08  3261.74  4376.98  4403.40  4404.82
                             4439.98  4448.01  4461.64  4479.26  4516.20
                             4532.70  4543.58  4658.36

 Zero-point correction=                           0.181180 (Hartree/Particle)
 Thermal correction to Energy=                    0.194335
 Thermal correction to Enthalpy=                  0.195279
 Thermal correction to Gibbs Free Energy=         0.139779
 Sum of electronic and zero-point Energies=           -947.859774
 Sum of electronic and thermal Energies=              -947.846619
 Sum of electronic and thermal Enthalpies=            -947.845675
 Sum of electronic and thermal Free Energies=         -947.901175

                     E (Thermal)             CV                S
                      KCal/Mol        Cal/Mol-Kelvin    Cal/Mol-Kelvin
 Total                  121.947             46.702            116.809
 Electronic               0.000              0.000              0.000
 Translational            0.889              2.981             41.616
 Rotational               0.889              2.981             31.407
 Vibrational            120.169             40.740             43.785
 Vibration     1          0.594              1.983              5.664
 Vibration     2          0.595              1.979              4.969
 Vibration     3          0.597              1.973              4.454
 Vibration     4          0.597              1.972              4.376
 Vibration     5          0.605              1.946              3.367
 Vibration     6          0.618              1.903              2.674
 Vibration     7          0.624              1.882              2.461
 Vibration     8          0.628              1.870              2.353
 Vibration     9          0.667              1.750              1.677
 Vibration    10          0.682              1.705              1.515
 Vibration    11          0.701              1.648              1.343
 Vibration    12          0.734              1.555              1.123
 Vibration    13          0.770              1.460              0.946
 Vibration    14          0.771              1.458              0.943
 Vibration    15          0.787              1.414              0.873
 Vibration    16          0.824              1.325              0.748
 Vibration    17          0.885              1.184              0.588
 Vibration    18          0.907              1.136              0.541
 Vibration    19          0.919              1.111              0.518

 Optimization completed.
    -- Stationary point found.
 Normal termination of Gaussian 16 at Wed Dec  9 18:36:27 2020.

 ----------------------------------------------------------------------
 # B3LYP/6-311++G(d,p) empiricaldispersion=gd3bj scf=xqc pop=npa geom=c
 heck
 ----------------------------------------------------------------------

 ---------------------------------------
 CID_151364145_JID_2965_Energie_neutraal
 ---------------------------------------
 Structure from the checkpoint file:  "JID_2965.chk"
 Charge =  0 Multiplicity = 1

 SCF Done:  E(RB3LYP) =  -948.227043751     A.U. after   16 cycles
 Normal termination of Gaussian 16 at Wed Dec  9 18:39:04 2020.

 ----------------------------------------------------------------------
 # B3LYP/6-311++G(d,p) empiricaldispersion=gd3bj scf=xqc pop=npa geom=c
 heck
 ----------------------------------------------------------------------

 -------------------------------------
 CID_151364145_JID_2965_Energie_kation
 -------------------------------------
 Structure from the checkpoint file:  "JID_2965.chk"
 Charge =  1 Multiplicity = 2

 SCF Done:  E(UB3LYP) =  -947.872881156     A.U. after   28 cycles
 Normal termination of Gaussian 16 at Wed Dec  9 18:45:13 2020.
 Gaussian 16:  ES64L-G16RevA.03 25-Dec-2016

 ----------------------------------------------------------------------
 # B3LYP/6-311++G(d,p) empiricaldispersion=gd3bj scf=xqc pop=npa geom=c
 heck
 ----------------------------------------------------------------------

 ------------------------------------
 CID_151364145_JID_2965_Energie_anion
 ------------------------------------
 Structure from the checkpoint file:  "JID_2965.chk"
 Charge = -1 Multiplicity = 2

                         Standard orientation:
 ---------------------------------------------------------------------
 Center     Atomic      Atomic             Coordinates (Angstroms)
 Number     Number       Type             X           Y           Z
 ---------------------------------------------------------------------
      1          6           0       -4.559930    0.055443   -0.423139
      2          6           0       -3.268945   -0.254943   -0.540421
      3          6           0       -2.129984    0.665770   -0.196767
      4          6           0       -1.359642    0.242423    1.070916
      5          6           0       -0.784931   -1.180827    1.048642
      6          6           0        0.139156   -1.530279   -0.117807
      7         16           0        1.713366   -0.625698   -0.125555
      8          8           0        2.095124   -0.252613    1.237605
      9          8           0        2.633796   -1.310077   -1.024641
     10          7           0        1.223245    0.847814   -0.991687
     11          7           0        1.348922    1.868077   -0.294120
     12          7           0        1.428850    2.843876    0.282200
     13          1           0       -4.879267    1.035583   -0.074342
     14          1           0       -5.346312   -0.650662   -0.674980
     15          1           0       -3.000928   -1.249459   -0.900346
     16          1           0       -1.432628    0.725537   -1.043179
     17          1           0       -2.516252    1.680150   -0.042317
     18          1           0       -0.557897    0.962727    1.269158
     19          1           0       -2.039964    0.305413    1.928279
     20          1           0       -0.246789   -1.366960    1.983287
     21          1           0       -1.607653   -1.905230    1.010677
     22          1           0        0.461147   -2.575561   -0.071392
     23          1           0       -0.300137   -1.352763   -1.102976
 ---------------------------------------------------------------------

 SCF Done:  E(UB3LYP) =  -948.242764986     A.U. after   33 cycles
 SCF Done:  E(UB3LYP) =  -948.242764986     a.u. after    1 cycles

 The electronic state is 2-A.
 Alpha  occ. eigenvalues --  -88.89631 -18.98246 -18.98087 -14.27775 -14.20126
 Alpha  occ. eigenvalues --  -14.18974 -10.08826 -10.08710 -10.07655 -10.07296
 Alpha  occ. eigenvalues --  -10.07034 -10.06595  -7.96335  -5.92571  -5.92518
 Alpha  occ. eigenvalues --   -5.92377  -0.98558  -0.95553  -0.87459  -0.80268
 Alpha  occ. eigenvalues --   -0.72093  -0.68683  -0.63345  -0.57730  -0.52999
 Alpha  occ. eigenvalues --   -0.48859  -0.45238  -0.41531  -0.38605  -0.37598
 Alpha  occ. eigenvalues --   -0.35773  -0.35194  -0.34139  -0.33251  -0.32093
 Alpha  occ. eigenvalues --   -0.31608  -0.30154  -0.28820  -0.28109  -0.27406
 Alpha  occ. eigenvalues --   -0.24396  -0.24196  -0.23366  -0.22926  -0.19613
 Alpha  occ. eigenvalues --   -0.18649  -0.17808  -0.17296  -0.14672  -0.11227
 Alpha  occ. eigenvalues --    0.04713
 Alpha virt. eigenvalues --    0.06467   0.08045   0.08375   0.08890   0.10009
 Alpha virt. eigenvalues --    0.10846   0.11653   0.12644   0.12998   0.13773
 Alpha virt. eigenvalues --    0.14815   0.15331   0.16415   0.16814   0.17491

  Beta  occ. eigenvalues --  -88.89452 -18.98181 -18.98028 -14.27268 -14.20113
  Beta  occ. eigenvalues --  -14.18141 -10.08768 -10.08703 -10.07651 -10.07288
  Beta  occ. eigenvalues --  -10.07034 -10.06594  -7.96139  -5.92426  -5.92244
  Beta  occ. eigenvalues --   -5.92144  -0.98087  -0.94622  -0.87288  -0.79584
  Beta  occ. eigenvalues --   -0.72063  -0.68601  -0.63220  -0.57480  -0.52457
  Beta  occ. eigenvalues --   -0.48546  -0.45145  -0.41229  -0.38540  -0.37452
  Beta  occ. eigenvalues --   -0.35478  -0.34586  -0.33270  -0.32876  -0.31778
  Beta  occ. eigenvalues --   -0.30960  -0.30010  -0.28460  -0.27396  -0.26482
  Beta  occ. eigenvalues --   -0.24340  -0.23539  -0.23227  -0.22804  -0.19192
  Beta  occ. eigenvalues --   -0.18416  -0.17702  -0.17256  -0.13405  -0.10876
  Beta virt. eigenvalues --    0.06608   0.08233   0.08381   0.08843   0.09979
  Beta virt. eigenvalues --    0.10867   0.11696   0.12395   0.12905   0.13027
  Beta virt. eigenvalues --    0.14003   0.14911   0.15465   0.16444   0.16910

 Mulliken charges and spin densities:
               1          2
     1  C   -0.308121  -0.378484
     2  C    0.125424   0.191232
     3  C   -0.351153  -0.066046
     4  C    0.022103  -0.118139
     5  C   -0.355001  -0.119935
     6  C   -0.519755  -0.160335
     7  S    0.486802   0.113395
     8  O   -0.318571   0.016705
     9  O   -0.201941   0.029269
    10  N   -0.518083   0.016356
    11  N    0.385758   0.110736
    12  N   -0.379240   0.480701
    13  H    0.081648   0.020481
    14  H    0.006574   0.103500
    15  H   -0.013504   0.191422
    16  H    0.146575  -0.002190
    17  H    0.169157  -0.000747
    18  H    0.122773   0.025929
    19  H    0.151104  -0.012778
    20  H    0.165047   0.043057
    21  H   -0.045239   0.179219
    22  H   -0.126866   0.362685
    23  H    0.274510  -0.026033
 Sum of Mulliken charges =  -1.00000   1.00000

 Dipole moment (field-independent basis, Debye):
    X=             -6.2618    Y=             -1.6490    Z=              0.3262  Tot=              6.4835
 Quadrupole moment (field-independent basis, Debye-Ang):
   XX=           -119.9994   YY=           -111.4531   ZZ=            -96.1455
   XY=             -5.2136   XZ=             -0.8539   YZ=             -2.8436

 Summary of Natural Population Analysis:

                                       Natural Population
                Natural  -----------------------------------------------
    Atom  No    Charge         Core      Valence    Rydberg      Total
 -----------------------------------------------------------------------
      C    1   -0.20318      0.99957     2.19684    0.00677     3.20318
      C    2   -0.07676      0.99957     2.06608    0.01111     3.07676
      C    3   -0.21747      0.99961     2.20899    0.00887     3.21747
      C    4   -0.19017      0.99962     2.18113    0.00942     3.19017
      C    5   -0.20342      0.99962     2.19325    0.01055     3.20342
      C    6   -0.28604      0.99957     2.27416    0.01231     3.28604
      S    7    1.10161      4.99932     1.80088    0.09820     6.89839
      O    8   -0.46330      0.99991     3.45736    0.00604     4.46330
      O    9   -0.46101      0.99990     3.45548    0.00562     4.46101
      N   10   -0.33611      0.99974     2.82127    0.01510     3.83611
      N   11    0.14144      0.99971     2.34347    0.01539     3.35856
      N   12    0.07015      0.99981     2.41713    0.01291     3.42985
      H   13    0.08778      0.00000     0.41106    0.00116     0.41222
      H   14    0.09082      0.00000     0.40810    0.00109     0.40918
      H   15    0.09177      0.00000     0.40699    0.00124     0.40823
      H   16    0.11457      0.00000     0.38402    0.00141     0.38543
      H   17    0.09822      0.00000     0.40058    0.00120     0.40178
      H   18    0.11218      0.00000     0.38664    0.00118     0.38782
      H   19    0.09340      0.00000     0.40558    0.00102     0.40660
      H   20    0.10956      0.00000     0.38930    0.00114     0.39044
      H   21    0.09822      0.00000     0.40060    0.00118     0.40178
      H   22    0.11463      0.00000     0.38363    0.00174     0.38537
      H   23    0.11313      0.00000     0.38585    0.00102     0.38687
 =======================================================================
   * Total *   -0.00000     15.99595    33.77839    0.22565    50.00000

 Normal termination of Gaussian 16 at Wed Dec  9 18:52:23 2020.
