 Gaussian 16, Revision A.03,

 -----------------------------------------------------------
 # opt freq B3LYP/6-31G(d) empiricaldispersion=gd3bj scf=xqc
 -----------------------------------------------------------

 ------------------------------
 CID_22828824_JID_5658_neutraal
 ------------------------------
 Symbolic Z-matrix:
 Charge =  0 Multiplicity = 1

 SCF Done:  E(RB3LYP) =  -726.113821781     A.U. after   15 cycles
 SCF Done:  E(RB3LYP) =  -726.118480632     A.U. after   14 cycles
 SCF Done:  E(RB3LYP) =  -726.120157625     A.U. after   14 cycles
 SCF Done:  E(RB3LYP) =  -726.121158803     A.U. after   15 cycles
 SCF Done:  E(RB3LYP) =  -726.122376852     A.U. after   13 cycles
 SCF Done:  E(RB3LYP) =  -726.122624367     A.U. after   13 cycles
 SCF Done:  E(RB3LYP) =  -726.122763020     A.U. after   12 cycles
 SCF Done:  E(RB3LYP) =  -726.122717067     A.U. after   12 cycles
 SCF Done:  E(RB3LYP) =  -726.122793350     A.U. after   11 cycles
 SCF Done:  E(RB3LYP) =  -726.122819470     A.U. after   11 cycles
 SCF Done:  E(RB3LYP) =  -726.122876951     A.U. after   10 cycles
 SCF Done:  E(RB3LYP) =  -726.122879679     A.U. after    9 cycles
 SCF Done:  E(RB3LYP) =  -726.122880355     A.U. after   10 cycles
 SCF Done:  E(RB3LYP) =  -726.122880472     A.U. after    8 cycles
 SCF Done:  E(RB3LYP) =  -726.122880561     A.U. after    7 cycles
 SCF Done:  E(RB3LYP) =  -726.122880577     A.U. after    7 cycles
 Optimization completed.
    -- Stationary point found.
 Normal termination of Gaussian 16 at Thu Dec 10 16:34:09 2020.

 --------------------------------------------------------------------
 #N Geom=AllCheck Guess=TCheck SCRF=Check GenChk RB3LYP/6-31G(d) Freq
 --------------------------------------------------------------------

 Structure from the checkpoint file:  "JID_5658.chk"
 ------------------------------
 CID_22828824_JID_5658_neutraal
 ------------------------------
 Charge =  0 Multiplicity = 1

 SCF Done:  E(RB3LYP) =  -726.122880577     A.U. after    1 cycles

  Exact polarizability: 225.510  -1.481 127.070  -1.102  -8.560  63.020
 Approx polarizability: 357.188  14.827 206.374  -2.768 -23.068 105.019

                      1                      2                      3
                      A                      A                      A
 Frequencies --     27.2087                35.9747                64.6736
 Red. masses --      7.6915                 4.2327                 6.2000
 Frc consts  --      0.0034                 0.0032                 0.0153
 IR Inten    --      0.7308                 1.9791                 0.1374

                      4                      5                      6
                      A                      A                      A
 Frequencies --     78.3195               115.0532               157.4315
 Red. masses --      5.3060                 6.2922                 5.2818
 Frc consts  --      0.0192                 0.0491                 0.0771
 IR Inten    --      4.2410                 3.9796                 0.0663

                      7                      8                      9
                      A                      A                      A
 Frequencies --    163.4840               166.6588               210.5104
 Red. masses --      1.2089                 4.1699                 5.8322
 Frc consts  --      0.0190                 0.0682                 0.1523
 IR Inten    --      0.5742                 3.3539                 0.5253

                     10                     11                     12
                      A                      A                      A
 Frequencies --    254.8783               301.8822               376.1321
 Red. masses --      5.5015                 7.3661                 3.9748
 Frc consts  --      0.2106                 0.3955                 0.3313
 IR Inten    --      1.3678                 0.7395                 2.0986

                     13                     14                     15
                      A                      A                      A
 Frequencies --    380.5390               398.3075               419.6237
 Red. masses --      3.9293                 1.1393                 3.6142
 Frc consts  --      0.3352                 0.1065                 0.3750
 IR Inten    --      1.9100               120.4196                 6.1006

                     16                     17                     18
                      A                      A                      A
 Frequencies --    424.6540               501.7911               519.6300
 Red. masses --      3.3186                 3.5106                 3.8145
 Frc consts  --      0.3526                 0.5208                 0.6068
 IR Inten    --      7.0857                 8.5129                10.0406

                     19                     20                     21
                      A                      A                      A
 Frequencies --    557.3616               562.6398               577.0285
 Red. masses --      2.9161                 3.0911                 4.0830
 Frc consts  --      0.5337                 0.5765                 0.8010
 IR Inten    --     25.6531                17.3576                45.6005

                     22                     23                     24
                      A                      A                      A
 Frequencies --    635.0848               660.6402               675.2100
 Red. masses --      1.9924                 5.3251                 3.2090
 Frc consts  --      0.4735                 1.3693                 0.8620
 IR Inten    --     86.9713                12.2703                 2.1836

                     25                     26                     27
                      A                      A                      A
 Frequencies --    727.3043               742.8407               788.9064
 Red. masses --      4.1600                 4.0016                 5.1387
 Frc consts  --      1.2965                 1.3010                 1.8843
 IR Inten    --      0.4169                18.6950                 4.6240

                     28                     29                     30
                      A                      A                      A
 Frequencies --    821.6339               825.8023               843.0256
 Red. masses --      1.4989                 3.1474                 1.5808
 Frc consts  --      0.5962                 1.2646                 0.6619
 IR Inten    --      9.2298                14.6459                38.2683

                     31                     32                     33
                      A                      A                      A
 Frequencies --    881.7740               933.9445               954.9576
 Red. masses --      5.4022                 1.3502                 3.3309
 Frc consts  --      2.4748                 0.6939                 1.7897
 IR Inten    --      2.4095                13.6955                18.9621

                     34                     35                     36
                      A                      A                      A
 Frequencies --    964.7799               974.2739              1033.6246
 Red. masses --      1.3382                 1.3406                 2.6853
 Frc consts  --      0.7339                 0.7498                 1.6903
 IR Inten    --      2.8926                 3.6608                 1.1767

                     37                     38                     39
                      A                      A                      A
 Frequencies --   1057.2040              1059.1588              1148.7531
 Red. masses --      1.8028                 2.1514                 1.4134
 Frc consts  --      1.1872                 1.4220                 1.0989
 IR Inten    --      4.2244                45.3588                34.7386

                     40                     41                     42
                      A                      A                      A
 Frequencies --   1194.3381              1211.0146              1221.4220
 Red. masses --      2.5153                 1.4587                 1.1597
 Frc consts  --      2.1140                 1.2604                 1.0193
 IR Inten    --    367.0647               314.8747                13.1075

                     43                     44                     45
                      A                      A                      A
 Frequencies --   1257.1328              1287.3338              1327.5613
 Red. masses --      2.0926                 4.0126                 3.8954
 Frc consts  --      1.9485                 3.9179                 4.0449
 IR Inten    --     64.4435               159.6040               164.9094

                     46                     47                     48
                      A                      A                      A
 Frequencies --   1341.6535              1375.6659              1396.4548
 Red. masses --      1.9493                 2.0180                 2.0190
 Frc consts  --      2.0674                 2.2501                 2.3197
 IR Inten    --     10.8304                57.3517                64.2408

                     49                     50                     51
                      A                      A                      A
 Frequencies --   1407.8472              1448.9543              1490.2894
 Red. masses --      1.3480                 1.9722                 2.4974
 Frc consts  --      1.5741                 2.4395                 3.2680
 IR Inten    --     29.5091                59.6206                72.8630

                     52                     53                     54
                      A                      A                      A
 Frequencies --   1503.1447              1509.7971              1569.3279
 Red. masses --      1.0957                 1.0476                 2.5982
 Frc consts  --      1.4586                 1.4070                 3.7701
 IR Inten    --      0.9088                 9.1530                67.7861

                     55                     56                     57
                      A                      A                      A
 Frequencies --   1638.0754              1665.3944              1691.8043
 Red. masses --      5.5091                 5.8846                 6.9986
 Frc consts  --      8.7097                 9.6161                11.8022
 IR Inten    --      3.5389               435.0602                37.8231

                     58                     59                     60
                      A                      A                      A
 Frequencies --   1758.2495              1829.6472              3057.8397
 Red. masses --     10.8342                10.0458                 1.0379
 Frc consts  --     19.7336                19.8139                 5.7178
 IR Inten    --    217.8996               254.0391                 2.9424

                     61                     62                     63
                      A                      A                      A
 Frequencies --   3119.5164              3170.8897              3174.2303
 Red. masses --      1.1005                 1.0977                 1.0897
 Frc consts  --      6.3100                 6.5026                 6.4690
 IR Inten    --      9.4943                15.0399                 2.0960

                     64                     65                     66
                      A                      A                      A
 Frequencies --   3174.6149              3187.8185              3223.6080
 Red. masses --      1.0904                 1.0889                 1.0934
 Frc consts  --      6.4746                 6.5195                 6.6943
 IR Inten    --     22.0988                10.6314                 7.6535

                     67                     68                     69
                      A                      A                      A
 Frequencies --   3257.2226              3672.0063              3746.3043
 Red. masses --      1.0917                 1.0636                 1.0659
 Frc consts  --      6.8240                 8.4493                 8.8141
 IR Inten    --      5.9635                51.5156                72.9204

 - Thermochemistry -
 -------------------
 Temperature   298.150 Kelvin.  Pressure   1.00000 Atm.
 Atom     1 has atomic number  6 and mass  12.00000

 Molecular mass:   206.05791 amu.
 Principal axes and moments of inertia in atomic units:
                           1         2         3
     Eigenvalues --  1398.368505834.610766882.12595
           X            0.99984  -0.01786   0.00061
           Y            0.01786   0.99984   0.00140
           Z           -0.00063  -0.00139   1.00000
 This molecule is an asymmetric top.
 Rotational symmetry number  1.
 Warning -- assumption of classical behavior for rotation
           may cause significant error
 Rotational temperatures (Kelvin)      0.06194     0.01484     0.01259
 Rotational constants (GHZ):           1.29060     0.30932     0.26224
 Zero-point vibrational energy     502024.0 (Joules/Mol)
                                  119.98662 (Kcal/Mol)
 Warning -- explicit consideration of  21 degrees of freedom as
           vibrations may cause significant error
 Vibrational temperatures:     39.15    51.76    93.05   112.68   165.54
          (Kelvin)            226.51   235.22   239.78   302.88   366.71
                              434.34   541.17   547.51   573.08   603.74
                              610.98   721.97   747.63   801.92   809.51
                              830.22   913.75   950.51   971.48  1046.43
                             1068.78  1135.06  1182.15  1188.15  1212.93
                             1268.68  1343.74  1373.97  1388.10  1401.76
                             1487.16  1521.08  1523.89  1652.80  1718.39
                             1742.38  1757.35  1808.73  1852.19  1910.06
                             1930.34  1979.28  2009.19  2025.58  2084.72
                             2144.19  2162.69  2172.26  2257.91  2356.83
                             2396.13  2434.13  2529.73  2632.45  4399.55
                             4488.29  4562.20  4567.01  4567.56  4586.56
                             4638.05  4686.42  5283.20  5390.10

 Zero-point correction=                           0.191211 (Hartree/Particle)
 Thermal correction to Energy=                    0.205289
 Thermal correction to Enthalpy=                  0.206233
 Thermal correction to Gibbs Free Energy=         0.148668
 Sum of electronic and zero-point Energies=           -725.931670
 Sum of electronic and thermal Energies=              -725.917592
 Sum of electronic and thermal Enthalpies=            -725.916648
 Sum of electronic and thermal Free Energies=         -725.974213

                     E (Thermal)             CV                S
                      KCal/Mol        Cal/Mol-Kelvin    Cal/Mol-Kelvin
 Total                  128.821             52.094            121.156
 Electronic               0.000              0.000              0.000
 Translational            0.889              2.981             41.873
 Rotational               0.889              2.981             32.396
 Vibrational            127.043             46.132             46.887
 Vibration     1          0.593              1.984              6.023
 Vibration     2          0.594              1.982              5.469
 Vibration     3          0.597              1.971              4.309
 Vibration     4          0.600              1.964              3.933
 Vibration     5          0.608              1.937              3.182
 Vibration     6          0.621              1.894              2.580
 Vibration     7          0.623              1.887              2.509
 Vibration     8          0.624              1.883              2.473
 Vibration     9          0.643              1.825              2.039
 Vibration    10          0.665              1.755              1.697
 Vibration    11          0.694              1.670              1.406
 Vibration    12          0.747              1.521              1.055
 Vibration    13          0.750              1.512              1.037
 Vibration    14          0.765              1.474              0.969
 Vibration    15          0.782              1.428              0.893
 Vibration    16          0.787              1.417              0.876
 Vibration    17          0.857              1.246              0.654
 Vibration    18          0.875              1.207              0.611
 Vibration    19          0.913              1.124              0.529
 Vibration    20          0.918              1.112              0.519
 Vibration    21          0.933              1.081              0.491

 Optimization completed.
    -- Stationary point found.
 Normal termination of Gaussian 16 at Thu Dec 10 16:41:55 2020.

 ----------------------------------------------------------------------
 # B3LYP/6-311++G(d,p) empiricaldispersion=gd3bj scf=xqc pop=npa geom=c
 heck
 ----------------------------------------------------------------------

 --------------------------------------
 CID_22828824_JID_5658_Energie_neutraal
 --------------------------------------
 Structure from the checkpoint file:  "JID_5658.chk"
 Charge =  0 Multiplicity = 1

 SCF Done:  E(RB3LYP) =  -726.344592970     A.U. after   15 cycles
 Normal termination of Gaussian 16 at Thu Dec 10 16:45:26 2020.

 ----------------------------------------------------------------------
 # B3LYP/6-311++G(d,p) empiricaldispersion=gd3bj scf=xqc pop=npa geom=c
 heck
 ----------------------------------------------------------------------

 ------------------------------------
 CID_22828824_JID_5658_Energie_kation
 ------------------------------------
 Structure from the checkpoint file:  "JID_5658.chk"
 Charge =  1 Multiplicity = 2

 SCF Done:  E(UB3LYP) =  -726.042424596     A.U. after   27 cycles
 Normal termination of Gaussian 16 at Thu Dec 10 16:53:43 2020.
 Gaussian 16:  ES64L-G16RevA.03 25-Dec-2016

 ----------------------------------------------------------------------
 # B3LYP/6-311++G(d,p) empiricaldispersion=gd3bj scf=xqc pop=npa geom=c
 heck
 ----------------------------------------------------------------------

 -----------------------------------
 CID_22828824_JID_5658_Energie_anion
 -----------------------------------
 Structure from the checkpoint file:  "JID_5658.chk"
 Charge = -1 Multiplicity = 2

                         Standard orientation:
 ---------------------------------------------------------------------
 Center     Atomic      Atomic             Coordinates (Angstroms)
 Number     Number       Type             X           Y           Z
 ---------------------------------------------------------------------
      1          6           0        3.229089   -2.227561   -0.157059
      2          6           0        3.056896   -0.718819   -0.099712
      3          8           0        4.029822    0.023376   -0.099114
      4          6           0        1.690312   -0.135490   -0.056420
      5          6           0        0.571458   -0.894838   -0.109851
      6          6           0       -0.840618   -0.535338   -0.088142
      7          6           0       -1.349511    0.745631   -0.379659
      8          6           0       -2.713548    0.997737   -0.325728
      9          6           0       -3.609646   -0.021752    0.019878
     10          6           0       -3.128826   -1.307105    0.295747
     11          6           0       -1.766634   -1.551421    0.229872
     12          8           0       -4.954375    0.173753    0.090167
     13          6           0        1.703530    1.361972    0.049294
     14          8           0        1.482148    2.138905   -0.854744
     15          8           0        2.001406    1.761218    1.302012
     16          1           0        4.297847   -2.446319   -0.166769
     17          1           0        2.768504   -2.645785   -1.059192
     18          1           0        2.767454   -2.714508    0.709379
     19          1           0        0.736204   -1.969802   -0.141292
     20          1           0       -0.680721    1.539172   -0.685784
     21          1           0       -3.089119    1.990358   -0.566042
     22          1           0       -3.834251   -2.090657    0.550570
     23          1           0       -1.398565   -2.551989    0.442103
     24          1           0       -5.153656    1.097802   -0.128250
     25          1           0        2.059288    2.735615    1.269385
 ---------------------------------------------------------------------

 SCF Done:  E(UB3LYP) =  -726.373671668     A.U. after   26 cycles

 The electronic state is 2-A.
 Alpha  occ. eigenvalues --  -19.04530 -19.04223 -18.98139 -18.93033 -10.17196
 Alpha  occ. eigenvalues --  -10.10290 -10.08506 -10.05171 -10.04745 -10.04571
 Alpha  occ. eigenvalues --  -10.04161 -10.03678 -10.03671 -10.01948 -10.01856
 Alpha  occ. eigenvalues --   -0.98094  -0.95706  -0.88932  -0.87235  -0.72915
 Alpha  occ. eigenvalues --   -0.66337  -0.62687  -0.61600  -0.59049  -0.53267
 Alpha  occ. eigenvalues --   -0.50343  -0.48638  -0.44566  -0.42907  -0.39788
 Alpha  occ. eigenvalues --   -0.36485  -0.35994  -0.35661  -0.33532  -0.32209
 Alpha  occ. eigenvalues --   -0.30651  -0.30264  -0.30124  -0.29723  -0.29413
 Alpha  occ. eigenvalues --   -0.27710  -0.27207  -0.25202  -0.24440  -0.23275
 Alpha  occ. eigenvalues --   -0.22550  -0.21780  -0.21359  -0.19139  -0.16065
 Alpha  occ. eigenvalues --   -0.14644  -0.13672  -0.09428  -0.08803   0.02999
 Alpha virt. eigenvalues --    0.07086   0.08885   0.09461   0.09970   0.10418
 Alpha virt. eigenvalues --    0.11110   0.12033   0.12327   0.13278   0.13941
 Alpha virt. eigenvalues --    0.14344   0.15053   0.15715   0.16178   0.16513

  Beta  occ. eigenvalues --  -19.04454 -19.04213 -18.98104 -18.92563 -10.17195
  Beta  occ. eigenvalues --  -10.10003 -10.08319 -10.05272 -10.04823 -10.04427
  Beta  occ. eigenvalues --  -10.04198 -10.03697 -10.03449 -10.01722 -10.01499
  Beta  occ. eigenvalues --   -0.98056  -0.95508  -0.88877  -0.86416  -0.72665
  Beta  occ. eigenvalues --   -0.65719  -0.62518  -0.61240  -0.58898  -0.52741
  Beta  occ. eigenvalues --   -0.50185  -0.48387  -0.44037  -0.42767  -0.39530
  Beta  occ. eigenvalues --   -0.36271  -0.35892  -0.35520  -0.33368  -0.32057
  Beta  occ. eigenvalues --   -0.30563  -0.29746  -0.29651  -0.29481  -0.29254
  Beta  occ. eigenvalues --   -0.27611  -0.26859  -0.25089  -0.24128  -0.22788
  Beta  occ. eigenvalues --   -0.22030  -0.21412  -0.20041  -0.18856  -0.15375
  Beta  occ. eigenvalues --   -0.13489  -0.13105  -0.08992  -0.07288
  Beta virt. eigenvalues --    0.07085   0.08867   0.09013   0.09580   0.09961
  Beta virt. eigenvalues --    0.10791   0.11146   0.12174   0.12558   0.13505
  Beta virt. eigenvalues --    0.14316   0.14824   0.15166   0.15732   0.16186

 Mulliken charges and spin densities:
               1          2
     1  C   -0.453492  -0.010483
     2  C   -0.087823   0.133749
     3  O   -0.366114   0.163238
     4  C    0.497417   0.095931
     5  C   -0.123971   0.326174
     6  C    0.857262  -0.077040
     7  C   -1.222241   0.189022
     8  C    0.003548  -0.083800
     9  C   -0.307462   0.177420
    10  C   -0.374899  -0.049839
    11  C    0.308138   0.132072
    12  O   -0.267567   0.015298
    13  C   -0.582435  -0.022869
    14  O   -0.239510   0.009808
    15  O   -0.056639  -0.000160
    16  H    0.159772  -0.000840
    17  H    0.123018   0.012202
    18  H    0.115918   0.010783
    19  H    0.026715  -0.025329
    20  H    0.148968  -0.012713
    21  H    0.099514   0.006004
    22  H    0.139288   0.002850
    23  H    0.125888  -0.001783
    24  H    0.247236  -0.000338
    25  H    0.229469   0.010644
 Sum of Mulliken charges =  -1.00000   1.00000

 Dipole moment (field-independent basis, Debye):
    X=             -5.3423    Y=              0.2777    Z=              1.1127  Tot=              5.4640
 Quadrupole moment (field-independent basis, Debye-Ang):
   XX=           -144.3739   YY=            -90.0142   ZZ=            -98.6449
   XY=            -10.3052   XZ=              4.2488   YZ=              3.6342

 Summary of Natural Population Analysis:

                                       Natural Population
                Natural  -----------------------------------------------
    Atom  No    Charge         Core      Valence    Rydberg      Total
 -----------------------------------------------------------------------
      C    1   -0.33158      0.99964     2.32769    0.00425     3.33158
      C    2    0.28520      0.99965     1.69481    0.02033     2.71480
      O    3   -0.26185      0.99988     3.25434    0.00763     4.26185
      C    4   -0.09244      0.99939     2.08223    0.01082     3.09244
      C    5    0.01588      0.99950     1.97655    0.00806     2.98412
      C    6   -0.06037      0.99952     2.05232    0.00852     3.06037
      C    7   -0.03804      0.99954     2.03021    0.00829     3.03804
      C    8   -0.17090      0.99954     2.16245    0.00891     3.17090
      C    9    0.20057      0.99940     1.78801    0.01202     2.79943
      C   10   -0.15883      0.99953     2.15003    0.00926     3.15883
      C   11   -0.04806      0.99955     2.04039    0.00813     3.04806
      O   12   -0.33986      0.99988     3.33382    0.00616     4.33986
      C   13    0.42001      0.99967     1.55338    0.02694     2.57999
      O   14   -0.31572      0.99986     3.30886    0.00700     4.31572
      O   15   -0.33789      0.99987     3.33077    0.00724     4.33789
      H   16    0.10227      0.00000     0.39603    0.00170     0.39773
      H   17    0.10226      0.00000     0.39660    0.00114     0.39774
      H   18    0.10150      0.00000     0.39736    0.00115     0.39850
      H   19    0.08531      0.00000     0.41313    0.00156     0.41469
      H   20    0.10783      0.00000     0.39043    0.00174     0.39217
      H   21    0.09021      0.00000     0.40857    0.00122     0.40979
      H   22    0.09813      0.00000     0.40075    0.00112     0.40187
      H   23    0.09096      0.00000     0.40755    0.00149     0.40904
      H   24    0.22700      0.00000     0.27055    0.00245     0.27300
      H   25    0.22839      0.00000     0.26679    0.00482     0.27161
 =======================================================================
   * Total *    0.00000     14.99442    38.83364    0.17195    54.00000

 Normal termination of Gaussian 16 at Thu Dec 10 17:02:10 2020.
