 Gaussian 16, Revision A.03,

 -----------------------------------------------------------
 # opt freq B3LYP/6-31G(d) empiricaldispersion=gd3bj scf=xqc
 -----------------------------------------------------------

 -------------------------------
 CID_105484850_JID_7283_neutraal
 -------------------------------
 Symbolic Z-matrix:
 Charge =  0 Multiplicity = 1

 SCF Done:  E(RB3LYP) =  -708.044120099     A.U. after   14 cycles
 SCF Done:  E(RB3LYP) =  -708.048011958     A.U. after   11 cycles
 SCF Done:  E(RB3LYP) =  -708.048323500     A.U. after   11 cycles
 SCF Done:  E(RB3LYP) =  -708.048433493     A.U. after   11 cycles
 SCF Done:  E(RB3LYP) =  -708.048493591     A.U. after   10 cycles
 SCF Done:  E(RB3LYP) =  -708.048585517     A.U. after   11 cycles
 SCF Done:  E(RB3LYP) =  -708.048620900     A.U. after   11 cycles
 SCF Done:  E(RB3LYP) =  -708.048651319     A.U. after   10 cycles
 SCF Done:  E(RB3LYP) =  -708.048703243     A.U. after   11 cycles
 SCF Done:  E(RB3LYP) =  -708.048735706     A.U. after   11 cycles
 SCF Done:  E(RB3LYP) =  -708.049171147     A.U. after    7 cycles
 SCF Done:  E(RB3LYP) =  -708.049171231     A.U. after    8 cycles
 SCF Done:  E(RB3LYP) =  -708.049171254     A.U. after    8 cycles
 SCF Done:  E(RB3LYP) =  -708.049171267     A.U. after    6 cycles
 SCF Done:  E(RB3LYP) =  -708.049171270     A.U. after    6 cycles
 Optimization completed.
    -- Stationary point found.
 Normal termination of Gaussian 16 at Fri Dec 11 12:33:24 2020.

 --------------------------------------------------------------------
 #N Geom=AllCheck Guess=TCheck SCRF=Check GenChk RB3LYP/6-31G(d) Freq
 --------------------------------------------------------------------

 Structure from the checkpoint file:  "JID_7283.chk"
 -------------------------------
 CID_105484850_JID_7283_neutraal
 -------------------------------
 Charge =  0 Multiplicity = 1

 SCF Done:  E(RB3LYP) =  -708.049171270     A.U. after    1 cycles

  Exact polarizability: 273.807  -7.631 154.455  -7.834 -10.527  90.050
 Approx polarizability: 349.217 -12.611 268.452 -15.455 -28.394 141.355

                      1                      2                      3
                      A                      A                      A
 Frequencies --     11.4355                17.4384                22.2647
 Red. masses --      1.2109                 2.4279                 3.6786
 Frc consts  --      0.0001                 0.0004                 0.0011
 IR Inten    --      1.0485                 0.7734                 0.2045

                      4                      5                      6
                      A                      A                      A
 Frequencies --     43.5195                67.9063                74.0586
 Red. masses --      2.3193                 3.8961                 3.8933
 Frc consts  --      0.0026                 0.0106                 0.0126
 IR Inten    --      1.0882                 0.6432                 0.5084

                      7                      8                      9
                      A                      A                      A
 Frequencies --    120.8115               170.2521               203.9512
 Red. masses --      3.4906                 4.1646                 3.8986
 Frc consts  --      0.0300                 0.0711                 0.0955
 IR Inten    --      2.1015                 1.9695                 0.5887

                     10                     11                     12
                      A                      A                      A
 Frequencies --    241.1708               279.2312               326.8835
 Red. masses --      4.9208                 2.1782                 3.4915
 Frc consts  --      0.1686                 0.1001                 0.2198
 IR Inten    --      0.2750                 7.5657                 1.4145

                     13                     14                     15
                      A                      A                      A
 Frequencies --    344.1455               396.2013               404.7588
 Red. masses --      3.7335                 5.3101                 4.3159
 Frc consts  --      0.2605                 0.4911                 0.4166
 IR Inten    --      2.7697                 0.2424                 1.1667

                     16                     17                     18
                      A                      A                      A
 Frequencies --    410.1833               484.2063               504.9426
 Red. masses --      2.9107                 1.8063                 2.7986
 Frc consts  --      0.2885                 0.2495                 0.4204
 IR Inten    --      1.0210                27.2880                15.0231

                     19                     20                     21
                      A                      A                      A
 Frequencies --    525.2870               531.9565               628.0029
 Red. masses --      2.1425                 2.4251                 5.0333
 Frc consts  --      0.3483                 0.4043                 1.1696
 IR Inten    --     18.6723                17.8848                 2.4056

                     22                     23                     24
                      A                      A                      A
 Frequencies --    657.7974               664.1733               676.7738
 Red. masses --      6.8925                 2.9315                 3.4001
 Frc consts  --      1.7571                 0.7619                 0.9176
 IR Inten    --      0.2576                 4.8120                 5.5354

                     25                     26                     27
                      A                      A                      A
 Frequencies --    715.5720               738.1633               773.7993
 Red. masses --      4.5999                 3.3627                 2.0893
 Frc consts  --      1.3877                 1.0796                 0.7371
 IR Inten    --      0.5805                 8.0174                 0.3144

                     28                     29                     30
                      A                      A                      A
 Frequencies --    818.2261               821.2368               831.1464
 Red. masses --      4.8435                 1.5643                 1.5963
 Frc consts  --      1.9105                 0.6216                 0.6497
 IR Inten    --      2.2289                18.2434                26.2054

                     31                     32                     33
                      A                      A                      A
 Frequencies --    843.4869               862.0355               862.5161
 Red. masses --      1.4229                 1.3834                 1.6966
 Frc consts  --      0.5964                 0.6057                 0.7436
 IR Inten    --     31.7992                28.3055               105.3249

                     34                     35                     36
                      A                      A                      A
 Frequencies --    901.0436               934.2437               943.3234
 Red. masses --      3.2753                 1.2999                 2.5966
 Frc consts  --      1.5667                 0.6685                 1.3614
 IR Inten    --      8.3496                 0.0063                 9.5707

                     37                     38                     39
                      A                      A                      A
 Frequencies --    948.3696               974.7873               989.7528
 Red. masses --      2.7780                 5.8511                 1.3025
 Frc consts  --      1.4721                 3.2757                 0.7518
 IR Inten    --     26.6303                 5.5022                 0.9901

                     40                     41                     42
                      A                      A                      A
 Frequencies --   1018.2244              1033.8651              1041.8140
 Red. masses --      1.4373                 1.4494                 2.7619
 Frc consts  --      0.8780                 0.9128                 1.7662
 IR Inten    --      4.2955                 5.1716                 1.1238

                     43                     44                     45
                      A                      A                      A
 Frequencies --   1048.5905              1063.6398              1069.6827
 Red. masses --      1.6831                 2.4973                 3.9828
 Frc consts  --      1.0904                 1.6646                 2.6850
 IR Inten    --      3.4483                21.0271                15.3249

                     46                     47                     48
                      A                      A                      A
 Frequencies --   1074.9988              1108.1399              1115.9276
 Red. masses --      1.5118                 2.9537                 4.3464
 Frc consts  --      1.0294                 2.1370                 3.1890
 IR Inten    --      4.5992                 6.4600                15.2430

                     49                     50                     51
                      A                      A                      A
 Frequencies --   1151.6122              1201.6443              1211.5327
 Red. masses --      1.3485                 1.8836                 1.4497
 Frc consts  --      1.0537                 1.6025                 1.2537
 IR Inten    --      8.7447                 9.2020                 2.4196

                     52                     53                     54
                      A                      A                      A
 Frequencies --   1223.1651              1242.4641              1248.7286
 Red. masses --      1.1440                 2.3785                 1.3186
 Frc consts  --      1.0084                 2.1633                 1.2114
 IR Inten    --      0.9756                 3.6298                 4.4720

                     55                     56                     57
                      A                      A                      A
 Frequencies --   1252.4988              1298.9545              1307.2173
 Red. masses --      1.9185                 1.3548                 1.4918
 Frc consts  --      1.7732                 1.3468                 1.5020
 IR Inten    --      4.5854                 4.7436                12.5809

                     58                     59                     60
                      A                      A                      A
 Frequencies --   1314.1603              1334.4433              1339.9947
 Red. masses --      2.1185                 1.3818                 2.2421
 Frc consts  --      2.1556                 1.4497                 2.3720
 IR Inten    --      7.3358                10.5748                 1.1350

                     61                     62                     63
                      A                      A                      A
 Frequencies --   1353.0167              1356.2953              1363.4805
 Red. masses --      1.2426                 1.7975                 1.6522
 Frc consts  --      1.3402                 1.9481                 1.8098
 IR Inten    --      8.8395                 6.5036                19.3890

                     64                     65                     66
                      A                      A                      A
 Frequencies --   1395.2136              1421.6205              1431.6681
 Red. masses --      1.7121                 2.8977                 2.9622
 Frc consts  --      1.9637                 3.4504                 3.5772
 IR Inten    --      2.8235                24.1106                15.1268

                     67                     68                     69
                      A                      A                      A
 Frequencies --   1442.8391              1478.4415              1488.5395
 Red. masses --      1.2527                 2.9561                 1.1521
 Frc consts  --      1.5365                 3.8069                 1.5040
 IR Inten    --      0.8934                28.5644                 6.1636

                     70                     71                     72
                      A                      A                      A
 Frequencies --   1514.6502              1518.9236              1522.4076
 Red. masses --      1.0445                 2.6239                 1.0824
 Frc consts  --      1.4118                 3.5667                 1.4780
 IR Inten    --      5.1825                 9.2021                 0.0790

                     73                     74                     75
                      A                      A                      A
 Frequencies --   1525.8168              1527.1686              1542.8110
 Red. masses --      1.0869                 1.3499                 1.0985
 Frc consts  --      1.4909                 1.8549                 1.5405
 IR Inten    --      1.0977                16.4091                 1.3114

                     76                     77                     78
                      A                      A                      A
 Frequencies --   1579.0368              1619.1253              1641.8124
 Red. masses --      3.5143                 5.1145                 4.9243
 Frc consts  --      5.1626                 7.8998                 7.8207
 IR Inten    --     47.9497                26.9377                 5.5499

                     79                     80                     81
                      A                      A                      A
 Frequencies --   1679.6583              2997.5749              3042.6260
 Red. masses --      5.7318                 1.0833                 1.0373
 Frc consts  --      9.5276                 5.7350                 5.6580
 IR Inten    --      0.3837                33.3978                46.4329

                     82                     83                     84
                      A                      A                      A
 Frequencies --   3054.0262              3058.8900              3067.3656
 Red. masses --      1.0655                 1.0650                 1.0639
 Frc consts  --      5.8551                 5.8712                 5.8975
 IR Inten    --     31.7992                45.6302                25.8425

                     85                     86                     87
                      A                      A                      A
 Frequencies --   3093.9445              3104.8474              3122.9090
 Red. masses --      1.1008                 1.1011                 1.1047
 Frc consts  --      6.2087                 6.2542                 6.3474
 IR Inten    --     20.5040                10.7380                44.1838

                     88                     89                     90
                      A                      A                      A
 Frequencies --   3124.8873              3125.3820              3168.4810
 Red. masses --      1.1009                 1.1012                 1.0862
 Frc consts  --      6.3338                 6.3373                 6.4251
 IR Inten    --     18.2932                33.4121                25.1569

                     91                     92                     93
                      A                      A                      A
 Frequencies --   3179.0083              3189.7672              3228.3118
 Red. masses --      1.0895                 1.0937                 1.0923
 Frc consts  --      6.4871                 6.5566                 6.7074
 IR Inten    --     24.7214                25.6391                 1.8009

                     94                     95                     96
                      A                      A                      A
 Frequencies --   3261.7650              3466.0260              3656.5048
 Red. masses --      1.0964                 1.0744                 1.0797
 Frc consts  --      6.8724                 7.6043                 8.5050
 IR Inten    --     16.0758                 2.1412                22.6935

 - Thermochemistry -
 -------------------
 Temperature   298.150 Kelvin.  Pressure   1.00000 Atm.
 Atom     1 has atomic number  6 and mass  12.00000

 Molecular mass:   227.14225 amu.
 Principal axes and moments of inertia in atomic units:
                           1         2         3
     Eigenvalues --  1043.78772********************
           X            1.00000   0.00041  -0.00006
           Y           -0.00041   0.99999  -0.00377
           Z            0.00006   0.00377   0.99999
 This molecule is an asymmetric top.
 Rotational symmetry number  1.
 Warning -- assumption of classical behavior for rotation
           may cause significant error
 Rotational temperatures (Kelvin)      0.08298     0.00836     0.00777
 Rotational constants (GHZ):           1.72903     0.17423     0.16183
 Zero-point vibrational energy     764480.7 (Joules/Mol)
                                  182.71528 (Kcal/Mol)
 Warning -- explicit consideration of  20 degrees of freedom as
           vibrations may cause significant error
 Vibrational temperatures:     16.45    25.09    32.03    62.61    97.70
          (Kelvin)            106.55   173.82   244.95   293.44   346.99
                              401.75   470.31   495.15   570.05   582.36
                              590.16   696.66   726.50   755.77   765.37
                              903.56   946.42   955.60   973.73  1029.55
                             1062.05  1113.32  1177.24  1181.58  1195.83
                             1213.59  1240.28  1240.97  1296.40  1344.17
                             1357.23  1364.49  1402.50  1424.03  1465.00
                             1487.50  1498.94  1508.69  1530.34  1539.03
                             1546.68  1594.37  1605.57  1656.91  1728.90
                             1743.13  1759.86  1787.63  1796.64  1802.07
                             1868.91  1880.79  1890.78  1919.97  1927.95
                             1946.69  1951.41  1961.74  2007.40  2045.39
                             2059.85  2075.92  2127.15  2141.68  2179.24
                             2185.39  2190.40  2195.31  2197.25  2219.76
                             2271.88  2329.56  2362.20  2416.65  4312.84
                             4377.66  4394.06  4401.06  4413.26  4451.50
                             4467.18  4493.17  4496.02  4496.73  4558.74
                             4573.88  4589.36  4644.82  4692.95  4986.84
                             5260.89

 Zero-point correction=                           0.291175 (Hartree/Particle)
 Thermal correction to Energy=                    0.306519
 Thermal correction to Enthalpy=                  0.307463
 Thermal correction to Gibbs Free Energy=         0.243880
 Sum of electronic and zero-point Energies=           -707.757996
 Sum of electronic and thermal Energies=              -707.742653
 Sum of electronic and thermal Enthalpies=            -707.741708
 Sum of electronic and thermal Free Energies=         -707.805291

                     E (Thermal)             CV                S
                      KCal/Mol        Cal/Mol-Kelvin    Cal/Mol-Kelvin
 Total                  192.343             57.925            133.821
 Electronic               0.000              0.000              0.000
 Translational            0.889              2.981             42.163
 Rotational               0.889              2.981             33.155
 Vibrational            190.566             51.963             58.502
 Vibration     1          0.593              1.987              7.745
 Vibration     2          0.593              1.986              6.906
 Vibration     3          0.593              1.985              6.421
 Vibration     4          0.595              1.980              5.092
 Vibration     5          0.598              1.970              4.213
 Vibration     6          0.599              1.966              4.042
 Vibration     7          0.609              1.932              3.087
 Vibration     8          0.625              1.879              2.433
 Vibration     9          0.640              1.834              2.097
 Vibration    10          0.658              1.777              1.794
 Vibration    11          0.680              1.712              1.538
 Vibration    12          0.711              1.622              1.275
 Vibration    13          0.723              1.587              1.193
 Vibration    14          0.763              1.478              0.977
 Vibration    15          0.770              1.460              0.945
 Vibration    16          0.774              1.448              0.926
 Vibration    17          0.840              1.285              0.699
 Vibration    18          0.860              1.239              0.646
 Vibration    19          0.880              1.194              0.598
 Vibration    20          0.887              1.179              0.583

 Optimization completed.
    -- Stationary point found.
 Normal termination of Gaussian 16 at Fri Dec 11 12:44:20 2020.

 ----------------------------------------------------------------------
 # B3LYP/6-311++G(d,p) empiricaldispersion=gd3bj scf=xqc pop=npa geom=c
 heck
 ----------------------------------------------------------------------

 ---------------------------------------
 CID_105484850_JID_7283_Energie_neutraal
 ---------------------------------------
 Structure from the checkpoint file:  "JID_7283.chk"
 Charge =  0 Multiplicity = 1

 SCF Done:  E(RB3LYP) =  -708.237304987     A.U. after   14 cycles
 Normal termination of Gaussian 16 at Fri Dec 11 12:50:14 2020.

 ----------------------------------------------------------------------
 # B3LYP/6-311++G(d,p) empiricaldispersion=gd3bj scf=xqc pop=npa geom=c
 heck
 ----------------------------------------------------------------------

 -------------------------------------
 CID_105484850_JID_7283_Energie_kation
 -------------------------------------
 Structure from the checkpoint file:  "JID_7283.chk"
 Charge =  1 Multiplicity = 2

 SCF Done:  E(UB3LYP) =  -707.971059111     A.U. after   25 cycles
 Normal termination of Gaussian 16 at Fri Dec 11 13:04:47 2020.
 Gaussian 16:  ES64L-G16RevA.03 25-Dec-2016

 ----------------------------------------------------------------------
 # B3LYP/6-311++G(d,p) empiricaldispersion=gd3bj scf=xqc pop=npa geom=c
 heck
 ----------------------------------------------------------------------

 ------------------------------------
 CID_105484850_JID_7283_Energie_anion
 ------------------------------------
 Structure from the checkpoint file:  "JID_7283.chk"
 Charge = -1 Multiplicity = 2

                         Standard orientation:
 ---------------------------------------------------------------------
 Center     Atomic      Atomic             Coordinates (Angstroms)
 Number     Number       Type             X           Y           Z
 ---------------------------------------------------------------------
      1          6           0        6.126744   -0.747392   -0.101942
      2          6           0        4.656694   -0.412874   -0.050541
      3          6           0        3.699928   -1.381777    0.264841
      4          6           0        2.342747   -1.068581    0.310030
      5          6           0        1.898796    0.232413    0.038082
      6          6           0        2.857565    1.210431   -0.278824
      7          6           0        4.206770    0.888987   -0.320403
      8          6           0        0.487754    0.609652    0.071025
      9          7           0        0.009837    1.825658   -0.149505
     10          6           0       -1.354705    1.726624   -0.024876
     11          6           0       -1.735198    0.436193    0.275534
     12          7           0       -0.542321   -0.263114    0.336581
     13          6           0       -3.059253   -0.207987    0.515228
     14          6           0       -3.396151   -1.400700   -0.432818
     15          6           0       -4.903147   -1.199400   -0.782915
     16          7           0       -5.427429   -0.126460    0.079711
     17          6           0       -4.268626    0.737996    0.315168
     18          1           0        6.306657   -1.797574    0.147922
     19          1           0        6.542978   -0.564971   -1.100506
     20          1           0        6.701083   -0.132309    0.601751
     21          1           0        4.019794   -2.398343    0.480083
     22          1           0        1.635602   -1.854544    0.564446
     23          1           0        2.514203    2.217496   -0.488498
     24          1           0        4.931005    1.661869   -0.567815
     25          1           0       -1.992380    2.590331   -0.153244
     26          1           0       -0.459116   -1.251861    0.518581
     27          1           0       -3.099088   -0.574472    1.552541
     28          1           0       -3.214468   -2.362540    0.058369
     29          1           0       -2.774264   -1.367600   -1.332875
     30          1           0       -4.999841   -0.879129   -1.826842
     31          1           0       -5.500967   -2.107444   -0.664214
     32          1           0       -5.702731   -0.535977    0.972441
     33          1           0       -4.440745    1.407373    1.162414
     34          1           0       -4.107832    1.355614   -0.577605
 ---------------------------------------------------------------------

 SCF Done:  E(UB3LYP) =  -708.234000131     A.U. after   33 cycles
 SCF Done:  E(UB3LYP) =  -708.234000131     a.u. after    1 cycles

 The electronic state is 2-A.
 Alpha  occ. eigenvalues --  -14.24615 -14.19883 -14.17455 -10.11127 -10.09228
 Alpha  occ. eigenvalues --  -10.09225 -10.09038 -10.07966 -10.07905 -10.07135
 Alpha  occ. eigenvalues --  -10.07013 -10.06958 -10.06843 -10.06539 -10.06537
 Alpha  occ. eigenvalues --  -10.06481 -10.06277  -0.89989  -0.82130  -0.75883
 Alpha  occ. eigenvalues --   -0.75355  -0.69228  -0.67241  -0.64060  -0.63240
 Alpha  occ. eigenvalues --   -0.61599  -0.57795  -0.51888  -0.51001  -0.50260
 Alpha  occ. eigenvalues --   -0.48551  -0.48479  -0.45645  -0.42857  -0.41007
 Alpha  occ. eigenvalues --   -0.37972  -0.36547  -0.35560  -0.34679  -0.33920
 Alpha  occ. eigenvalues --   -0.33198  -0.33144  -0.32016  -0.31731  -0.31335
 Alpha  occ. eigenvalues --   -0.30010  -0.29024  -0.28069  -0.26575  -0.25861
 Alpha  occ. eigenvalues --   -0.24885  -0.24669  -0.24392  -0.23592  -0.22734
 Alpha  occ. eigenvalues --   -0.17373  -0.16269  -0.16046  -0.15156  -0.13828
 Alpha  occ. eigenvalues --   -0.09603   0.04021
 Alpha virt. eigenvalues --    0.06115   0.06444   0.07493   0.08345   0.08643
 Alpha virt. eigenvalues --    0.08740   0.08948   0.09712   0.10108   0.10678
 Alpha virt. eigenvalues --    0.11132   0.11568   0.11678   0.12102   0.12444

  Beta  occ. eigenvalues --  -14.24536 -14.19861 -14.17386 -10.11083 -10.09223
  Beta  occ. eigenvalues --  -10.09211 -10.08976 -10.07979 -10.07891 -10.06986
  Beta  occ. eigenvalues --  -10.06973 -10.06907 -10.06875 -10.06532 -10.06445
  Beta  occ. eigenvalues --  -10.06445 -10.06261  -0.89874  -0.82087  -0.75724
  Beta  occ. eigenvalues --   -0.75193  -0.69051  -0.67095  -0.63943  -0.63177
  Beta  occ. eigenvalues --   -0.61523  -0.57716  -0.51828  -0.50824  -0.50195
  Beta  occ. eigenvalues --   -0.48465  -0.48337  -0.45580  -0.42777  -0.40937
  Beta  occ. eigenvalues --   -0.37884  -0.36477  -0.35430  -0.34632  -0.33773
  Beta  occ. eigenvalues --   -0.33149  -0.32962  -0.31882  -0.31621  -0.31240
  Beta  occ. eigenvalues --   -0.29945  -0.28988  -0.28022  -0.26488  -0.25594
  Beta  occ. eigenvalues --   -0.24826  -0.24544  -0.24292  -0.23532  -0.22661
  Beta  occ. eigenvalues --   -0.16968  -0.15955  -0.15701  -0.14842  -0.13786
  Beta  occ. eigenvalues --   -0.09148
  Beta virt. eigenvalues --    0.06321   0.06901   0.07438   0.07970   0.08610
  Beta virt. eigenvalues --    0.08648   0.08920   0.09038   0.09890   0.10185
  Beta virt. eigenvalues --    0.10841   0.11377   0.11667   0.11838   0.12239

 Mulliken charges and spin densities:
               1          2
     1  C   -0.475485  -0.145682
     2  C    0.551081   0.053869
     3  C   -0.576068  -0.341876
     4  C   -0.162158  -0.247669
     5  C    0.699695   0.208698
     6  C   -0.619653   0.073529
     7  C   -0.615115   0.256372
     8  C    0.177887  -0.214752
     9  N   -0.094509   0.051645
    10  C   -0.020222  -0.218789
    11  C    0.370091  -0.175975
    12  N   -0.128325   0.172889
    13  C   -0.540735   0.861835
    14  C    0.182610  -0.532267
    15  C    0.238845  -0.745653
    16  N   -0.190122   0.145232
    17  C    0.317573  -1.095115
    18  H    0.111462   0.023270
    19  H    0.139872  -0.001593
    20  H    0.103323   0.036166
    21  H    0.065143   0.067996
    22  H   -0.307816   0.343846
    23  H    0.156303  -0.003845
    24  H    0.127994   0.013315
    25  H    0.143915  -0.000071
    26  H    0.016130   0.303826
    27  H   -0.465444   0.701748
    28  H   -0.391812   0.531956
    29  H    0.093279   0.066680
    30  H    0.142025   0.008417
    31  H   -0.186904   0.353164
    32  H   -0.072792   0.310578
    33  H    0.100021   0.066886
    34  H    0.109912   0.071369
 Sum of Mulliken charges =  -1.00000   1.00000

 Dipole moment (field-independent basis, Debye):
    X=              5.3705    Y=              1.7115    Z=             -2.8847  Tot=              6.3319
 Quadrupole moment (field-independent basis, Debye-Ang):
   XX=           -189.4923   YY=           -134.0094   ZZ=           -125.9161
   XY=            -12.6009   XZ=              6.8634   YZ=              5.9652

 Summary of Natural Population Analysis:

                                       Natural Population
                Natural  -----------------------------------------------
    Atom  No    Charge         Core      Valence    Rydberg      Total
 -----------------------------------------------------------------------
      C    1   -0.29137      0.99965     2.28736    0.00436     3.29137
      C    2    0.00094      0.99952     1.99128    0.00826     2.99906
      C    3   -0.11322      0.99953     2.10412    0.00958     3.11322
      C    4   -0.07688      0.99954     2.06834    0.00900     3.07688
      C    5   -0.03270      0.99948     2.02367    0.00955     3.03270
      C    6   -0.07824      0.99955     2.07049    0.00820     3.07824
      C    7   -0.10490      0.99953     2.09756    0.00781     3.10490
      C    8    0.18508      0.99958     1.79718    0.01816     2.81492
      N    9   -0.24902      0.99970     2.74053    0.00879     3.74902
      C   10   -0.04360      0.99951     2.03208    0.01201     3.04360
      C   11    0.07265      0.99953     1.91464    0.01319     2.92735
      N   12   -0.26061      0.99963     2.75293    0.00805     3.76061
      C   13   -0.13825      0.99957     2.12574    0.01293     3.13825
      C   14   -0.19719      0.99963     2.18904    0.00853     3.19719
      C   15   -0.09143      0.99965     2.08069    0.01110     3.09143
      N   16   -0.33553      0.99976     2.82326    0.01251     3.83553
      C   17   -0.08371      0.99963     2.07252    0.01157     3.08371
      H   18    0.09811      0.00000     0.40109    0.00080     0.40189
      H   19    0.09978      0.00000     0.39927    0.00095     0.40022
      H   20    0.10022      0.00000     0.39864    0.00114     0.39978
      H   21    0.09500      0.00000     0.40412    0.00088     0.40500
      H   22    0.09380      0.00000     0.40472    0.00148     0.40620
      H   23    0.10965      0.00000     0.38928    0.00107     0.39035
      H   24    0.09292      0.00000     0.40621    0.00087     0.40708
      H   25    0.09359      0.00000     0.40526    0.00115     0.40641
      H   26    0.20384      0.00000     0.29384    0.00232     0.29616
      H   27    0.10819      0.00000     0.38686    0.00495     0.39181
      H   28    0.10408      0.00000     0.39231    0.00361     0.39592
      H   29    0.09811      0.00000     0.40069    0.00121     0.40189
      H   30    0.08588      0.00000     0.41290    0.00122     0.41412
      H   31    0.09627      0.00000     0.40269    0.00104     0.40373
      H   32    0.17162      0.00000     0.32528    0.00310     0.32838
      H   33    0.09780      0.00000     0.40137    0.00083     0.40220
      H   34    0.08911      0.00000     0.40957    0.00132     0.41089
 =======================================================================
   * Total *   -0.00000     16.99297    43.80552    0.20151    61.00000

 Normal termination of Gaussian 16 at Fri Dec 11 13:22:27 2020.
