 Gaussian 16, Revision A.03,

 -----------------------------------------------------------
 # opt freq B3LYP/6-31G(d) empiricaldispersion=gd3bj scf=xqc
 -----------------------------------------------------------

 ------------------------------
 CID_66876873_JID_4883_neutraal
 ------------------------------
 Symbolic Z-matrix:
 Charge =  0 Multiplicity = 1

 SCF Done:  E(RB3LYP) =  -992.321022139     A.U. after   15 cycles
 SCF Done:  E(RB3LYP) =  -992.317812999     A.U. after   13 cycles
 SCF Done:  E(RB3LYP) =  -992.324679034     A.U. after   13 cycles
 SCF Done:  E(RB3LYP) =  -992.326072454     A.U. after   14 cycles
 SCF Done:  E(RB3LYP) =  -992.327048569     A.U. after   12 cycles
 SCF Done:  E(RB3LYP) =  -992.327214127     A.U. after   11 cycles
 SCF Done:  E(RB3LYP) =  -992.327170409     A.U. after   13 cycles
 SCF Done:  E(RB3LYP) =  -992.327326761     A.U. after   12 cycles
 SCF Done:  E(RB3LYP) =  -992.327337083     A.U. after   10 cycles
 SCF Done:  E(RB3LYP) =  -992.327341263     A.U. after    9 cycles
 SCF Done:  E(RB3LYP) =  -992.327353313     A.U. after   10 cycles
 SCF Done:  E(RB3LYP) =  -992.327363449     A.U. after   10 cycles
 SCF Done:  E(RB3LYP) =  -992.327368425     A.U. after   10 cycles
 SCF Done:  E(RB3LYP) =  -992.327368717     A.U. after    8 cycles
 SCF Done:  E(RB3LYP) =  -992.327368826     A.U. after    8 cycles
 Optimization completed.
    -- Stationary point found.
 Normal termination of Gaussian 16 at Thu Dec 10 10:55:37 2020.

 --------------------------------------------------------------------
 #N Geom=AllCheck Guess=TCheck SCRF=Check GenChk RB3LYP/6-31G(d) Freq
 --------------------------------------------------------------------

 Structure from the checkpoint file:  "JID_4883.chk"
 ------------------------------
 CID_66876873_JID_4883_neutraal
 ------------------------------
 Charge =  0 Multiplicity = 1

 SCF Done:  E(RB3LYP) =  -992.327368826     A.U. after    1 cycles

  Exact polarizability: 140.262   7.026 134.093 -27.955   3.982 110.616
 Approx polarizability: 208.053   7.278 225.845 -52.714  14.365 180.005

                      1                      2                      3
                      A                      A                      A
 Frequencies --     28.9861                51.7317                58.3382
 Red. masses --      5.5809                 6.2829                 3.0314
 Frc consts  --      0.0028                 0.0099                 0.0061
 IR Inten    --      1.8065                 3.8660                 1.4886

                      4                      5                      6
                      A                      A                      A
 Frequencies --     87.5441                95.3898               131.0878
 Red. masses --      3.6704                 4.2992                 3.9797
 Frc consts  --      0.0166                 0.0230                 0.0403
 IR Inten    --      0.7755                 0.2196                 0.9213

                      7                      8                      9
                      A                      A                      A
 Frequencies --    171.1367               212.1389               241.9031
 Red. masses --      2.4995                 4.4915                 1.4741
 Frc consts  --      0.0431                 0.1191                 0.0508
 IR Inten    --      2.7033                 1.8830                 1.8366

                     10                     11                     12
                      A                      A                      A
 Frequencies --    254.2876               307.1965               339.0822
 Red. masses --      2.6326                 4.7295                 4.3559
 Frc consts  --      0.1003                 0.2630                 0.2951
 IR Inten    --      8.7062                 5.6648                 4.3233

                     13                     14                     15
                      A                      A                      A
 Frequencies --    349.4048               366.7927               423.1849
 Red. masses --      5.2948                 2.8531                 3.2037
 Frc consts  --      0.3809                 0.2262                 0.3380
 IR Inten    --      0.7810                 7.9360                14.0729

                     16                     17                     18
                      A                      A                      A
 Frequencies --    445.6560               450.9540               487.8645
 Red. masses --      5.8061                 2.9756                 1.2817
 Frc consts  --      0.6794                 0.3565                 0.1797
 IR Inten    --      4.1633                 3.1336               261.5102

                     19                     20                     21
                      A                      A                      A
 Frequencies --    512.1380               531.4891               604.8586
 Red. masses --      3.8757                 3.2853                 1.3150
 Frc consts  --      0.5989                 0.5468                 0.2835
 IR Inten    --     23.1824                 3.9548                 4.8498

                     22                     23                     24
                      A                      A                      A
 Frequencies --    624.3429               661.3177               693.3835
 Red. masses --      4.2321                 3.0110                 4.9973
 Frc consts  --      0.9720                 0.7759                 1.4156
 IR Inten    --     16.4849                 5.6182                13.6558

                     25                     26                     27
                      A                      A                      A
 Frequencies --    720.6854               767.8985               784.5964
 Red. masses --      3.7629                 1.6612                 4.9053
 Frc consts  --      1.1515                 0.5771                 1.7791
 IR Inten    --     14.7265                35.6749                 3.4696

                     28                     29                     30
                      A                      A                      A
 Frequencies --    809.4385               827.7580               904.1632
 Red. masses --      2.5387                 2.0888                 1.3925
 Frc consts  --      0.9800                 0.8433                 0.6707
 IR Inten    --      3.3969                25.8206                 0.0394

                     31                     32                     33
                      A                      A                      A
 Frequencies --    964.2449               978.6980              1005.7876
 Red. masses --      3.1709                 1.3548                 4.1727
 Frc consts  --      1.7370                 0.7646                 2.4870
 IR Inten    --     16.7349                 1.1846                11.6847

                     34                     35                     36
                      A                      A                      A
 Frequencies --   1006.9892              1049.4183              1063.2896
 Red. masses --      1.3173                 1.6841                 6.4979
 Frc consts  --      0.7870                 1.0928                 4.3284
 IR Inten    --      0.2372                 1.3690                 5.2121

                     37                     38                     39
                      A                      A                      A
 Frequencies --   1075.9302              1127.4295              1136.8452
 Red. masses --      2.9652                 1.9149                 2.4326
 Frc consts  --      2.0224                 1.4341                 1.8523
 IR Inten    --      2.0115                 0.8659                75.5622

                     40                     41                     42
                      A                      A                      A
 Frequencies --   1152.4939              1173.3734              1193.4358
 Red. masses --      2.3277                 1.6699                 1.2706
 Frc consts  --      1.8216                 1.3546                 1.0663
 IR Inten    --      2.4860                 1.9872                 0.9991

                     43                     44                     45
                      A                      A                      A
 Frequencies --   1198.8739              1229.9584              1232.8692
 Red. masses --      1.0881                 1.4666                 1.3489
 Frc consts  --      0.9214                 1.3072                 1.2080
 IR Inten    --      0.4770                23.7950                12.3593

                     46                     47                     48
                      A                      A                      A
 Frequencies --   1290.3568              1296.4212              1337.3952
 Red. masses --      1.4552                 1.2846                 1.2089
 Frc consts  --      1.4275                 1.2720                 1.2740
 IR Inten    --      1.3724                 6.7486                12.1381

                     49                     50                     51
                      A                      A                      A
 Frequencies --   1338.6418              1390.2530              1419.8854
 Red. masses --      6.9709                 3.1531                 1.2091
 Frc consts  --      7.3598                 3.5906                 1.4362
 IR Inten    --      1.1973               166.5912                 9.2666

                     52                     53                     54
                      A                      A                      A
 Frequencies --   1478.2947              1488.8969              1508.4513
 Red. masses --      2.0687                 1.1060                 1.1478
 Frc consts  --      2.6636                 1.4445                 1.5388
 IR Inten    --     14.3741                 6.1055                 0.3955

                     55                     56                     57
                      A                      A                      A
 Frequencies --   1510.7900              1523.5498              1530.5640
 Red. masses --      2.3523                 1.0562                 1.0878
 Frc consts  --      3.1634                 1.4445                 1.5015
 IR Inten    --      3.6139                 9.2219                 6.7624

                     58                     59                     60
                      A                      A                      A
 Frequencies --   1542.9379              1618.3542              1642.0052
 Red. masses --      1.0642                 5.6686                 1.4989
 Frc consts  --      1.4928                 8.7474                 2.3810
 IR Inten    --     10.6217                 1.5821               133.7806

                     61                     62                     63
                      A                      A                      A
 Frequencies --   1650.1547              1769.8637              3010.6925
 Red. masses --      3.3396                 8.0475                 1.0362
 Frc consts  --      5.3579                14.8521                 5.5336
 IR Inten    --     10.8664               250.6667                31.3972

                     64                     65                     66
                      A                      A                      A
 Frequencies --   3053.2227              3065.7367              3084.0900
 Red. masses --      1.0600                 1.1037                 1.0636
 Frc consts  --      5.8220                 6.1121                 5.9605
 IR Inten    --     24.6899                26.9726                 8.4145

                     67                     68                     69
                      A                      A                      A
 Frequencies --   3104.5209              3140.6180              3142.8773
 Red. masses --      1.1013                 1.1058                 1.1000
 Frc consts  --      6.2535                 6.4260                 6.4018
 IR Inten    --     31.1320                17.8007                30.9101

                     70                     71                     72
                      A                      A                      A
 Frequencies --   3193.1360              3206.2649              3216.2291
 Red. masses --      1.0862                 1.0909                 1.0961
 Frc consts  --      6.5253                 6.6072                 6.6800
 IR Inten    --      2.4466                11.3986                14.3188

                     73                     74                     75
                      A                      A                      A
 Frequencies --   3235.9641              3528.5954              3670.1860
 Red. masses --      1.0924                 1.0490                 1.1011
 Frc consts  --      6.7395                 7.6954                 8.7386
 IR Inten    --      3.9928                66.9036                87.4428

 - Thermochemistry -
 -------------------
 Temperature   298.150 Kelvin.  Pressure   1.00000 Atm.
 Atom     1 has atomic number  6 and mass  12.00000

 Molecular mass:   211.06670 amu.
 Principal axes and moments of inertia in atomic units:
                           1         2         3
     Eigenvalues --  2635.522023320.160363680.08108
           X            0.99927   0.03191  -0.02112
           Y           -0.03311   0.99771  -0.05901
           Z            0.01919   0.05966   0.99803
 This molecule is an asymmetric top.
 Rotational symmetry number  1.
 Warning -- assumption of classical behavior for rotation
           may cause significant error
 Rotational temperatures (Kelvin)      0.03286     0.02609     0.02354
 Rotational constants (GHZ):           0.68478     0.54357     0.49041
 Zero-point vibrational energy     577337.8 (Joules/Mol)
                                  137.98704 (Kcal/Mol)
 Warning -- explicit consideration of  21 degrees of freedom as
           vibrations may cause significant error
 Vibrational temperatures:     41.70    74.43    83.94   125.96   137.24
          (Kelvin)            188.61   246.23   305.22   348.04   365.86
                              441.99   487.86   502.72   527.73   608.87
                              641.20   648.82   701.93   736.85   764.69
                              870.26   898.29   951.49   997.62  1036.91
                             1104.83  1128.86  1164.60  1190.96  1300.89
                             1387.33  1408.13  1447.10  1448.83  1509.88
                             1529.84  1548.02  1622.12  1635.67  1658.18
                             1688.22  1717.09  1724.91  1769.64  1773.82
                             1856.54  1865.26  1924.21  1926.01  2000.26
                             2042.90  2126.94  2142.19  2170.33  2173.69
                             2192.05  2202.14  2219.94  2328.45  2362.48
                             2374.20  2546.44  4331.72  4392.91  4410.91
                             4437.32  4466.71  4518.65  4521.90  4594.21
                             4613.10  4627.44  4655.83  5076.86  5280.58

 Zero-point correction=                           0.219896 (Hartree/Particle)
 Thermal correction to Energy=                    0.234033
 Thermal correction to Enthalpy=                  0.234978
 Thermal correction to Gibbs Free Energy=         0.177814
 Sum of electronic and zero-point Energies=           -992.107472
 Sum of electronic and thermal Energies=              -992.093335
 Sum of electronic and thermal Enthalpies=            -992.092391
 Sum of electronic and thermal Free Energies=         -992.149555

                     E (Thermal)             CV                S
                      KCal/Mol        Cal/Mol-Kelvin    Cal/Mol-Kelvin
 Total                  146.858             52.519            120.311
 Electronic               0.000              0.000              0.000
 Translational            0.889              2.981             41.945
 Rotational               0.889              2.981             31.843
 Vibrational            145.081             46.558             46.523
 Vibration     1          0.593              1.984              5.898
 Vibration     2          0.596              1.977              4.750
 Vibration     3          0.596              1.974              4.513
 Vibration     4          0.601              1.958              3.714
 Vibration     5          0.603              1.952              3.546
 Vibration     6          0.612              1.922              2.930
 Vibration     7          0.626              1.878              2.423
 Vibration     8          0.643              1.822              2.025
 Vibration     9          0.658              1.776              1.789
 Vibration    10          0.665              1.756              1.701
 Vibration    11          0.697              1.660              1.377
 Vibration    12          0.719              1.597              1.216
 Vibration    13          0.727              1.576              1.169
 Vibration    14          0.740              1.541              1.093
 Vibration    15          0.785              1.420              0.881
 Vibration    16          0.805              1.370              0.809
 Vibration    17          0.810              1.359              0.793
 Vibration    18          0.844              1.277              0.689
 Vibration    19          0.867              1.223              0.628
 Vibration    20          0.886              1.180              0.584
 Vibration    21          0.963              1.022              0.441

 Optimization completed.
    -- Stationary point found.
 Normal termination of Gaussian 16 at Thu Dec 10 11:04:24 2020.

 ----------------------------------------------------------------------
 # B3LYP/6-311++G(d,p) empiricaldispersion=gd3bj scf=xqc pop=npa geom=c
 heck
 ----------------------------------------------------------------------

 --------------------------------------
 CID_66876873_JID_4883_Energie_neutraal
 --------------------------------------
 Structure from the checkpoint file:  "JID_4883.chk"
 Charge =  0 Multiplicity = 1

 SCF Done:  E(RB3LYP) =  -992.528827399     A.U. after   16 cycles
 Normal termination of Gaussian 16 at Thu Dec 10 11:07:46 2020.

 ----------------------------------------------------------------------
 # B3LYP/6-311++G(d,p) empiricaldispersion=gd3bj scf=xqc pop=npa geom=c
 heck
 ----------------------------------------------------------------------

 ------------------------------------
 CID_66876873_JID_4883_Energie_kation
 ------------------------------------
 Structure from the checkpoint file:  "JID_4883.chk"
 Charge =  1 Multiplicity = 2

 SCF Done:  E(UB3LYP) =  -992.210825396     A.U. after   33 cycles
 SCF Done:  E(UB3LYP) =  -992.210825396     a.u. after    2 cycles
 Normal termination of Gaussian 16 at Thu Dec 10 11:23:53 2020.
 Gaussian 16:  ES64L-G16RevA.03 25-Dec-2016

 ----------------------------------------------------------------------
 # B3LYP/6-311++G(d,p) empiricaldispersion=gd3bj scf=xqc pop=npa geom=c
 heck
 ----------------------------------------------------------------------

 -----------------------------------
 CID_66876873_JID_4883_Energie_anion
 -----------------------------------
 Structure from the checkpoint file:  "JID_4883.chk"
 Charge = -1 Multiplicity = 2

                         Standard orientation:
 ---------------------------------------------------------------------
 Center     Atomic      Atomic             Coordinates (Angstroms)
 Number     Number       Type             X           Y           Z
 ---------------------------------------------------------------------
      1          6           0        1.144270   -0.134617    2.373663
      2          8           0        2.449061   -0.269259    1.833155
      3          6           0        2.506163   -0.003982    0.446652
      4          6           0        2.063516   -1.218427   -0.404657
      5         16           0        0.844233   -0.875247   -1.748225
      6          6           0       -0.643047   -0.655631   -0.752934
      7          6           0       -1.348048   -1.831124   -0.454345
      8          6           0       -2.482380   -1.808352    0.351794
      9          6           0       -2.925055   -0.595457    0.879406
     10          6           0       -2.230640    0.573354    0.592779
     11          6           0       -1.093302    0.575654   -0.230113
     12          6           0       -0.468806    1.947415   -0.394914
     13          8           0       -0.663053    2.812571    0.454819
     14          7           0        0.239277    2.201863   -1.530169
     15          1           0        1.233280   -0.294994    3.450801
     16          1           0        0.442258   -0.874767    1.961574
     17          1           0        0.734571    0.868103    2.185463
     18          1           0        1.909195    0.883014    0.199687
     19          1           0        3.552522    0.232467    0.228896
     20          1           0        2.914993   -1.673478   -0.919400
     21          1           0        1.630560   -1.983277    0.245221
     22          1           0       -0.987458   -2.769519   -0.863266
     23          1           0       -3.012930   -2.731566    0.566065
     24          1           0       -3.805728   -0.560127    1.513814
     25          1           0       -2.541729    1.523890    1.010396
     26          1           0        0.606025    1.439099   -2.087087
     27          1           0        0.717691    3.092581   -1.557155
 ---------------------------------------------------------------------

 SCF Done:  E(UB3LYP) =  -992.534306691     A.U. after   31 cycles

 The electronic state is 2-A.
 Alpha  occ. eigenvalues --  -88.71702 -19.01143 -18.93260 -14.18534 -10.11503
 Alpha  occ. eigenvalues --  -10.10223 -10.08930 -10.07503 -10.05370 -10.03987
 Alpha  occ. eigenvalues --  -10.02888 -10.02743 -10.02597 -10.02497  -7.80253
 Alpha  occ. eigenvalues --   -5.76625  -5.76280  -5.75672  -0.92298  -0.88727
 Alpha  occ. eigenvalues --   -0.76121  -0.72097  -0.67446  -0.62453  -0.61298
 Alpha  occ. eigenvalues --   -0.58416  -0.53690  -0.49334  -0.48504  -0.44852
 Alpha  occ. eigenvalues --   -0.43714  -0.39888  -0.37830  -0.37099  -0.36364
 Alpha  occ. eigenvalues --   -0.34292  -0.32914  -0.31300  -0.30299  -0.29132
 Alpha  occ. eigenvalues --   -0.28236  -0.27957  -0.27168  -0.26544  -0.24928
 Alpha  occ. eigenvalues --   -0.23978  -0.21842  -0.21511  -0.20092  -0.18943
 Alpha  occ. eigenvalues --   -0.14988  -0.13996  -0.12512  -0.12016  -0.10896
 Alpha  occ. eigenvalues --   -0.10705   0.04910
 Alpha virt. eigenvalues --    0.08023   0.08984   0.09576   0.10032   0.10708
 Alpha virt. eigenvalues --    0.11174   0.11270   0.12083   0.12596   0.13842
 Alpha virt. eigenvalues --    0.14439   0.14505   0.15279   0.15678   0.16615

  Beta  occ. eigenvalues --  -88.71708 -19.01140 -18.93024 -14.18495 -10.11340
  Beta  occ. eigenvalues --  -10.10217 -10.08930 -10.07384 -10.05092 -10.04084
  Beta  occ. eigenvalues --  -10.02911 -10.02611 -10.02286 -10.02219  -7.80257
  Beta  occ. eigenvalues --   -5.76628  -5.76294  -5.75674  -0.92290  -0.88310
  Beta  occ. eigenvalues --   -0.75933  -0.71696  -0.67224  -0.62156  -0.60813
  Beta  occ. eigenvalues --   -0.58225  -0.53530  -0.48827  -0.48373  -0.44686
  Beta  occ. eigenvalues --   -0.43406  -0.39782  -0.37761  -0.37044  -0.36246
  Beta  occ. eigenvalues --   -0.34173  -0.32663  -0.31042  -0.30156  -0.28932
  Beta  occ. eigenvalues --   -0.28047  -0.27619  -0.26819  -0.25955  -0.24703
  Beta  occ. eigenvalues --   -0.23595  -0.21406  -0.21123  -0.19947  -0.18680
  Beta  occ. eigenvalues --   -0.14930  -0.13238  -0.11676  -0.10853  -0.10590
  Beta  occ. eigenvalues --   -0.09881
  Beta virt. eigenvalues --    0.08063   0.08926   0.09629   0.09942   0.10632
  Beta virt. eigenvalues --    0.10723   0.11138   0.11533   0.12046   0.12539
  Beta virt. eigenvalues --    0.13843   0.14431   0.14611   0.15249   0.15698

 Mulliken charges and spin densities:
               1          2
     1  C   -0.383944  -0.037407
     2  O   -0.147249   0.005945
     3  C   -0.371037  -0.056019
     4  C   -0.024406  -0.316902
     5  S   -0.268252   0.011680
     6  C    0.811139   0.279475
     7  C   -0.714179  -0.075269
     8  C   -0.539322   0.226369
     9  C   -0.365339   0.124148
    10  C   -0.371406   0.001041
    11  C    0.723477   0.133964
    12  C   -0.434536   0.086526
    13  O   -0.389030   0.085428
    14  N   -0.279996   0.022084
    15  H    0.146558   0.002305
    16  H    0.157467   0.006332
    17  H    0.157432   0.015021
    18  H    0.179383   0.059528
    19  H    0.039125   0.106534
    20  H   -0.150295   0.333130
    21  H    0.226346  -0.026318
    22  H    0.132273   0.020901
    23  H    0.108756  -0.018029
    24  H    0.119063  -0.009142
    25  H    0.186864   0.003261
    26  H    0.220416  -0.004396
    27  H    0.230693   0.019811
 Sum of Mulliken charges =  -1.00000   1.00000

 Dipole moment (field-independent basis, Debye):
    X=              1.4413    Y=             -1.8284    Z=             -0.0742  Tot=              2.3293
 Quadrupole moment (field-independent basis, Debye-Ang):
   XX=           -120.7532   YY=           -117.9539   ZZ=           -109.2780
   XY=              6.4188   XZ=             -3.2386   YZ=             -6.4025

 Summary of Natural Population Analysis:

                                       Natural Population
                Natural  -----------------------------------------------
    Atom  No    Charge         Core      Valence    Rydberg      Total
 -----------------------------------------------------------------------
      C    1   -0.10545      0.99961     2.09684    0.00899     3.10545
      O    2   -0.30042      0.99989     3.29152    0.00901     4.30042
      C    3   -0.02181      0.99957     2.00681    0.01544     3.02181
      C    4   -0.25182      0.99959     2.24081    0.01143     3.25182
      S    5    0.08035      4.99956     2.89944    0.02065     7.91965
      C    6   -0.04207      0.99936     2.02934    0.01338     3.04207
      C    7   -0.12789      0.99951     2.11844    0.00995     3.12789
      C    8   -0.05866      0.99956     2.05005    0.00905     3.05866
      C    9   -0.08647      0.99957     2.07792    0.00898     3.08647
      C   10   -0.08612      0.99954     2.07833    0.00825     3.08612
      C   11   -0.02137      0.99938     2.00898    0.01301     3.02137
      C   12    0.34708      0.99966     1.62755    0.02572     2.65292
      O   13   -0.31664      0.99988     3.31125    0.00551     4.31664
      N   14   -0.41246      0.99970     2.90448    0.00828     3.91246
      H   15    0.08179      0.00000     0.41740    0.00080     0.41821
      H   16    0.08672      0.00000     0.41189    0.00139     0.41328
      H   17    0.09180      0.00000     0.40671    0.00149     0.40820
      H   18    0.09047      0.00000     0.40751    0.00202     0.40953
      H   19    0.08531      0.00000     0.41335    0.00134     0.41469
      H   20    0.10050      0.00000     0.39773    0.00177     0.39950
      H   21    0.10480      0.00000     0.39389    0.00131     0.39520
      H   22    0.09740      0.00000     0.40160    0.00099     0.40260
      H   23    0.08682      0.00000     0.41162    0.00156     0.41318
      H   24    0.08928      0.00000     0.40972    0.00100     0.41072
      H   25    0.10809      0.00000     0.39084    0.00107     0.39191
      H   26    0.19661      0.00000     0.30092    0.00247     0.30339
      H   27    0.18416      0.00000     0.31366    0.00217     0.31584
 =======================================================================
   * Total *    0.00000     17.99438    37.81860    0.18702    56.00000

 Normal termination of Gaussian 16 at Thu Dec 10 11:32:23 2020.
