 Gaussian 16, Revision A.03,

 -----------------------------------------------------------
 # opt freq B3LYP/6-31G(d) empiricaldispersion=gd3bj scf=xqc
 -----------------------------------------------------------

 -------------------------------
 CID_131143991_JID_2908_neutraal
 -------------------------------
 Symbolic Z-matrix:
 Charge =  0 Multiplicity = 1

 SCF Done:  E(RB3LYP) =  -502.626676193     A.U. after   14 cycles
 SCF Done:  E(RB3LYP) =  -502.630000989     A.U. after   12 cycles
 SCF Done:  E(RB3LYP) =  -502.630849379     A.U. after   12 cycles
 SCF Done:  E(RB3LYP) =  -502.631387574     A.U. after   12 cycles
 SCF Done:  E(RB3LYP) =  -502.632589012     A.U. after   11 cycles
 SCF Done:  E(RB3LYP) =  -502.633283367     A.U. after   10 cycles
 SCF Done:  E(RB3LYP) =  -502.634467674     A.U. after   11 cycles
 SCF Done:  E(RB3LYP) =  -502.635348914     A.U. after   12 cycles
 SCF Done:  E(RB3LYP) =  -502.636072930     A.U. after   11 cycles
 SCF Done:  E(RB3LYP) =  -502.636445554     A.U. after   11 cycles
 SCF Done:  E(RB3LYP) =  -502.639493486     A.U. after    9 cycles
 SCF Done:  E(RB3LYP) =  -502.639506874     A.U. after    9 cycles
 SCF Done:  E(RB3LYP) =  -502.639511075     A.U. after    9 cycles
 SCF Done:  E(RB3LYP) =  -502.639511760     A.U. after    8 cycles
 SCF Done:  E(RB3LYP) =  -502.639511885     A.U. after    7 cycles
 Optimization completed.
    -- Stationary point found.
 Normal termination of Gaussian 16 at Wed Dec  9 18:28:25 2020.

 --------------------------------------------------------------------
 #N Geom=AllCheck Guess=TCheck SCRF=Check GenChk RB3LYP/6-31G(d) Freq
 --------------------------------------------------------------------

 Structure from the checkpoint file:  "JID_2908.chk"
 -------------------------------
 CID_131143991_JID_2908_neutraal
 -------------------------------
 Charge =  0 Multiplicity = 1

 SCF Done:  E(RB3LYP) =  -502.639511885     A.U. after    1 cycles

  Exact polarizability: 142.458   6.450 115.502   5.365   2.880  96.912
 Approx polarizability: 166.937  12.556 171.131   6.660   8.172 148.409

                      1                      2                      3
                      A                      A                      A
 Frequencies --     36.5199                55.1950                63.7246
 Red. masses --      2.8233                 3.1214                 3.1647
 Frc consts  --      0.0022                 0.0056                 0.0076
 IR Inten    --      0.0768                 0.2071                 0.1696

                      4                      5                      6
                      A                      A                      A
 Frequencies --     97.5106               166.1028               176.8929
 Red. masses --      3.0230                 2.4681                 1.2507
 Frc consts  --      0.0169                 0.0401                 0.0231
 IR Inten    --      0.2070                 0.0750                 0.5863

                      7                      8                      9
                      A                      A                      A
 Frequencies --    210.1157               244.1826               280.6166
 Red. masses --      2.6397                 1.8308                 2.8034
 Frc consts  --      0.0687                 0.0643                 0.1301
 IR Inten    --      1.5848                 0.5136                 4.8124

                     10                     11                     12
                      A                      A                      A
 Frequencies --    317.4442               334.1006               366.7451
 Red. masses --      2.0500                 2.3268                 1.7279
 Frc consts  --      0.1217                 0.1530                 0.1369
 IR Inten    --      9.7629                 7.9250                16.2670

                     13                     14                     15
                      A                      A                      A
 Frequencies --    388.2288               419.5745               435.0454
 Red. masses --      1.5455                 1.8647                 2.8906
 Frc consts  --      0.1372                 0.1934                 0.3223
 IR Inten    --     38.6914                 2.7653                 1.7370

                     16                     17                     18
                      A                      A                      A
 Frequencies --    467.4168               506.5691               539.6674
 Red. masses --      2.8021                 2.2208                 2.2811
 Frc consts  --      0.3607                 0.3358                 0.3914
 IR Inten    --      0.8631                 2.9707                18.2247

                     19                     20                     21
                      A                      A                      A
 Frequencies --    573.7225               597.6386               744.4958
 Red. masses --      2.8299                 1.9618                 1.1580
 Frc consts  --      0.5488                 0.4128                 0.3782
 IR Inten    --      7.1594                 3.6912                 2.0177

                     22                     23                     24
                      A                      A                      A
 Frequencies --    790.8483               826.9760               839.6639
 Red. masses --      3.0625                 1.5361                 2.8287
 Frc consts  --      1.1285                 0.6190                 1.1750
 IR Inten    --      9.3711                 0.3121                 0.6111

                     25                     26                     27
                      A                      A                      A
 Frequencies --    874.9674               876.0753               891.5354
 Red. masses --      1.5007                 2.3788                 1.8058
 Frc consts  --      0.6769                 1.0757                 0.8457
 IR Inten    --     18.3538                 2.8676                60.8368

                     28                     29                     30
                      A                      A                      A
 Frequencies --    921.2630               925.1185               945.0698
 Red. masses --      2.3288                 1.3481                 1.6303
 Frc consts  --      1.1645                 0.6798                 0.8579
 IR Inten    --      1.5978                36.3175                34.9280

                     31                     32                     33
                      A                      A                      A
 Frequencies --    989.5317               999.6172              1009.8136
 Red. masses --      1.2972                 1.9677                 1.4852
 Frc consts  --      0.7484                 1.1584                 0.8923
 IR Inten    --      2.8796                 3.8949                15.6607

                     34                     35                     36
                      A                      A                      A
 Frequencies --   1025.9476              1061.7891              1069.8285
 Red. masses --      1.9991                 2.0151                 1.7326
 Frc consts  --      1.2397                 1.3385                 1.1684
 IR Inten    --      6.0668                14.8189                11.8305

                     37                     38                     39
                      A                      A                      A
 Frequencies --   1085.9886              1097.1661              1121.8862
 Red. masses --      1.5007                 1.6933                 2.5568
 Frc consts  --      1.0428                 1.2009                 1.8960
 IR Inten    --      1.2515                 3.7451                26.1903

                     40                     41                     42
                      A                      A                      A
 Frequencies --   1141.7900              1153.3940              1189.9446
 Red. masses --      2.3180                 2.8222                 1.3767
 Frc consts  --      1.7805                 2.2120                 1.1485
 IR Inten    --     27.5812                21.9369                 5.3438

                     43                     44                     45
                      A                      A                      A
 Frequencies --   1195.5852              1219.4445              1281.2496
 Red. masses --      1.8940                 1.2646                 1.7731
 Frc consts  --      1.5951                 1.1080                 1.7149
 IR Inten    --     16.7666                12.6908                 9.7174

                     46                     47                     48
                      A                      A                      A
 Frequencies --   1300.3965              1312.7550              1322.3534
 Red. masses --      1.2936                 1.1754                 1.5212
 Frc consts  --      1.2889                 1.1935                 1.5672
 IR Inten    --      7.1993                 4.3962                 7.4529

                     49                     50                     51
                      A                      A                      A
 Frequencies --   1339.4752              1349.6949              1366.1277
 Red. masses --      1.4325                 1.4072                 1.5061
 Frc consts  --      1.5143                 1.5104                 1.6561
 IR Inten    --      6.1034                 7.7755                21.9933

                     52                     53                     54
                      A                      A                      A
 Frequencies --   1373.2301              1386.5310              1401.9603
 Red. masses --      1.3056                 1.3628                 1.3984
 Frc consts  --      1.4506                 1.5436                 1.6194
 IR Inten    --      0.7822                14.2796                 0.5397

                     55                     56                     57
                      A                      A                      A
 Frequencies --   1406.0922              1409.5197              1429.8148
 Red. masses --      1.4880                 1.4620                 1.2978
 Frc consts  --      1.7333                 1.7114                 1.5632
 IR Inten    --      1.3271                 4.7274                 2.0862

                     58                     59                     60
                      A                      A                      A
 Frequencies --   1434.7492              1448.2153              1481.2410
 Red. masses --      1.3657                 1.4332                 1.2288
 Frc consts  --      1.6564                 1.7711                 1.5885
 IR Inten    --     20.3233                 4.2555                 1.8320

                     61                     62                     63
                      A                      A                      A
 Frequencies --   1504.2738              1505.2081              1513.2934
 Red. masses --      1.0629                 1.0826                 1.0866
 Frc consts  --      1.4171                 1.4452                 1.4661
 IR Inten    --      6.6346                 2.3870                 4.7448

                     64                     65                     66
                      A                      A                      A
 Frequencies --   1514.7382              1523.7358              1526.8110
 Red. masses --      1.0886                 1.0933                 1.0984
 Frc consts  --      1.4716                 1.4956                 1.5087
 IR Inten    --      5.5771                 2.9960                 1.8033

                     67                     68                     69
                      A                      A                      A
 Frequencies --   1531.3972              1541.7258              1672.6621
 Red. masses --      1.0574                 1.1033                 1.0919
 Frc consts  --      1.4611                 1.5451                 1.7999
 IR Inten    --     11.5049                 2.7320                44.4815

                     70                     71                     72
                      A                      A                      A
 Frequencies --   1738.1285              2906.9662              2914.9200
 Red. masses --      5.0028                 1.0740                 1.0727
 Frc consts  --      8.9048                 5.3474                 5.3700
 IR Inten    --     11.6927                21.5817               108.8678

                     73                     74                     75
                      A                      A                      A
 Frequencies --   2956.0458              2969.5623              3027.8830
 Red. masses --      1.0813                 1.0724                 1.0669
 Frc consts  --      5.5670                 5.5718                 5.7633
 IR Inten    --     57.8799                70.4293                27.7737

                     76                     77                     78
                      A                      A                      A
 Frequencies --   3041.4905              3043.4402              3044.3539
 Red. masses --      1.0437                 1.0605                 1.0622
 Frc consts  --      5.6885                 5.7876                 5.8000
 IR Inten    --     18.3249                28.0232                19.6948

                     79                     80                     81
                      A                      A                      A
 Frequencies --   3079.2382              3083.9402              3086.2701
 Red. masses --      1.0941                 1.0880                 1.1038
 Frc consts  --      6.1119                 6.0967                 6.1947
 IR Inten    --     67.4390                30.8872                21.7468

                     82                     83                     84
                      A                      A                      A
 Frequencies --   3091.8017              3097.8290              3100.9917
 Red. masses --      1.1048                 1.0874                 1.0885
 Frc consts  --      6.2224                 6.1481                 6.1672
 IR Inten    --     67.1066                36.1712                40.4954

                     85                     86                     87
                      A                      A                      A
 Frequencies --   3107.1414              3139.0159              3153.0304
 Red. masses --      1.0906                 1.1034                 1.0601
 Frc consts  --      6.2034                 6.4056                 6.2097
 IR Inten    --     22.2060                15.2137                13.0185

                     88                     89                     90
                      A                      A                      A
 Frequencies --   3228.8550              3459.4207              3553.1360
 Red. masses --      1.1156                 1.0496                 1.0923
 Frc consts  --      6.8523                 7.4007                 8.1246
 IR Inten    --     24.1275                13.7131                 3.8002

 - Thermochemistry -
 -------------------
 Temperature   298.150 Kelvin.  Pressure   1.00000 Atm.
 Atom     1 has atomic number  6 and mass  12.00000

 Molecular mass:   168.16265 amu.
 Principal axes and moments of inertia in atomic units:
                           1         2         3
     Eigenvalues --   849.912304166.531184435.01754
           X            0.99999  -0.00345   0.00258
           Y            0.00350   0.99981  -0.01940
           Z           -0.00251   0.01941   0.99981
 This molecule is an asymmetric top.
 Rotational symmetry number  1.
 Warning -- assumption of classical behavior for rotation
           may cause significant error
 Rotational temperatures (Kelvin)      0.10191     0.02079     0.01953
 Rotational constants (GHZ):           2.12344     0.43315     0.40693
 Zero-point vibrational energy     777425.9 (Joules/Mol)
                                  185.80926 (Kcal/Mol)
 Warning -- explicit consideration of  20 degrees of freedom as
           vibrations may cause significant error
 Vibrational temperatures:     52.54    79.41    91.69   140.30   238.98
          (Kelvin)            254.51   302.31   351.32   403.74   456.73
                              480.70   527.66   558.57   603.67   625.93
                              672.51   728.84   776.46   825.46   859.87
                             1071.16  1137.85  1189.83  1208.09  1258.88
                             1260.48  1282.72  1325.49  1331.04  1359.74
                             1423.72  1438.23  1452.90  1476.11  1527.68
                             1539.24  1562.50  1578.58  1614.14  1642.78
                             1659.48  1712.06  1720.18  1754.51  1843.43
                             1870.98  1888.76  1902.57  1927.21  1941.91
                             1965.55  1975.77  1994.91  2017.11  2023.05
                             2027.98  2057.18  2064.28  2083.66  2131.18
                             2164.31  2165.66  2177.29  2179.37  2192.32
                             2196.74  2203.34  2218.20  2406.59  2500.78
                             4182.48  4193.92  4253.09  4272.54  4356.45
                             4376.03  4378.83  4380.15  4430.34  4437.10
                             4440.45  4448.41  4457.08  4461.64  4470.48
                             4516.34  4536.51  4645.60  4977.33  5112.17

 Zero-point correction=                           0.296106 (Hartree/Particle)
 Thermal correction to Energy=                    0.309056
 Thermal correction to Enthalpy=                  0.310001
 Thermal correction to Gibbs Free Energy=         0.256411
 Sum of electronic and zero-point Energies=           -502.343406
 Sum of electronic and thermal Energies=              -502.330455
 Sum of electronic and thermal Enthalpies=            -502.329511
 Sum of electronic and thermal Free Energies=         -502.383101

                     E (Thermal)             CV                S
                      KCal/Mol        Cal/Mol-Kelvin    Cal/Mol-Kelvin
 Total                  193.936             49.947            112.790
 Electronic               0.000              0.000              0.000
 Translational            0.889              2.981             41.267
 Rotational               0.889              2.981             31.130
 Vibrational            192.158             43.985             40.392
 Vibration     1          0.594              1.982              5.439
 Vibration     2          0.596              1.975              4.622
 Vibration     3          0.597              1.972              4.338
 Vibration     4          0.603              1.951              3.503
 Vibration     5          0.624              1.884              2.479
 Vibration     6          0.628              1.871              2.361
 Vibration     7          0.642              1.825              2.043
 Vibration     8          0.660              1.772              1.772
 Vibration     9          0.680              1.709              1.530
 Vibration    10          0.704              1.640              1.323
 Vibration    11          0.716              1.607              1.240
 Vibration    12          0.740              1.541              1.093
 Vibration    13          0.756              1.495              1.007
 Vibration    14          0.782              1.428              0.893
 Vibration    15          0.796              1.394              0.842
 Vibration    16          0.825              1.322              0.745
 Vibration    17          0.862              1.235              0.642
 Vibration    18          0.895              1.162              0.566
 Vibration    19          0.930              1.088              0.497
 Vibration    20          0.956              1.037              0.454

                           ! Non-Optimized Parameters !
 Normal termination of Gaussian 16 at Wed Dec  9 18:36:14 2020.

 ----------------------------------------------------------------------
 # B3LYP/6-311++G(d,p) empiricaldispersion=gd3bj scf=xqc pop=npa geom=c
 heck
 ----------------------------------------------------------------------

 ---------------------------------------
 CID_131143991_JID_2908_Energie_neutraal
 ---------------------------------------
 Structure from the checkpoint file:  "JID_2908.chk"
 Charge =  0 Multiplicity = 1

 SCF Done:  E(RB3LYP) =  -502.786534083     A.U. after   13 cycles
 Normal termination of Gaussian 16 at Wed Dec  9 18:39:00 2020.

 ----------------------------------------------------------------------
 # B3LYP/6-311++G(d,p) empiricaldispersion=gd3bj scf=xqc pop=npa geom=c
 heck
 ----------------------------------------------------------------------

 -------------------------------------
 CID_131143991_JID_2908_Energie_kation
 -------------------------------------
 Structure from the checkpoint file:  "JID_2908.chk"
 Charge =  1 Multiplicity = 2

 SCF Done:  E(UB3LYP) =  -502.496283787     A.U. after   22 cycles
 Normal termination of Gaussian 16 at Wed Dec  9 18:45:03 2020.
 Gaussian 16:  ES64L-G16RevA.03 25-Dec-2016

 ----------------------------------------------------------------------
 # B3LYP/6-311++G(d,p) empiricaldispersion=gd3bj scf=xqc pop=npa geom=c
 heck
 ----------------------------------------------------------------------

 ------------------------------------
 CID_131143991_JID_2908_Energie_anion
 ------------------------------------
 Structure from the checkpoint file:  "JID_2908.chk"
 Charge = -1 Multiplicity = 2

                         Standard orientation:
 ---------------------------------------------------------------------
 Center     Atomic      Atomic             Coordinates (Angstroms)
 Number     Number       Type             X           Y           Z
 ---------------------------------------------------------------------
      1          6           0       -3.536364    1.209275   -0.223273
      2          6           0       -2.980169   -0.189620   -0.156506
      3          6           0       -3.686652   -1.260285   -0.529829
      4          6           0       -1.563216   -0.347996    0.365820
      5          6           0       -0.541797    0.328253   -0.566749
      6          7           0        0.825370    0.171657   -0.070915
      7          6           0        1.386886   -1.143023   -0.387255
      8          6           0        2.740464   -1.341862    0.296883
      9          6           0        3.716155   -0.228147   -0.098135
     10          6           0        3.080408    1.142800    0.157643
     11          6           0        1.713682    1.244371   -0.521918
     12          7           0       -1.426051    0.277445    1.685862
     13          1           0       -4.603433    1.202367   -0.464494
     14          1           0       -3.023704    1.806586   -0.989160
     15          1           0       -3.382056    1.721199    0.731653
     16          1           0       -3.274558   -2.264969   -0.468081
     17          1           0       -4.700395   -1.173379   -0.912953
     18          1           0       -1.343306   -1.429526    0.381073
     19          1           0       -0.661439   -0.063649   -1.592816
     20          1           0       -0.764816    1.398978   -0.591971
     21          1           0        1.504787   -1.263046   -1.484312
     22          1           0        0.684295   -1.914335   -0.057501
     23          1           0        3.143836   -2.326653    0.031672
     24          1           0        2.588637   -1.331172    1.384028
     25          1           0        4.661027   -0.326534    0.449496
     26          1           0        3.956448   -0.321521   -1.167141
     27          1           0        2.944674    1.290256    1.236863
     28          1           0        3.730665    1.948158   -0.204882
     29          1           0        1.241505    2.202129   -0.278205
     30          1           0        1.848091    1.216828   -1.623108
     31          1           0       -1.891756   -0.292576    2.388960
     32          1           0       -0.430129    0.294553    1.906172
 ---------------------------------------------------------------------

 SCF Done:  E(UB3LYP) =  -502.769086624     A.U. after   33 cycles
 SCF Done:  E(UB3LYP) =  -502.769086624     a.u. after    1 cycles

 The electronic state is 2-A.
 Alpha  occ. eigenvalues --  -14.20585 -14.18627 -10.09859 -10.09164 -10.09148
 Alpha  occ. eigenvalues --  -10.08851 -10.08271 -10.06389 -10.06358 -10.06305
 Alpha  occ. eigenvalues --  -10.06198 -10.06025  -0.83415  -0.78471  -0.69856
 Alpha  occ. eigenvalues --   -0.69443  -0.65316  -0.61451  -0.58997  -0.54264
 Alpha  occ. eigenvalues --   -0.52550  -0.49502  -0.45323  -0.42714  -0.39705
 Alpha  occ. eigenvalues --   -0.39356  -0.37861  -0.35836  -0.35121  -0.34545
 Alpha  occ. eigenvalues --   -0.33076  -0.32474  -0.31449  -0.30324  -0.29988
 Alpha  occ. eigenvalues --   -0.28423  -0.27296  -0.26959  -0.25168  -0.24849
 Alpha  occ. eigenvalues --   -0.24150  -0.22786  -0.21519  -0.21343  -0.15754
 Alpha  occ. eigenvalues --   -0.14695  -0.12228   0.04634
 Alpha virt. eigenvalues --    0.06385   0.07060   0.07738   0.08109   0.08486
 Alpha virt. eigenvalues --    0.08990   0.09619   0.10186   0.10532   0.10836
 Alpha virt. eigenvalues --    0.11033   0.11825   0.12618   0.12840   0.13350

  Beta  occ. eigenvalues --  -14.20567 -14.18607 -10.09845 -10.09155 -10.09137
  Beta  occ. eigenvalues --  -10.08834 -10.08272 -10.06370 -10.06336 -10.06284
  Beta  occ. eigenvalues --  -10.06176 -10.06002  -0.83386  -0.78442  -0.69826
  Beta  occ. eigenvalues --   -0.69414  -0.65281  -0.61414  -0.58958  -0.54219
  Beta  occ. eigenvalues --   -0.52497  -0.49455  -0.45259  -0.42667  -0.39648
  Beta  occ. eigenvalues --   -0.39314  -0.37826  -0.35803  -0.35087  -0.34519
  Beta  occ. eigenvalues --   -0.33038  -0.32444  -0.31421  -0.30287  -0.29953
  Beta  occ. eigenvalues --   -0.28378  -0.27268  -0.26935  -0.25139  -0.24808
  Beta  occ. eigenvalues --   -0.24124  -0.22747  -0.21477  -0.21303  -0.15727
  Beta  occ. eigenvalues --   -0.14657  -0.12140
  Beta virt. eigenvalues --    0.06671   0.07268   0.07850   0.08162   0.08734
  Beta virt. eigenvalues --    0.08987   0.09159   0.10047   0.10767   0.10841
  Beta virt. eigenvalues --    0.11129   0.11289   0.12177   0.12791   0.13310

 Mulliken charges and spin densities:
               1          2
     1  C   -0.045123  -0.595145
     2  C   -1.246713   2.030235
     3  C    0.511845  -1.356111
     4  C    0.928449  -0.717030
     5  C   -0.722364  -0.487171
     6  N    0.124350   0.143027
     7  C    0.503193  -0.746069
     8  C    0.346075  -0.709931
     9  C   -0.138344  -0.083264
    10  C    0.084751  -0.455092
    11  C    0.645352  -0.817980
    12  N   -0.336135   0.014488
    13  H   -0.252114   0.398373
    14  H   -0.169518   0.319585
    15  H    0.126266   0.055841
    16  H   -0.343922   0.474142
    17  H   -0.086987   0.197984
    18  H    0.275500  -0.009554
    19  H    0.051657   0.054166
    20  H    0.233739  -0.056711
    21  H   -0.055784   0.191644
    22  H   -0.254252   0.351590
    23  H   -0.258814   0.416902
    24  H   -0.114841   0.254691
    25  H   -0.655173   0.825654
    26  H    0.126388  -0.011576
    27  H    0.029966   0.108800
    28  H   -0.295186   0.456157
    29  H   -0.075823   0.210191
    30  H   -0.138158   0.262564
    31  H   -0.136131   0.362933
    32  H    0.337851  -0.083334
 Sum of Mulliken charges =  -1.00000   1.00000

 Dipole moment (field-independent basis, Debye):
    X=             -1.4654    Y=              1.3014    Z=             -0.7605  Tot=              2.1022
 Quadrupole moment (field-independent basis, Debye-Ang):
   XX=           -165.1432   YY=           -120.4756   ZZ=           -108.4456
   XY=              0.4721   XZ=             -3.2436   YZ=              0.7528

 Summary of Natural Population Analysis:

                                       Natural Population
                Natural  -----------------------------------------------
    Atom  No    Charge         Core      Valence    Rydberg      Total
 -----------------------------------------------------------------------
      C    1   -0.30407      0.99961     2.29869    0.00576     3.30407
      C    2   -0.00054      0.99951     1.98712    0.01391     3.00054
      C    3   -0.19586      0.99948     2.18859    0.00779     3.19586
      C    4   -0.02903      0.99954     2.01573    0.01376     3.02903
      C    5   -0.08067      0.99958     2.07116    0.00993     3.08067
      N    6   -0.28775      0.99970     2.77618    0.01187     3.78775
      C    7   -0.08325      0.99961     2.07199    0.01165     3.08325
      C    8   -0.19327      0.99962     2.18426    0.00939     3.19327
      C    9   -0.18942      0.99963     2.18153    0.00827     3.18942
      C   10   -0.19382      0.99962     2.18495    0.00924     3.19382
      C   11   -0.07976      0.99961     2.06919    0.01096     3.07976
      N   12   -0.42918      0.99976     2.91893    0.01050     3.92918
      H   13    0.09988      0.00000     0.39899    0.00113     0.40012
      H   14    0.10190      0.00000     0.39661    0.00149     0.39810
      H   15    0.11308      0.00000     0.38524    0.00168     0.38692
      H   16    0.09482      0.00000     0.40360    0.00158     0.40518
      H   17    0.09127      0.00000     0.40765    0.00108     0.40873
      H   18    0.08462      0.00000     0.41214    0.00324     0.41538
      H   19    0.08743      0.00000     0.41115    0.00141     0.41257
      H   20    0.09828      0.00000     0.39984    0.00189     0.40172
      H   21    0.07752      0.00000     0.42089    0.00159     0.42248
      H   22    0.09929      0.00000     0.39863    0.00208     0.40071
      H   23    0.09998      0.00000     0.39877    0.00125     0.40002
      H   24    0.09636      0.00000     0.40184    0.00180     0.40364
      H   25    0.10088      0.00000     0.39745    0.00167     0.39912
      H   26    0.09194      0.00000     0.40665    0.00142     0.40806
      H   27    0.09616      0.00000     0.40223    0.00161     0.40384
      H   28    0.09921      0.00000     0.39960    0.00119     0.40079
      H   29    0.09734      0.00000     0.40142    0.00125     0.40266
      H   30    0.07716      0.00000     0.42144    0.00140     0.42284
      H   31    0.17488      0.00000     0.32344    0.00168     0.32512
      H   32    0.18461      0.00000     0.31289    0.00250     0.31539
 =======================================================================
   * Total *    0.00000     11.99527    34.84877    0.15596    47.00000

 Normal termination of Gaussian 16 at Wed Dec  9 18:54:05 2020.
