 Gaussian 16, Revision A.03,

 -----------------------------------------------------------
 # opt freq B3LYP/6-31G(d) empiricaldispersion=gd3bj scf=xqc
 -----------------------------------------------------------

 -------------------------------
 CID_134439334_JID_3785_neutraal
 -------------------------------
 Symbolic Z-matrix:
 Charge =  0 Multiplicity = 1

 SCF Done:  E(RB3LYP) =  -882.309050450     A.U. after   14 cycles
 SCF Done:  E(RB3LYP) =  -882.313052024     A.U. after   12 cycles
 SCF Done:  E(RB3LYP) =  -882.313799265     A.U. after   12 cycles
 SCF Done:  E(RB3LYP) =  -882.314643934     A.U. after   12 cycles
 SCF Done:  E(RB3LYP) =  -882.315392563     A.U. after   12 cycles
 SCF Done:  E(RB3LYP) =  -882.314744322     A.U. after   13 cycles
 SCF Done:  E(RB3LYP) =  -882.315903771     A.U. after   12 cycles
 SCF Done:  E(RB3LYP) =  -882.316088944     A.U. after   11 cycles
 SCF Done:  E(RB3LYP) =  -882.316154940     A.U. after   11 cycles
 SCF Done:  E(RB3LYP) =  -882.316172430     A.U. after   10 cycles
 SCF Done:  E(RB3LYP) =  -882.320160748     A.U. after   11 cycles
 SCF Done:  E(RB3LYP) =  -882.320177940     A.U. after   10 cycles
 SCF Done:  E(RB3LYP) =  -882.320179883     A.U. after    9 cycles
 SCF Done:  E(RB3LYP) =  -882.320180502     A.U. after    8 cycles
 SCF Done:  E(RB3LYP) =  -882.320180673     A.U. after    7 cycles
 Optimization completed.
    -- Stationary point found.
 Normal termination of Gaussian 16 at Sun Dec 13 16:07:18 2020.

 --------------------------------------------------------------------
 #N Geom=AllCheck Guess=TCheck SCRF=Check GenChk RB3LYP/6-31G(d) Freq
 --------------------------------------------------------------------

 Structure from the checkpoint file:  "JID_3785.chk"
 -------------------------------
 CID_134439334_JID_3785_neutraal
 -------------------------------
 Charge =  0 Multiplicity = 1

 SCF Done:  E(RB3LYP) =  -882.320180673     A.U. after    1 cycles

  Exact polarizability: 173.686   7.167 151.374  -0.719  13.733 118.473
 Approx polarizability: 238.774  20.191 238.961   1.856  33.423 184.413

                      1                      2                      3
                      A                      A                      A
 Frequencies --     20.4096                25.5926                50.1451
 Red. masses --      4.5352                 5.6981                 3.8074
 Frc consts  --      0.0011                 0.0022                 0.0056
 IR Inten    --      2.4698                 0.5769                 0.6865

                      4                      5                      6
                      A                      A                      A
 Frequencies --     75.0373               122.4607               130.9882
 Red. masses --      3.5248                 4.3552                 4.3821
 Frc consts  --      0.0117                 0.0385                 0.0443
 IR Inten    --      1.9853                 0.7395                 1.3434

                      7                      8                      9
                      A                      A                      A
 Frequencies --    158.8186               184.8938               190.6430
 Red. masses --      2.1199                 1.9857                 2.8813
 Frc consts  --      0.0315                 0.0400                 0.0617
 IR Inten    --      0.1331                20.8818                 1.3899

                     10                     11                     12
                      A                      A                      A
 Frequencies --    219.2481               237.8987               251.7947
 Red. masses --      2.8156                 3.0696                 1.1850
 Frc consts  --      0.0797                 0.1024                 0.0443
 IR Inten    --      1.1088                 1.0565                 1.0454

                     13                     14                     15
                      A                      A                      A
 Frequencies --    297.7625               315.5533               338.2886
 Red. masses --      2.5780                 1.3255                 2.4083
 Frc consts  --      0.1347                 0.0778                 0.1624
 IR Inten    --     23.0917                 7.6544                 3.7071

                     16                     17                     18
                      A                      A                      A
 Frequencies --    358.4734               383.8133               411.7866
 Red. masses --      1.7534                 2.6157                 2.2741
 Frc consts  --      0.1328                 0.2270                 0.2272
 IR Inten    --     14.5701                 0.6805                 2.0419

                     19                     20                     21
                      A                      A                      A
 Frequencies --    445.5126               454.1288               527.3605
 Red. masses --      1.5131                 5.4300                 2.0205
 Frc consts  --      0.1769                 0.6598                 0.3311
 IR Inten    --     93.5983                 1.9595                68.3125

                     22                     23                     24
                      A                      A                      A
 Frequencies --    574.3232               591.2692               622.4094
 Red. masses --      1.5064                 2.4800                 2.9418
 Frc consts  --      0.2927                 0.5108                 0.6715
 IR Inten    --    197.1876                72.8040                 2.6620

                     25                     26                     27
                      A                      A                      A
 Frequencies --    663.4543               698.6480               717.5811
 Red. masses --      2.3776                 2.9366                 2.5713
 Frc consts  --      0.6166                 0.8445                 0.7801
 IR Inten    --     10.9525                 7.0198                 1.9668

                     28                     29                     30
                      A                      A                      A
 Frequencies --    801.4739               814.4854               844.2978
 Red. masses --      1.5857                 1.9748                 1.9034
 Frc consts  --      0.6001                 0.7719                 0.7994
 IR Inten    --     17.9349                 3.6687                18.6562

                     31                     32                     33
                      A                      A                      A
 Frequencies --    913.4840               915.8982               922.4068
 Red. masses --      1.4425                 1.5991                 1.3710
 Frc consts  --      0.7092                 0.7904                 0.6873
 IR Inten    --     12.4067                 7.7027                40.9823

                     34                     35                     36
                      A                      A                      A
 Frequencies --    934.1498               950.0002               956.0000
 Red. masses --      2.0985                 1.6679                 1.2564
 Frc consts  --      1.0789                 0.8869                 0.6765
 IR Inten    --      6.4221                 5.8028                 3.9291

                     37                     38                     39
                      A                      A                      A
 Frequencies --    996.7557              1000.3267              1007.3407
 Red. masses --      1.2718                 1.3859                 1.4376
 Frc consts  --      0.7445                 0.8171                 0.8595
 IR Inten    --      3.9314                 2.8500                 3.6948

                     40                     41                     42
                      A                      A                      A
 Frequencies --   1049.4180              1052.7902              1084.9679
 Red. masses --      1.1354                 2.0641                 2.1739
 Frc consts  --      0.7367                 1.3479                 1.5077
 IR Inten    --     12.3221                 0.8751                 8.9445

                     43                     44                     45
                      A                      A                      A
 Frequencies --   1109.9759              1131.6712              1166.1170
 Red. masses --      1.6123                 1.6192                 2.4934
 Frc consts  --      1.1703                 1.2218                 1.9977
 IR Inten    --      0.4707                47.4013                12.8083

                     46                     47                     48
                      A                      A                      A
 Frequencies --   1197.9007              1254.1232              1279.6142
 Red. masses --      1.9448                 1.2977                 1.4896
 Frc consts  --      1.6443                 1.2025                 1.4370
 IR Inten    --      1.3158                 2.8045                38.5926

                     49                     50                     51
                      A                      A                      A
 Frequencies --   1286.7813              1304.5114              1317.3547
 Red. masses --      1.9870                 1.1722                 1.2296
 Frc consts  --      1.9384                 1.1753                 1.2572
 IR Inten    --     26.1935                 2.2454                 3.1176

                     52                     53                     54
                      A                      A                      A
 Frequencies --   1345.4635              1358.7544              1372.1410
 Red. masses --      1.2765                 1.3117                 1.3765
 Frc consts  --      1.3615                 1.4268                 1.5270
 IR Inten    --      1.5730                 5.3887                 5.5108

                     55                     56                     57
                      A                      A                      A
 Frequencies --   1377.5875              1421.2490              1434.0612
 Red. masses --      1.3017                 1.3470                 1.2646
 Frc consts  --      1.4555                 1.6031                 1.5323
 IR Inten    --     12.3939                 0.3041                 4.0549

                     58                     59                     60
                      A                      A                      A
 Frequencies --   1462.1201              1493.3383              1523.1418
 Red. masses --      1.5565                 1.3416                 1.0656
 Frc consts  --      1.9605                 1.7627                 1.4566
 IR Inten    --      3.5527                 6.4065                 4.6864

                     61                     62                     63
                      A                      A                      A
 Frequencies --   1530.6495              1536.5547              1662.1147
 Red. masses --      1.0776                 1.0641                 1.8724
 Frc consts  --      1.4874                 1.4803                 3.0477
 IR Inten    --      1.0368                 5.3406                39.3625

                     64                     65                     66
                      A                      A                      A
 Frequencies --   1677.7752              1698.2590              1722.9214
 Red. masses --      4.4587                 2.1742                 4.7227
 Frc consts  --      7.3948                 3.6946                 8.2599
 IR Inten    --      2.7904               158.7296                71.7543

                     67                     68                     69
                      A                      A                      A
 Frequencies --   1728.7059              2613.7743              3033.8105
 Red. masses --      5.0704                 1.0390                 1.0689
 Frc consts  --      8.9276                 4.1822                 5.7966
 IR Inten    --      2.4574                45.9196                32.7821

                     70                     71                     72
                      A                      A                      A
 Frequencies --   3045.2288              3059.2344              3098.9774
 Red. masses --      1.0355                 1.0834                 1.0854
 Frc consts  --      5.6575                 5.9741                 6.1415
 IR Inten    --     36.9565                28.7548                13.3703

                     73                     74                     75
                      A                      A                      A
 Frequencies --   3112.0590              3115.6431              3118.2008
 Red. masses --      1.1013                 1.0934                 1.1022
 Frc consts  --      6.2841                 6.2538                 6.3141
 IR Inten    --     31.0490                 6.9373                36.2209

                     76                     77                     78
                      A                      A                      A
 Frequencies --   3140.5229              3158.1059              3163.9203
 Red. masses --      1.0848                 1.0605                 1.0901
 Frc consts  --      6.3039                 6.2316                 6.4291
 IR Inten    --      4.6701                12.4025                17.9455

                     79                     80                     81
                      A                      A                      A
 Frequencies --   3167.6468              3188.9962              3214.3056
 Red. masses --      1.0928                 1.0906                 1.0919
 Frc consts  --      6.4606                 6.5344                 6.6464
 IR Inten    --     45.5585                 4.1098                 2.9506

                     82                     83                     84
                      A                      A                      A
 Frequencies --   3243.7270              3569.6821              3674.8605
 Red. masses --      1.1148                 1.0478                 1.0994
 Frc consts  --      6.9106                 7.8663                 8.7473
 IR Inten    --     16.5595                22.8699                28.4448

 - Thermochemistry -
 -------------------
 Temperature   298.150 Kelvin.  Pressure   1.00000 Atm.
 Atom     1 has atomic number  6 and mass  12.00000

 Molecular mass:   195.10817 amu.
 Principal axes and moments of inertia in atomic units:
                           1         2         3
     Eigenvalues --  2150.867614434.648605096.99985
           X            0.99998  -0.00441   0.00519
           Y            0.00425   0.99954   0.02988
           Z           -0.00532  -0.02986   0.99954
 This molecule is an asymmetric top.
 Rotational symmetry number  1.
 Warning -- assumption of classical behavior for rotation
           may cause significant error
 Rotational temperatures (Kelvin)      0.04027     0.01953     0.01699
 Rotational constants (GHZ):           0.83908     0.40696     0.35408
 Zero-point vibrational energy     672442.9 (Joules/Mol)
                                  160.71771 (Kcal/Mol)
 Warning -- explicit consideration of  23 degrees of freedom as
           vibrations may cause significant error
 Vibrational temperatures:     29.36    36.82    72.15   107.96   176.19
          (Kelvin)            188.46   228.50   266.02   274.29   315.45
                              342.28   362.28   428.41   454.01   486.72
                              515.76   552.22   592.47   640.99   653.39
                              758.75   826.32   850.70   895.51   954.56
                             1005.20  1032.44  1153.14  1171.86  1214.76
                             1314.30  1317.77  1327.14  1344.03  1366.84
                             1375.47  1434.11  1439.25  1449.34  1509.88
                             1514.73  1561.03  1597.01  1628.22  1677.78
                             1723.51  1804.40  1841.08  1851.39  1876.90
                             1895.38  1935.82  1954.94  1974.20  1982.04
                             2044.86  2063.29  2103.66  2148.58  2191.46
                             2202.26  2210.76  2391.41  2413.94  2443.42
                             2478.90  2487.22  3760.64  4364.98  4381.41
                             4401.56  4458.74  4477.56  4482.72  4486.40
                             4518.51  4543.81  4552.18  4557.54  4588.25
                             4624.67  4667.00  5135.98  5287.30

 Zero-point correction=                           0.256120 (Hartree/Particle)
 Thermal correction to Energy=                    0.271701
 Thermal correction to Enthalpy=                  0.272645
 Thermal correction to Gibbs Free Energy=         0.211824
 Sum of electronic and zero-point Energies=           -882.064061
 Sum of electronic and thermal Energies=              -882.048480
 Sum of electronic and thermal Enthalpies=            -882.047536
 Sum of electronic and thermal Free Energies=         -882.108357

                     E (Thermal)             CV                S
                      KCal/Mol        Cal/Mol-Kelvin    Cal/Mol-Kelvin
 Total                  170.495             57.307            128.008
 Electronic               0.000              0.000              0.000
 Translational            0.889              2.981             41.710
 Rotational               0.889              2.981             32.253
 Vibrational            168.717             51.346             54.045
 Vibration     1          0.593              1.986              6.594
 Vibration     2          0.593              1.985              6.145
 Vibration     3          0.595              1.978              4.812
 Vibration     4          0.599              1.966              4.017
 Vibration     5          0.610              1.930              3.061
 Vibration     6          0.612              1.922              2.931
 Vibration     7          0.621              1.893              2.564
 Vibration     8          0.631              1.860              2.278
 Vibration     9          0.634              1.853              2.222
 Vibration    10          0.647              1.812              1.965
 Vibration    11          0.656              1.783              1.819
 Vibration    12          0.664              1.760              1.718
 Vibration    13          0.691              1.678              1.429
 Vibration    14          0.703              1.644              1.333
 Vibration    15          0.719              1.599              1.220
 Vibration    16          0.733              1.558              1.129
 Vibration    17          0.753              1.505              1.024
 Vibration    18          0.776              1.445              0.920
 Vibration    19          0.805              1.371              0.809
 Vibration    20          0.813              1.352              0.783
 Vibration    21          0.882              1.189              0.593
 Vibration    22          0.931              1.087              0.496
 Vibration    23          0.949              1.050              0.465

                           ! Non-Optimized Parameters !
 Normal termination of Gaussian 16 at Sun Dec 13 16:14:39 2020.

 ----------------------------------------------------------------------
 # B3LYP/6-311++G(d,p) empiricaldispersion=gd3bj scf=xqc pop=npa geom=c
 heck
 ----------------------------------------------------------------------

 ---------------------------------------
 CID_134439334_JID_3785_Energie_neutraal
 ---------------------------------------
 Structure from the checkpoint file:  "JID_3785.chk"
 Charge =  0 Multiplicity = 1

 SCF Done:  E(RB3LYP) =  -882.495035496     A.U. after   15 cycles
 Normal termination of Gaussian 16 at Sun Dec 13 16:17:45 2020.

 ----------------------------------------------------------------------
 # B3LYP/6-311++G(d,p) empiricaldispersion=gd3bj scf=xqc pop=npa geom=c
 heck
 ----------------------------------------------------------------------

 -------------------------------------
 CID_134439334_JID_3785_Energie_kation
 -------------------------------------
 Structure from the checkpoint file:  "JID_3785.chk"
 Charge =  1 Multiplicity = 2

 SCF Done:  E(UB3LYP) =  -882.225058102     A.U. after   28 cycles
 Normal termination of Gaussian 16 at Sun Dec 13 16:25:22 2020.
 Gaussian 16:  ES64L-G16RevA.03 25-Dec-2016

 ----------------------------------------------------------------------
 # B3LYP/6-311++G(d,p) empiricaldispersion=gd3bj scf=xqc pop=npa geom=c
 heck
 ----------------------------------------------------------------------

 ------------------------------------
 CID_134439334_JID_3785_Energie_anion
 ------------------------------------
 Structure from the checkpoint file:  "JID_3785.chk"
 Charge = -1 Multiplicity = 2

                         Standard orientation:
 ---------------------------------------------------------------------
 Center     Atomic      Atomic             Coordinates (Angstroms)
 Number     Number       Type             X           Y           Z
 ---------------------------------------------------------------------
      1          6           0       -0.835406   -3.002858    0.470606
      2          6           0       -0.451311   -1.647078   -0.143006
      3          6           0       -1.607481   -1.060356   -1.006145
      4          6           0       -2.856552   -0.746002   -0.229327
      5          6           0       -3.189656    0.453536    0.282253
      6          6           0       -2.410836    1.680058    0.180167
      7          6           0       -2.797042    2.844929    0.721544
      8          6           0       -0.029218   -0.689775    0.939340
      9          6           0        1.050276    0.107245    0.950265
     10          6           0        2.055380    0.319130   -0.105566
     11          6           0        3.368291    0.444566    0.207897
     12          7           0        3.889263    0.311437    1.480388
     13         16           0        1.583754    0.747867   -1.784211
     14          1           0       -1.666320   -2.892822    1.176982
     15          1           0        0.009155   -3.440204    1.013934
     16          1           0       -1.145372   -3.710665   -0.307257
     17          1           0        0.397211   -1.811822   -0.817123
     18          1           0       -1.230479   -0.165433   -1.507803
     19          1           0       -1.846049   -1.792225   -1.790258
     20          1           0       -3.537859   -1.577175   -0.053969
     21          1           0       -4.127787    0.537763    0.831590
     22          1           0       -1.463460    1.632592   -0.351476
     23          1           0       -2.193980    3.743404    0.633167
     24          1           0       -3.730477    2.934943    1.273610
     25          1           0       -0.691108   -0.650193    1.803306
     26          1           0        1.213953    0.705169    1.851041
     27          1           0        4.089959    0.719485   -0.555114
     28          1           0        4.881464    0.131039    1.540755
     29          1           0        3.345476   -0.243961    2.128474
     30          1           0        1.352099   -0.486206   -2.293362
 ---------------------------------------------------------------------

 SCF Done:  E(UB3LYP) =  -882.487679146     A.U. after   33 cycles
 SCF Done:  E(UB3LYP) =  -882.487679146     a.u. after    1 cycles

 The electronic state is 2-A.
 Alpha  occ. eigenvalues --  -88.73331 -14.20901 -10.09510 -10.07163 -10.07126
 Alpha  occ. eigenvalues --  -10.06093 -10.05893 -10.05341 -10.05107 -10.05071
 Alpha  occ. eigenvalues --  -10.04872 -10.04837 -10.04067  -7.81974  -5.78357
 Alpha  occ. eigenvalues --   -5.77995  -5.77365  -0.80598  -0.71985  -0.69247
 Alpha  occ. eigenvalues --   -0.67613  -0.63349  -0.61641  -0.57828  -0.56916
 Alpha  occ. eigenvalues --   -0.51507  -0.48226  -0.46263  -0.42567  -0.41040
 Alpha  occ. eigenvalues --   -0.40321  -0.37210  -0.36439  -0.35198  -0.33017
 Alpha  occ. eigenvalues --   -0.32395  -0.31618  -0.31063  -0.29613  -0.27594
 Alpha  occ. eigenvalues --   -0.26956  -0.26588  -0.25215  -0.24415  -0.23890
 Alpha  occ. eigenvalues --   -0.23029  -0.21272  -0.20708  -0.19782  -0.16438
 Alpha  occ. eigenvalues --   -0.13126  -0.11435  -0.09180   0.04638
 Alpha virt. eigenvalues --    0.06200   0.07356   0.08299   0.08711   0.08965
 Alpha virt. eigenvalues --    0.09463   0.10112   0.10467   0.10773   0.11537
 Alpha virt. eigenvalues --    0.11946   0.12623   0.12686   0.13243   0.14031

  Beta  occ. eigenvalues --  -88.73322 -14.20787 -10.09419 -10.07172 -10.07118
  Beta  occ. eigenvalues --  -10.06075 -10.05898 -10.05305 -10.05069 -10.05033
  Beta  occ. eigenvalues --  -10.04750 -10.04702 -10.03898  -7.81962  -5.78350
  Beta  occ. eigenvalues --   -5.77978  -5.77356  -0.80427  -0.71851  -0.69087
  Beta  occ. eigenvalues --   -0.67459  -0.63135  -0.61505  -0.57688  -0.56802
  Beta  occ. eigenvalues --   -0.51319  -0.47935  -0.46103  -0.42447  -0.40884
  Beta  occ. eigenvalues --   -0.40187  -0.37115  -0.36338  -0.35106  -0.32915
  Beta  occ. eigenvalues --   -0.32313  -0.31539  -0.30986  -0.29524  -0.27499
  Beta  occ. eigenvalues --   -0.26870  -0.26503  -0.25092  -0.24312  -0.23809
  Beta  occ. eigenvalues --   -0.22838  -0.21182  -0.20595  -0.19257  -0.16173
  Beta  occ. eigenvalues --   -0.12981  -0.10541  -0.08901
  Beta virt. eigenvalues --    0.06940   0.07978   0.08132   0.08615   0.08685
  Beta virt. eigenvalues --    0.09450   0.09885   0.10269   0.10638   0.10847
  Beta virt. eigenvalues --    0.11555   0.11989   0.12585   0.12919   0.13351

 Mulliken charges and spin densities:
               1          2
     1  C   -0.810839  -0.092515
     2  C   -0.135101   0.044374
     3  C   -0.104504   0.022340
     4  C   -0.303913   0.135161
     5  C   -0.129561   0.043116
     6  C    0.169184  -0.013219
     7  C   -0.688923   0.190835
     8  C    0.887927  -0.173883
     9  C   -0.837111  -0.384699
    10  C    0.715633   0.098486
    11  C   -0.078586  -0.289144
    12  N   -0.054062  -0.249342
    13  S   -0.295302  -0.020008
    14  H    0.151799   0.006213
    15  H    0.137642  -0.010326
    16  H    0.023403   0.098757
    17  H    0.135780   0.005108
    18  H    0.023538   0.021846
    19  H    0.148870   0.020577
    20  H    0.131579  -0.006627
    21  H    0.121126  -0.000425
    22  H    0.096882  -0.003406
    23  H    0.115501  -0.007611
    24  H    0.087258  -0.007538
    25  H    0.142936   0.006346
    26  H    0.206878  -0.041332
    27  H   -0.078888   0.251965
    28  H   -0.700158   0.988562
    29  H   -0.072057   0.327075
    30  H   -0.006933   0.039315
 Sum of Mulliken charges =  -1.00000   1.00000

 Dipole moment (field-independent basis, Debye):
    X=             -6.9778    Y=             -2.5289    Z=             -2.6334  Tot=              7.8753
 Quadrupole moment (field-independent basis, Debye-Ang):
   XX=           -175.8284   YY=           -113.0439   ZZ=           -113.9744
   XY=              4.1194   XZ=            -19.0523   YZ=              1.9810

 Summary of Natural Population Analysis:

                                       Natural Population
                Natural  -----------------------------------------------
    Atom  No    Charge         Core      Valence    Rydberg      Total
 -----------------------------------------------------------------------
      C    1   -0.27730      0.99962     2.27309    0.00459     3.27730
      C    2   -0.12670      0.99958     2.11608    0.01103     3.12670
      C    3   -0.20898      0.99960     2.19864    0.01073     3.20898
      C    4   -0.05582      0.99955     2.04711    0.00916     3.05582
      C    5   -0.10987      0.99952     2.10106    0.00929     3.10987
      C    6   -0.10522      0.99956     2.09657    0.00909     3.10522
      C    7   -0.16230      0.99960     2.15531    0.00739     3.16230
      C    8   -0.06560      0.99953     2.05418    0.01189     3.06560
      C    9   -0.11426      0.99948     2.10224    0.01254     3.11426
      C   10   -0.16649      0.99937     2.15467    0.01245     3.16649
      C   11    0.04298      0.99944     1.94236    0.01521     2.95702
      N   12   -0.38978      0.99973     2.87867    0.01138     3.88978
      S   13   -0.01090      4.99958     2.99403    0.01729     8.01090
      H   14    0.09675      0.00000     0.40231    0.00094     0.40325
      H   15    0.09848      0.00000     0.40070    0.00082     0.40152
      H   16    0.09272      0.00000     0.40576    0.00152     0.40728
      H   17    0.09745      0.00000     0.40157    0.00098     0.40255
      H   18    0.10859      0.00000     0.38941    0.00200     0.39141
      H   19    0.09525      0.00000     0.40392    0.00083     0.40475
      H   20    0.08577      0.00000     0.41330    0.00093     0.41423
      H   21    0.08743      0.00000     0.41084    0.00173     0.41257
      H   22    0.10072      0.00000     0.39762    0.00165     0.39928
      H   23    0.08729      0.00000     0.41177    0.00094     0.41271
      H   24    0.08011      0.00000     0.41869    0.00121     0.41989
      H   25    0.09414      0.00000     0.40471    0.00115     0.40586
      H   26    0.09630      0.00000     0.40156    0.00215     0.40370
      H   27    0.09442      0.00000     0.40436    0.00122     0.40558
      H   28    0.19675      0.00000     0.27699    0.02626     0.30325
      H   29    0.19082      0.00000     0.30675    0.00244     0.30918
      H   30    0.04732      0.00000     0.44908    0.00361     0.45268
 =======================================================================
   * Total *    0.00007     16.99417    35.81334    0.19242    52.99993

 Normal termination of Gaussian 16 at Sun Dec 13 16:34:23 2020.
