 Gaussian 16, Revision A.03,

 -----------------------------------------------------------
 # opt freq B3LYP/6-31G(d) empiricaldispersion=gd3bj scf=xqc
 -----------------------------------------------------------

 -------------------------------
 CID_103822947_JID_7450_neutraal
 -------------------------------
 Symbolic Z-matrix:
 Charge =  0 Multiplicity = 1

 SCF Done:  E(RB3LYP) =  -1055.70137736     A.U. after   15 cycles
 SCF Done:  E(RB3LYP) =  -1055.70737762     A.U. after   12 cycles
 SCF Done:  E(RB3LYP) =  -1055.70834165     A.U. after   12 cycles
 SCF Done:  E(RB3LYP) =  -1055.70962144     A.U. after   13 cycles
 SCF Done:  E(RB3LYP) =  -1055.70802952     A.U. after   15 cycles
 SCF Done:  E(RB3LYP) =  -1055.71169634     A.U. after   13 cycles
 SCF Done:  E(RB3LYP) =  -1055.71292470     A.U. after   14 cycles
 SCF Done:  E(RB3LYP) =  -1055.71379256     A.U. after   12 cycles
 SCF Done:  E(RB3LYP) =  -1055.71393682     A.U. after   11 cycles
 SCF Done:  E(RB3LYP) =  -1055.71396593     A.U. after   10 cycles
 SCF Done:  E(RB3LYP) =  -1055.71398924     A.U. after    8 cycles
 SCF Done:  E(RB3LYP) =  -1055.71398989     A.U. after    8 cycles
 SCF Done:  E(RB3LYP) =  -1055.71399008     A.U. after    7 cycles
 SCF Done:  E(RB3LYP) =  -1055.71399021     A.U. after    7 cycles
 SCF Done:  E(RB3LYP) =  -1055.71399025     A.U. after    7 cycles
 Optimization completed.
    -- Stationary point found.
 Normal termination of Gaussian 16 at Fri Dec 11 12:18:31 2020.

 --------------------------------------------------------------------
 #N Geom=AllCheck Guess=TCheck SCRF=Check GenChk RB3LYP/6-31G(d) Freq
 --------------------------------------------------------------------

 Structure from the checkpoint file:  "JID_7450.chk"
 -------------------------------
 CID_103822947_JID_7450_neutraal
 -------------------------------
 Charge =  0 Multiplicity = 1

 SCF Done:  E(RB3LYP) =  -1055.71399025     A.U. after    1 cycles

  Exact polarizability: 213.968  -3.585 165.811  -1.668  10.701 135.822
 Approx polarizability: 270.337  -3.595 260.857  -4.330  35.698 217.104

                      1                      2                      3
                      A                      A                      A
 Frequencies --     21.3653                26.0973                41.2766
 Red. masses --      4.1681                 3.6994                 4.0640
 Frc consts  --      0.0011                 0.0015                 0.0041
 IR Inten    --      0.1013                 0.0223                 0.0505

                      4                      5                      6
                      A                      A                      A
 Frequencies --     61.3673                64.3633                72.2565
 Red. masses --      1.1597                 2.5363                 1.8979
 Frc consts  --      0.0026                 0.0062                 0.0058
 IR Inten    --      0.3213                 0.3891                 0.0421

                      7                      8                      9
                      A                      A                      A
 Frequencies --     99.8484               120.8767               151.1559
 Red. masses --      2.1235                 3.6542                 2.7343
 Frc consts  --      0.0125                 0.0315                 0.0368
 IR Inten    --      0.5560                 1.6637                 0.8891

                     10                     11                     12
                      A                      A                      A
 Frequencies --    171.3038               193.2882               222.0400
 Red. masses --      2.4777                 2.8588                 2.6927
 Frc consts  --      0.0428                 0.0629                 0.0782
 IR Inten    --      0.6144                 0.5882                 0.2431

                     13                     14                     15
                      A                      A                      A
 Frequencies --    238.2322               239.9683               260.7358
 Red. masses --      1.5354                 1.7622                 1.5741
 Frc consts  --      0.0513                 0.0598                 0.0631
 IR Inten    --      0.1937                 1.4454                 0.6549

                     16                     17                     18
                      A                      A                      A
 Frequencies --    288.1207               291.1989               307.0461
 Red. masses --      3.0378                 2.2173                 1.9453
 Frc consts  --      0.1486                 0.1108                 0.1081
 IR Inten    --      0.2197                 1.0840                 0.1503

                     19                     20                     21
                      A                      A                      A
 Frequencies --    336.9661               375.1843               403.1097
 Red. masses --      3.4541                 2.5772                 2.9864
 Frc consts  --      0.2311                 0.2137                 0.2859
 IR Inten    --      4.3723                 0.6892                 0.8036

                     22                     23                     24
                      A                      A                      A
 Frequencies --    438.3931               482.9016               521.7519
 Red. masses --      3.0250                 2.8340                 4.3526
 Frc consts  --      0.3425                 0.3894                 0.6981
 IR Inten    --      2.0393                 3.0450                 1.2517

                     25                     26                     27
                      A                      A                      A
 Frequencies --    549.6552               559.5612               583.1659
 Red. masses --      2.9884                 2.9364                 5.6337
 Frc consts  --      0.5320                 0.5417                 1.1288
 IR Inten    --      0.9947                 1.8228                 0.9360

                     28                     29                     30
                      A                      A                      A
 Frequencies --    635.7040               646.4794               663.5340
 Red. masses --      4.0998                 3.6314                 3.6409
 Frc consts  --      0.9762                 0.8942                 0.9445
 IR Inten    --      8.0066                 5.5265                 6.1674

                     31                     32                     33
                      A                      A                      A
 Frequencies --    718.9950               747.4425               776.9913
 Red. masses --      3.1550                 1.9398                 1.2859
 Frc consts  --      0.9610                 0.6385                 0.4574
 IR Inten    --      0.6522                 3.9981                31.2584

                     34                     35                     36
                      A                      A                      A
 Frequencies --    781.1547               804.1457               808.6430
 Red. masses --      1.3240                 1.3892                 1.4748
 Frc consts  --      0.4760                 0.5293                 0.5682
 IR Inten    --      2.3012                 0.4626                37.5364

                     37                     38                     39
                      A                      A                      A
 Frequencies --    852.0080               855.6616               896.7557
 Red. masses --      2.6024                 2.1848                 2.6367
 Frc consts  --      1.1131                 0.9424                 1.2493
 IR Inten    --     16.9849                 5.4712                 0.5434

                     40                     41                     42
                      A                      A                      A
 Frequencies --    898.9116               923.1374               935.6328
 Red. masses --      2.3062                 1.8685                 1.9882
 Frc consts  --      1.0980                 0.9381                 1.0255
 IR Inten    --      0.8191                 8.6317                 2.5989

                     43                     44                     45
                      A                      A                      A
 Frequencies --    950.8215               969.8085              1007.8938
 Red. masses --      2.0113                 2.9353                 1.5784
 Frc consts  --      1.0713                 1.6266                 0.9447
 IR Inten    --      2.1874                11.1093                 3.9522

                     46                     47                     48
                      A                      A                      A
 Frequencies --   1017.1723              1024.7537              1043.8669
 Red. masses --      1.8267                 1.7289                 1.8891
 Frc consts  --      1.1135                 1.0697                 1.2128
 IR Inten    --      9.7627                 0.9617                 0.9054

                     49                     50                     51
                      A                      A                      A
 Frequencies --   1051.1008              1060.4017              1063.9183
 Red. masses --      2.0158                 1.9215                 1.4203
 Frc consts  --      1.3122                 1.2730                 0.9472
 IR Inten    --      0.9606                 0.6409                 0.6671

                     52                     53                     54
                      A                      A                      A
 Frequencies --   1082.9297              1090.7848              1100.5076
 Red. masses --      1.6410                 2.1655                 1.9261
 Frc consts  --      1.1338                 1.5180                 1.3744
 IR Inten    --      1.7943                 1.5497                 0.9396

                     55                     56                     57
                      A                      A                      A
 Frequencies --   1134.1206              1147.0886              1167.1919
 Red. masses --      1.9099                 2.0530                 2.0386
 Frc consts  --      1.4473                 1.5916                 1.6363
 IR Inten    --      1.4072                42.6349                50.2599

                     58                     59                     60
                      A                      A                      A
 Frequencies --   1183.6235              1207.8396              1212.8245
 Red. masses --      2.0156                 2.9739                 1.6975
 Frc consts  --      1.6637                 2.5562                 1.4711
 IR Inten    --     23.7113                45.5774                14.2130

                     61                     62                     63
                      A                      A                      A
 Frequencies --   1241.8532              1244.5430              1265.6172
 Red. masses --      1.7143                 1.6665                 1.4989
 Frc consts  --      1.5577                 1.5208                 1.4145
 IR Inten    --     15.2243                 1.3490                 1.2450

                     64                     65                     66
                      A                      A                      A
 Frequencies --   1284.7994              1297.7894              1321.4439
 Red. masses --      1.3966                 1.4552                 1.3746
 Frc consts  --      1.3583                 1.4441                 1.4142
 IR Inten    --     12.5417                 9.5780                 1.2567

                     67                     68                     69
                      A                      A                      A
 Frequencies --   1327.9787              1330.5012              1353.3678
 Red. masses --      1.6113                 1.3126                 1.3469
 Frc consts  --      1.6742                 1.3690                 1.4535
 IR Inten    --      8.4186                 4.7376                 2.4052

                     70                     71                     72
                      A                      A                      A
 Frequencies --   1355.6488              1362.2954              1373.1643
 Red. masses --      1.3532                 1.3688                 1.8054
 Frc consts  --      1.4653                 1.4967                 2.0057
 IR Inten    --      9.8841                 2.4928                 5.2983

                     73                     74                     75
                      A                      A                      A
 Frequencies --   1391.1433              1399.6890              1422.8164
 Red. masses --      1.5681                 1.5082                 1.3649
 Frc consts  --      1.7880                 1.7409                 1.6280
 IR Inten    --     10.4096                 2.3428                 3.8529

                     76                     77                     78
                      A                      A                      A
 Frequencies --   1429.3885              1433.4332              1444.1158
 Red. masses --      1.2756                 1.2679                 1.2548
 Frc consts  --      1.5355                 1.5349                 1.5419
 IR Inten    --      7.7218                 2.1572                 3.3325

                     79                     80                     81
                      A                      A                      A
 Frequencies --   1501.2361              1505.3150              1508.1261
 Red. masses --      1.1914                 1.1813                 1.0438
 Frc consts  --      1.5820                 1.5772                 1.3987
 IR Inten    --     43.3751                19.9336                 8.4423

                     82                     83                     84
                      A                      A                      A
 Frequencies --   1517.5525              1520.1525              1522.5075
 Red. masses --      1.0776                 1.0642                 1.0715
 Frc consts  --      1.4621                 1.4489                 1.4634
 IR Inten    --      1.0035                 3.9232                 3.4945

                     85                     86                     87
                      A                      A                      A
 Frequencies --   1525.9842              1528.5524              1533.6242
 Red. masses --      1.0736                 1.0764                 1.0607
 Frc consts  --      1.4730                 1.4818                 1.4699
 IR Inten    --      0.6749                12.3351                 2.3587

                     88                     89                     90
                      A                      A                      A
 Frequencies --   1537.0764              1539.7450              1543.0048
 Red. masses --      1.1068                 1.0666                 1.0832
 Frc consts  --      1.5407                 1.4899                 1.5194
 IR Inten    --     17.1799                 5.2093                12.7037

                     91                     92                     93
                      A                      A                      A
 Frequencies --   1555.8565              1556.9352              1590.5439
 Red. masses --      1.7516                 1.8134                 6.8001
 Frc consts  --      2.4982                 2.5899                10.1358
 IR Inten    --      2.4928                 1.5088                52.1121

                     94                     95                     96
                      A                      A                      A
 Frequencies --   2979.9943              3020.6296              3022.8089
 Red. masses --      1.0696                 1.0827                 1.0693
 Frc consts  --      5.5962                 5.8205                 5.7569
 IR Inten    --     56.2831                10.0311                26.7351

                     97                     98                     99
                      A                      A                      A
 Frequencies --   3047.3845              3050.4185              3052.9954
 Red. masses --      1.0388                 1.0406                 1.0668
 Frc consts  --      5.6836                 5.7048                 5.8584
 IR Inten    --     16.7076                19.3394                21.2683

                    100                    101                    102
                      A                      A                      A
 Frequencies --   3053.8453              3055.9622              3059.0125
 Red. masses --      1.0629                 1.0371                 1.0822
 Frc consts  --      5.8402                 5.7065                 5.9665
 IR Inten    --      9.5356                21.1306                65.8257

                    103                    104                    105
                      A                      A                      A
 Frequencies --   3063.0886              3070.8977              3081.4055
 Red. masses --      1.0620                 1.0655                 1.0940
 Frc consts  --      5.8707                 5.9204                 6.1203
 IR Inten    --     43.5117                45.3832                 3.3264

                    106                    107                    108
                      A                      A                      A
 Frequencies --   3084.5223              3094.4737              3101.3515
 Red. masses --      1.1002                 1.0981                 1.1049
 Frc consts  --      6.1676                 6.1954                 6.2615
 IR Inten    --     11.3592                29.2650                24.2411

                    109                    110                    111
                      A                      A                      A
 Frequencies --   3110.1120              3110.6420              3116.1613
 Red. masses --      1.1010                 1.1016                 1.1044
 Frc consts  --      6.2749                 6.2803                 6.3188
 IR Inten    --     35.0087                11.8017               111.4138

                    112                    113                    114
                      A                      A                      A
 Frequencies --   3118.5888              3118.7607              3149.6226
 Red. masses --      1.1004                 1.1005                 1.1011
 Frc consts  --      6.3055                 6.3067                 6.4359
 IR Inten    --      2.1189                74.0816                19.5383

                    115                    116                    117
                      A                      A                      A
 Frequencies --   3157.7239              3300.7133              3484.7993
 Red. masses --      1.1008                 1.0939                 1.0729
 Frc consts  --      6.4671                 7.0218                 7.6769
 IR Inten    --      5.1714                 1.5444                 0.2854

 - Thermochemistry -
 -------------------
 Temperature   298.150 Kelvin.  Pressure   1.00000 Atm.
 Atom     1 has atomic number  6 and mass  12.00000

 Molecular mass:   252.16602 amu.
 Principal axes and moments of inertia in atomic units:
                           1         2         3
     Eigenvalues --  2059.42936********************
           X            0.99993   0.01182   0.00298
           Y           -0.01176   0.99973  -0.01984
           Z           -0.00321   0.01981   0.99980
 This molecule is an asymmetric top.
 Rotational symmetry number  1.
 Warning -- assumption of classical behavior for rotation
           may cause significant error
 Rotational temperatures (Kelvin)      0.04206     0.00853     0.00780
 Rotational constants (GHZ):           0.87633     0.17772     0.16251
 Zero-point vibrational energy     959134.6 (Joules/Mol)
                                  229.23868 (Kcal/Mol)
 Warning -- explicit consideration of  27 degrees of freedom as
           vibrations may cause significant error
 Vibrational temperatures:     30.74    37.55    59.39    88.29    92.60
          (Kelvin)            103.96   143.66   173.91   217.48   246.47
                              278.10   319.47   342.76   345.26   375.14
                              414.54   418.97   441.77   484.82   539.81
                              579.98   630.75   694.79   750.68   790.83
                              805.08   839.05   914.64   930.14   954.68
                             1034.47  1075.40  1117.92  1123.91  1156.99
                             1163.46  1225.85  1231.11  1290.23  1293.33
                             1328.19  1346.17  1368.02  1395.34  1450.13
                             1463.48  1474.39  1501.89  1512.30  1525.68
                             1530.74  1558.09  1569.40  1583.38  1631.75
                             1650.40  1679.33  1702.97  1737.81  1744.98
                             1786.75  1790.62  1820.94  1848.54  1867.23
                             1901.26  1910.67  1914.29  1947.19  1950.48
                             1960.04  1975.68  2001.54  2013.84  2047.12
                             2056.57  2062.39  2077.76  2159.94  2165.81
                             2169.86  2183.42  2187.16  2190.55  2195.55
                             2199.25  2206.54  2211.51  2215.35  2220.04
                             2238.53  2240.08  2288.44  4287.55  4346.01
                             4349.15  4384.51  4388.87  4392.58  4393.80
                             4396.85  4401.24  4407.10  4418.34  4433.46
                             4437.94  4452.26  4462.15  4474.76  4475.52
                             4483.46  4486.95  4487.20  4531.60  4543.26
                             4748.99  5013.85

 Zero-point correction=                           0.365315 (Hartree/Particle)
 Thermal correction to Energy=                    0.383994
 Thermal correction to Enthalpy=                  0.384938
 Thermal correction to Gibbs Free Energy=         0.316327
 Sum of electronic and zero-point Energies=          -1055.348675
 Sum of electronic and thermal Energies=             -1055.329997
 Sum of electronic and thermal Enthalpies=           -1055.329053
 Sum of electronic and thermal Free Energies=        -1055.397663

                     E (Thermal)             CV                S
                      KCal/Mol        Cal/Mol-Kelvin    Cal/Mol-Kelvin
 Total                  240.960             70.048            144.403
 Electronic               0.000              0.000              0.000
 Translational            0.889              2.981             42.475
 Rotational               0.889              2.981             33.807
 Vibrational            239.182             64.086             68.122
 Vibration     1          0.593              1.985              6.503
 Vibration     2          0.593              1.985              6.106
 Vibration     3          0.594              1.981              5.197
 Vibration     4          0.597              1.973              4.413
 Vibration     5          0.597              1.971              4.319
 Vibration     6          0.598              1.967              4.091
 Vibration     7          0.604              1.949              3.457
 Vibration     8          0.609              1.932              3.086
 Vibration     9          0.619              1.901              2.658
 Vibration    10          0.626              1.878              2.421
 Vibration    11          0.635              1.849              2.196
 Vibration    12          0.648              1.808              1.942
 Vibration    13          0.656              1.782              1.816
 Vibration    14          0.657              1.779              1.803
 Vibration    15          0.669              1.745              1.657
 Vibration    16          0.685              1.696              1.485
 Vibration    17          0.687              1.690              1.467
 Vibration    18          0.697              1.660              1.378
 Vibration    19          0.718              1.602              1.226
 Vibration    20          0.746              1.523              1.059
 Vibration    21          0.769              1.463              0.951
 Vibration    22          0.799              1.386              0.832
 Vibration    23          0.839              1.288              0.702
 Vibration    24          0.877              1.202              0.606
 Vibration    25          0.905              1.140              0.545
 Vibration    26          0.915              1.119              0.525
 Vibration    27          0.940              1.068              0.480

                           ! Non-Optimized Parameters !
 Normal termination of Gaussian 16 at Fri Dec 11 12:35:44 2020.

 ----------------------------------------------------------------------
 # B3LYP/6-311++G(d,p) empiricaldispersion=gd3bj scf=xqc pop=npa geom=c
 heck
 ----------------------------------------------------------------------

 ---------------------------------------
 CID_103822947_JID_7450_Energie_neutraal
 ---------------------------------------
 Structure from the checkpoint file:  "JID_7450.chk"
 Charge =  0 Multiplicity = 1

 SCF Done:  E(RB3LYP) =  -1055.91864189     A.U. after   15 cycles
 Normal termination of Gaussian 16 at Fri Dec 11 12:45:40 2020.

 ----------------------------------------------------------------------
 # B3LYP/6-311++G(d,p) empiricaldispersion=gd3bj scf=xqc pop=npa geom=c
 heck
 ----------------------------------------------------------------------

 -------------------------------------
 CID_103822947_JID_7450_Energie_kation
 -------------------------------------
 Structure from the checkpoint file:  "JID_7450.chk"
 Charge =  1 Multiplicity = 2

 SCF Done:  E(UB3LYP) =  -1055.62712145     A.U. after   24 cycles
 Normal termination of Gaussian 16 at Fri Dec 11 13:05:15 2020.
 Gaussian 16:  ES64L-G16RevA.03 25-Dec-2016

 ----------------------------------------------------------------------
 # B3LYP/6-311++G(d,p) empiricaldispersion=gd3bj scf=xqc pop=npa geom=c
 heck
 ----------------------------------------------------------------------

 ------------------------------------
 CID_103822947_JID_7450_Energie_anion
 ------------------------------------
 Structure from the checkpoint file:  "JID_7450.chk"
 Charge = -1 Multiplicity = 2

                         Standard orientation:
 ---------------------------------------------------------------------
 Center     Atomic      Atomic             Coordinates (Angstroms)
 Number     Number       Type             X           Y           Z
 ---------------------------------------------------------------------
      1          6           0        3.404633    2.751025   -0.648112
      2          6           0        2.506128    1.572202   -1.032297
      3          6           0        2.753537    0.243098   -0.290960
      4          6           0        4.093284   -0.435590   -0.667249
      5          6           0        4.463072   -1.361714    0.524020
      6          6           0        3.520078   -0.954741    1.690820
      7          6           0        2.898930    0.378002    1.241437
      8          6           0        1.607637   -0.731973   -0.653578
      9          7           0        0.321630   -0.312330   -0.103291
     10          6           0       -0.851344   -0.968568   -0.685615
     11          6           0       -0.950762   -2.476867   -0.396341
     12          6           0       -2.097473   -0.242970   -0.229764
     13          6           0       -2.122731    0.959381    0.416582
     14         16           0       -3.761885    1.434053    0.739328
     15          6           0       -4.308066   -0.052339   -0.039121
     16          7           0       -3.339445   -0.801255   -0.478634
     17          6           0       -5.761092   -0.389855   -0.163771
     18          1           0        3.215260    3.091648    0.375374
     19          1           0        3.219724    3.601630   -1.313642
     20          1           0        4.470011    2.503290   -0.723905
     21          1           0        1.457255    1.850325   -0.878379
     22          1           0        2.615261    1.377607   -2.109226
     23          1           0        4.017445   -0.979294   -1.616479
     24          1           0        4.866265    0.328358   -0.803808
     25          1           0        5.514028   -1.232855    0.802454
     26          1           0        4.336865   -2.418514    0.267719
     27          1           0        4.047075   -0.867294    2.646295
     28          1           0        2.739017   -1.711217    1.831861
     29          1           0        3.594687    1.194529    1.464947
     30          1           0        1.957923    0.621098    1.747316
     31          1           0        1.509310   -0.744065   -1.746832
     32          1           0        1.884959   -1.758246   -0.360718
     33          1           0        0.311981   -0.477336    0.902041
     34          1           0       -0.770196   -0.836813   -1.774586
     35          1           0       -0.987784   -2.653033    0.686038
     36          1           0       -1.860204   -2.893912   -0.835953
     37          1           0       -0.084390   -3.007862   -0.803441
     38          1           0       -1.279836    1.575646    0.688619
     39          1           0       -6.243262   -0.460483    0.817853
     40          1           0       -6.300835    0.366044   -0.745512
     41          1           0       -5.850683   -1.353535   -0.670114
 ---------------------------------------------------------------------

 SCF Done:  E(UB3LYP) =  -1055.90539112     A.U. after   33 cycles
 SCF Done:  E(UB3LYP) =  -1055.90539112     a.u. after    1 cycles

 The electronic state is 2-A.
 Alpha  occ. eigenvalues --  -88.77585 -14.20916 -14.20225 -10.13532 -10.11158
 Alpha  occ. eigenvalues --  -10.10167 -10.09370 -10.08968 -10.08784 -10.08151
 Alpha  occ. eigenvalues --  -10.06922 -10.06857 -10.06658 -10.06636 -10.06561
 Alpha  occ. eigenvalues --  -10.06538 -10.06145  -7.86236  -5.82503  -5.82161
 Alpha  occ. eigenvalues --   -5.81850  -0.86356  -0.81832  -0.75034  -0.69408
 Alpha  occ. eigenvalues --   -0.68982  -0.67400  -0.64954  -0.61809  -0.60889
 Alpha  occ. eigenvalues --   -0.59594  -0.55565  -0.52633  -0.51669  -0.48023
 Alpha  occ. eigenvalues --   -0.47125  -0.44471  -0.43081  -0.40586  -0.38597
 Alpha  occ. eigenvalues --   -0.37685  -0.37143  -0.35100  -0.34819  -0.34692
 Alpha  occ. eigenvalues --   -0.34464  -0.33499  -0.32465  -0.31565  -0.31164
 Alpha  occ. eigenvalues --   -0.29546  -0.29016  -0.28760  -0.28407  -0.27863
 Alpha  occ. eigenvalues --   -0.26502  -0.26242  -0.26130  -0.24608  -0.24408
 Alpha  occ. eigenvalues --   -0.24206  -0.22471  -0.22281  -0.21519  -0.21022
 Alpha  occ. eigenvalues --   -0.18412  -0.17661  -0.13977  -0.13286   0.04209
 Alpha virt. eigenvalues --    0.05520   0.06301   0.06615   0.07009   0.07463
 Alpha virt. eigenvalues --    0.08686   0.08918   0.09110   0.09345   0.09517
 Alpha virt. eigenvalues --    0.09929   0.10186   0.11122   0.11231   0.11768

  Beta  occ. eigenvalues --  -88.77572 -14.20903 -14.20222 -10.13403 -10.11157
  Beta  occ. eigenvalues --  -10.10165 -10.09356 -10.08865 -10.08771 -10.08152
  Beta  occ. eigenvalues --  -10.06905 -10.06837 -10.06644 -10.06621 -10.06547
  Beta  occ. eigenvalues --  -10.06524 -10.06126  -7.86223  -5.82498  -5.82157
  Beta  occ. eigenvalues --   -5.81805  -0.86259  -0.81819  -0.75016  -0.69305
  Beta  occ. eigenvalues --   -0.68876  -0.67362  -0.64908  -0.61779  -0.60855
  Beta  occ. eigenvalues --   -0.59527  -0.55516  -0.52580  -0.51602  -0.47912
  Beta  occ. eigenvalues --   -0.47058  -0.44407  -0.43006  -0.40549  -0.38554
  Beta  occ. eigenvalues --   -0.37647  -0.37092  -0.35026  -0.34669  -0.34649
  Beta  occ. eigenvalues --   -0.34427  -0.33458  -0.32431  -0.31505  -0.31114
  Beta  occ. eigenvalues --   -0.29512  -0.28951  -0.28653  -0.28347  -0.27825
  Beta  occ. eigenvalues --   -0.26455  -0.26164  -0.26104  -0.24567  -0.24372
  Beta  occ. eigenvalues --   -0.24170  -0.22445  -0.22260  -0.21494  -0.21002
  Beta  occ. eigenvalues --   -0.18119  -0.17622  -0.13643  -0.13130
  Beta virt. eigenvalues --    0.06088   0.06402   0.06954   0.07101   0.07525
  Beta virt. eigenvalues --    0.07755   0.08869   0.09049   0.09243   0.09542
  Beta virt. eigenvalues --    0.09701   0.10086   0.10598   0.11189   0.11296

 Mulliken charges and spin densities:
               1          2
     1  C    0.334020  -0.958606
     2  C   -0.779948   0.608739
     3  C    1.028684   0.416917
     4  C   -0.318177  -0.101753
     5  C    0.398031  -0.910171
     6  C   -0.040062  -0.341994
     7  C   -0.343011  -0.178475
     8  C   -1.127474  -0.271019
     9  N    0.228220   0.023082
    10  C    0.350485  -0.359963
    11  C   -0.137336  -0.410862
    12  C   -1.167637  -0.363588
    13  C    0.349003   0.477263
    14  S   -0.365763  -0.164826
    15  C   -0.493384   0.841752
    16  N    0.100680   0.064018
    17  C    1.066126  -1.324937
    18  H   -0.070842   0.214519
    19  H   -0.074914   0.213208
    20  H   -0.050854   0.185535
    21  H    0.225255  -0.054829
    22  H   -0.011701   0.151057
    23  H   -0.099204   0.248351
    24  H   -0.077624   0.237109
    25  H   -0.197140   0.344542
    26  H   -0.167612   0.314090
    27  H   -0.284425   0.455690
    28  H    0.070070   0.069695
    29  H    0.003712   0.140545
    30  H   -0.002019   0.134371
    31  H    0.083251   0.070075
    32  H    0.523574  -0.351921
    33  H    0.267356  -0.077451
    34  H    0.073908   0.107268
    35  H   -0.028587   0.175191
    36  H    0.129650   0.027758
    37  H   -0.220562   0.372825
    38  H    0.089729   0.226108
    39  H   -0.348624   0.523277
    40  H    0.071585   0.079791
    41  H    0.013562   0.147616
 Sum of Mulliken charges =  -1.00000   1.00000

 Dipole moment (field-independent basis, Debye):
    X=             -1.7078    Y=              1.2760    Z=             -1.3901  Tot=              2.5450
 Quadrupole moment (field-independent basis, Debye-Ang):
   XX=           -232.4769   YY=           -155.8999   ZZ=           -146.5990
   XY=             -5.6804   XZ=              2.9879   YZ=              0.3290

 Summary of Natural Population Analysis:

                                       Natural Population
                Natural  -----------------------------------------------
    Atom  No    Charge         Core      Valence    Rydberg      Total
 -----------------------------------------------------------------------
      C    1   -0.28509      0.99966     2.28126    0.00416     3.28509
      C    2   -0.18969      0.99958     2.18184    0.00827     3.18969
      C    3   -0.03934      0.99955     2.02573    0.01406     3.03934
      C    4   -0.19062      0.99959     2.18116    0.00987     3.19062
      C    5   -0.19449      0.99965     2.18690    0.00795     3.19449
      C    6   -0.19338      0.99964     2.18563    0.00810     3.19338
      C    7   -0.19357      0.99959     2.18466    0.00932     3.19357
      C    8   -0.08424      0.99956     2.07284    0.01184     3.08424
      N    9   -0.34266      0.99974     2.83229    0.01064     3.84266
      C   10   -0.01555      0.99956     2.00394    0.01204     3.01555
      C   11   -0.29189      0.99965     2.28755    0.00469     3.29189
      C   12    0.06186      0.99946     1.92456    0.01411     2.93814
      C   13   -0.18822      0.99945     2.17971    0.00907     3.18822
      S   14    0.17424      4.99943     2.80674    0.01959     7.82576
      C   15    0.05926      0.99963     1.92334    0.01777     2.94074
      N   16   -0.25242      0.99963     2.74200    0.01079     3.75242
      C   17   -0.30836      0.99961     2.30250    0.00625     3.30836
      H   18    0.09615      0.00000     0.40275    0.00110     0.40385
      H   19    0.09780      0.00000     0.40133    0.00087     0.40220
      H   20    0.09558      0.00000     0.40321    0.00121     0.40442
      H   21    0.10675      0.00000     0.39162    0.00162     0.39325
      H   22    0.09307      0.00000     0.40584    0.00109     0.40693
      H   23    0.09953      0.00000     0.39941    0.00106     0.40047
      H   24    0.09926      0.00000     0.39945    0.00129     0.40074
      H   25    0.09833      0.00000     0.40043    0.00125     0.40167
      H   26    0.09741      0.00000     0.40144    0.00115     0.40259
      H   27    0.09978      0.00000     0.39923    0.00099     0.40022
      H   28    0.09366      0.00000     0.40500    0.00133     0.40634
      H   29    0.10017      0.00000     0.39848    0.00135     0.39983
      H   30    0.09972      0.00000     0.39915    0.00113     0.40028
      H   31    0.09441      0.00000     0.40428    0.00130     0.40559
      H   32    0.08561      0.00000     0.41283    0.00157     0.41439
      H   33    0.17129      0.00000     0.32569    0.00302     0.32871
      H   34    0.09629      0.00000     0.40205    0.00166     0.40371
      H   35    0.09616      0.00000     0.40256    0.00128     0.40384
      H   36    0.10912      0.00000     0.38952    0.00135     0.39088
      H   37    0.09828      0.00000     0.40071    0.00101     0.40172
      H   38    0.11815      0.00000     0.38044    0.00141     0.38185
      H   39    0.11085      0.00000     0.38650    0.00265     0.38915
      H   40    0.10412      0.00000     0.39499    0.00089     0.39588
      H   41    0.11264      0.00000     0.38610    0.00126     0.38736
 =======================================================================
   * Total *   -0.00000     20.99299    47.79564    0.21137    69.00000

 Normal termination of Gaussian 16 at Fri Dec 11 13:28:55 2020.
