 Gaussian 16, Revision A.03,

 -----------------------------------------------------------
 # opt freq B3LYP/6-31G(d) empiricaldispersion=gd3bj scf=xqc
 -----------------------------------------------------------

 ------------------------------
 CID_63306658_JID_7949_neutraal
 ------------------------------
 Symbolic Z-matrix:
 Charge =  0 Multiplicity = 1

 SCF Done:  E(RB3LYP) =  -747.575081822     A.U. after   15 cycles
 SCF Done:  E(RB3LYP) =  -747.579996771     A.U. after   12 cycles
 SCF Done:  E(RB3LYP) =  -747.580616245     A.U. after   13 cycles
 SCF Done:  E(RB3LYP) =  -747.580850746     A.U. after   12 cycles
 SCF Done:  E(RB3LYP) =  -747.581321876     A.U. after   12 cycles
 SCF Done:  E(RB3LYP) =  -747.581743985     A.U. after   12 cycles
 SCF Done:  E(RB3LYP) =  -747.582122497     A.U. after   12 cycles
 SCF Done:  E(RB3LYP) =  -747.582811090     A.U. after   13 cycles
 SCF Done:  E(RB3LYP) =  -747.583108937     A.U. after   11 cycles
 SCF Done:  E(RB3LYP) =  -747.583242774     A.U. after   11 cycles
 SCF Done:  E(RB3LYP) =  -747.583975938     A.U. after   10 cycles
 SCF Done:  E(RB3LYP) =  -747.583982218     A.U. after    9 cycles
 SCF Done:  E(RB3LYP) =  -747.583984285     A.U. after    9 cycles
 SCF Done:  E(RB3LYP) =  -747.583984858     A.U. after    8 cycles
 SCF Done:  E(RB3LYP) =  -747.583984937     A.U. after    7 cycles
 Optimization completed.
    -- Stationary point found.
 Normal termination of Gaussian 16 at Mon Dec 14 13:26:44 2020.

 --------------------------------------------------------------------
 #N Geom=AllCheck Guess=TCheck SCRF=Check GenChk RB3LYP/6-31G(d) Freq
 --------------------------------------------------------------------

 Structure from the checkpoint file:  "JID_7949.chk"
 ------------------------------
 CID_63306658_JID_7949_neutraal
 ------------------------------
 Charge =  0 Multiplicity = 1

 SCF Done:  E(RB3LYP) =  -747.583984937     A.U. after    1 cycles

  Exact polarizability: 209.719  -0.122 159.754 -12.777 -10.607 104.358
 Approx polarizability: 261.791  -7.202 261.530 -21.457 -19.738 158.262

                      1                      2                      3
                      A                      A                      A
 Frequencies --     25.5962                29.4564                39.3645
 Red. masses --      4.1623                 3.8638                 3.4516
 Frc consts  --      0.0016                 0.0020                 0.0032
 IR Inten    --      0.3466                 0.2239                 0.5111

                      4                      5                      6
                      A                      A                      A
 Frequencies --     55.3397                77.8157                90.2110
 Red. masses --      4.9372                 2.0989                 3.4524
 Frc consts  --      0.0089                 0.0075                 0.0166
 IR Inten    --      0.1860                 0.4732                 0.1803

                      7                      8                      9
                      A                      A                      A
 Frequencies --    112.2282               126.3577               141.8275
 Red. masses --      2.6289                 4.4387                 1.1627
 Frc consts  --      0.0195                 0.0418                 0.0138
 IR Inten    --      0.6142                 0.0632                 0.0672

                     10                     11                     12
                      A                      A                      A
 Frequencies --    160.3417               174.3670               195.5001
 Red. masses --      3.6894                 2.0561                 2.5213
 Frc consts  --      0.0559                 0.0368                 0.0568
 IR Inten    --      2.9836                 2.1532                 0.2689

                     13                     14                     15
                      A                      A                      A
 Frequencies --    241.8533               250.7048               260.2873
 Red. masses --      1.4322                 1.7500                 3.1655
 Frc consts  --      0.0494                 0.0648                 0.1264
 IR Inten    --      0.2389                 0.3889                 2.9432

                     16                     17                     18
                      A                      A                      A
 Frequencies --    266.6472               281.2114               297.5282
 Red. masses --      2.4609                 1.8293                 2.2433
 Frc consts  --      0.1031                 0.0852                 0.1170
 IR Inten    --      3.3773                 1.0547                 2.6938

                     19                     20                     21
                      A                      A                      A
 Frequencies --    347.7810               381.8142               433.7785
 Red. masses --      3.4037                 2.4919                 3.4301
 Frc consts  --      0.2426                 0.2140                 0.3803
 IR Inten    --      0.7495                10.6147                 2.1401

                     22                     23                     24
                      A                      A                      A
 Frequencies --    451.8915               504.4793               518.8194
 Red. masses --      3.7290                 3.5916                 2.9585
 Frc consts  --      0.4487                 0.5385                 0.4692
 IR Inten    --      0.1576                 3.6034                 0.5800

                     25                     26                     27
                      A                      A                      A
 Frequencies --    529.7158               574.1223               628.2518
 Red. masses --      4.4580                 4.4398                 5.2470
 Frc consts  --      0.7370                 0.8622                 1.2202
 IR Inten    --      1.0017                 6.6088                 3.0565

                     28                     29                     30
                      A                      A                      A
 Frequencies --    646.5978               677.9147               738.0226
 Red. masses --      2.9168                 1.7800                 1.9526
 Frc consts  --      0.7185                 0.4820                 0.6266
 IR Inten    --     31.6848                30.6466                85.5792

                     31                     32                     33
                      A                      A                      A
 Frequencies --    746.0174               761.6498               785.9537
 Red. masses --      2.4458                 2.3955                 3.7003
 Frc consts  --      0.8020                 0.8188                 1.3467
 IR Inten    --     67.8877                17.7077                 8.5526

                     34                     35                     36
                      A                      A                      A
 Frequencies --    808.5949               822.5047               831.6651
 Red. masses --      1.2793                 1.4439                 1.7922
 Frc consts  --      0.4928                 0.5755                 0.7303
 IR Inten    --     16.3766                12.5301                12.4830

                     37                     38                     39
                      A                      A                      A
 Frequencies --    872.5971               880.0638               902.4902
 Red. masses --      4.0253                 1.9260                 2.2099
 Frc consts  --      1.8058                 0.8789                 1.0605
 IR Inten    --      1.3350                 2.4167                29.7475

                     40                     41                     42
                      A                      A                      A
 Frequencies --    951.1413               956.6172               983.1075
 Red. masses --      1.3098                 1.3341                 1.3403
 Frc consts  --      0.6982                 0.7193                 0.7632
 IR Inten    --      5.1276                 0.0368                 0.1441

                     43                     44                     45
                      A                      A                      A
 Frequencies --   1021.5033              1027.0112              1048.0772
 Red. masses --      1.5497                 1.6826                 2.9052
 Frc consts  --      0.9528                 1.0456                 1.8802
 IR Inten    --      5.6495                 7.0250                 2.9938

                     46                     47                     48
                      A                      A                      A
 Frequencies --   1075.6729              1079.7985              1095.6387
 Red. masses --      1.7514                 1.6956                 1.6155
 Frc consts  --      1.1940                 1.1648                 1.1426
 IR Inten    --     25.7773                16.9870                 2.2703

                     49                     50                     51
                      A                      A                      A
 Frequencies --   1102.3373              1115.6663              1131.7089
 Red. masses --      2.3296                 2.5022                 2.0952
 Frc consts  --      1.6679                 1.8350                 1.5810
 IR Inten    --      0.4463                 3.9634                25.0403

                     52                     53                     54
                      A                      A                      A
 Frequencies --   1144.5526              1172.7118              1191.2224
 Red. masses --      1.9574                 3.1627                 1.7965
 Frc consts  --      1.5108                 2.5627                 1.5020
 IR Inten    --     33.8948                37.2455                 9.2375

                     55                     56                     57
                      A                      A                      A
 Frequencies --   1208.1965              1217.9591              1269.9993
 Red. masses --      2.4454                 2.2288                 2.3794
 Frc consts  --      2.1032                 1.9480                 2.2612
 IR Inten    --     10.0604                 3.6093                11.1186

                     58                     59                     60
                      A                      A                      A
 Frequencies --   1271.8762              1292.7482              1309.5581
 Red. masses --      1.1282                 1.2824                 2.8599
 Frc consts  --      1.0753                 1.2627                 2.8897
 IR Inten    --     24.1783                 1.3758                 0.1388

                     61                     62                     63
                      A                      A                      A
 Frequencies --   1318.0888              1323.6519              1343.6516
 Red. masses --      1.7892                 1.4611                 1.2096
 Frc consts  --      1.8314                 1.5083                 1.2867
 IR Inten    --      9.3166                18.1441                 5.6635

                     64                     65                     66
                      A                      A                      A
 Frequencies --   1367.2103              1387.6402              1402.9675
 Red. masses --      1.6842                 1.3759                 1.2467
 Frc consts  --      1.8549                 1.5610                 1.4458
 IR Inten    --     35.0738                33.3237                28.4731

                     67                     68                     69
                      A                      A                      A
 Frequencies --   1412.3442              1419.5164              1442.8895
 Red. masses --      1.4203                 1.8786                 1.3229
 Frc consts  --      1.6692                 2.2303                 1.6227
 IR Inten    --     37.3212                62.7346                 8.9140

                     70                     71                     72
                      A                      A                      A
 Frequencies --   1443.6313              1447.7497              1475.5073
 Red. masses --      1.2734                 1.2568                 2.3931
 Frc consts  --      1.5636                 1.5520                 3.0697
 IR Inten    --      5.3309                 4.7716               121.4046

                     73                     74                     75
                      A                      A                      A
 Frequencies --   1497.9459              1505.8366              1509.7358
 Red. masses --      1.9625                 1.1882                 1.2676
 Frc consts  --      2.5945                 1.5874                 1.7023
 IR Inten    --     75.7074                 4.9093                29.7578

                     76                     77                     78
                      A                      A                      A
 Frequencies --   1510.6490              1513.7947              1526.5417
 Red. masses --      1.3158                 1.0664                 1.0588
 Frc consts  --      1.7692                 1.4399                 1.4538
 IR Inten    --     19.2987                10.7560                24.3530

                     79                     80                     81
                      A                      A                      A
 Frequencies --   1528.8778              1530.5667              1533.4958
 Red. masses --      1.2274                 1.0828                 1.0656
 Frc consts  --      1.6903                 1.4945                 1.4764
 IR Inten    --     14.3281                 4.4218                10.3178

                     82                     83                     84
                      A                      A                      A
 Frequencies --   1534.7829              1545.7098              1553.6531
 Red. masses --      1.1481                 1.0777                 1.0887
 Frc consts  --      1.5933                 1.5170                 1.5483
 IR Inten    --     47.1774                 9.7601                 0.2508

                     85                     86                     87
                      A                      A                      A
 Frequencies --   1635.5257              1654.7356              1765.0797
 Red. masses --      5.8735                 5.9684                 8.1993
 Frc consts  --      9.2569                 9.6286                15.0506
 IR Inten    --     15.5691                20.5509               426.5701

                     88                     89                     90
                      A                      A                      A
 Frequencies --   2950.8211              3002.1686              3038.6049
 Red. masses --      1.0734                 1.0691                 1.0726
 Frc consts  --      5.5069                 5.6771                 5.8347
 IR Inten    --     67.3882                32.4535                33.9849

                     91                     92                     93
                      A                      A                      A
 Frequencies --   3041.1753              3044.7535              3046.9622
 Red. masses --      1.0391                 1.0430                 1.0754
 Frc consts  --      5.6624                 5.6969                 5.8822
 IR Inten    --     29.6159                18.5130                33.8498

                     94                     95                     96
                      A                      A                      A
 Frequencies --   3055.2255              3061.1875              3083.4456
 Red. masses --      1.0366                 1.0843                 1.0922
 Frc consts  --      5.7008                 5.9868                 6.1181
 IR Inten    --     21.4440                21.3877                 7.5898

                     97                     98                     99
                      A                      A                      A
 Frequencies --   3090.0808              3096.9616              3109.9614
 Red. masses --      1.1004                 1.0962                 1.0982
 Frc consts  --      6.1910                 6.1948                 6.2584
 IR Inten    --     15.0722                19.4470                49.8311

                    100                    101                    102
                      A                      A                      A
 Frequencies --   3116.3808              3127.0369              3132.4589
 Red. masses --      1.1004                 1.1010                 1.1000
 Frc consts  --      6.2967                 6.3431                 6.3592
 IR Inten    --     48.7035                36.2969                17.9778

                    103                    104                    105
                      A                      A                      A
 Frequencies --   3134.2991              3184.2070              3188.7717
 Red. masses --      1.1032                 1.0879                 1.0912
 Frc consts  --      6.3854                 6.4992                 6.5372
 IR Inten    --     30.4818                 8.3995                23.5779

                    106                    107                    108
                      A                      A                      A
 Frequencies --   3218.2014              3486.3080              3537.4982
 Red. masses --      1.0964                 1.0733                 1.0749
 Frc consts  --      6.6904                 7.6863                 7.9254
 IR Inten    --     22.8653                 1.6750               143.7558

 - Thermochemistry -
 -------------------
 Temperature   298.150 Kelvin.  Pressure   1.00000 Atm.
 Atom     1 has atomic number  6 and mass  12.00000

 Molecular mass:   235.16846 amu.
 Principal axes and moments of inertia in atomic units:
                           1         2         3
     Eigenvalues --  1943.517449457.66682**********
           X            0.99999   0.00387   0.00028
           Y           -0.00386   0.99983  -0.01779
           Z           -0.00035   0.01779   0.99984
 This molecule is an asymmetric top.
 Rotational symmetry number  1.
 Warning -- assumption of classical behavior for rotation
           may cause significant error
 Rotational temperatures (Kelvin)      0.04457     0.00916     0.00818
 Rotational constants (GHZ):           0.92860     0.19082     0.17035
 Zero-point vibrational energy     874570.4 (Joules/Mol)
                                  209.02735 (Kcal/Mol)
 Warning -- explicit consideration of  26 degrees of freedom as
           vibrations may cause significant error
 Vibrational temperatures:     36.83    42.38    56.64    79.62   111.96
          (Kelvin)            129.79   161.47   181.80   204.06   230.70
                              250.88   281.28   347.97   360.71   374.50
                              383.65   404.60   428.08   500.38   549.35
                              624.11   650.17   725.83   746.47   762.14
                              826.03   903.91   930.31   975.37  1061.85
                             1073.35  1095.84  1130.81  1163.39  1183.40
                             1196.58  1255.47  1266.22  1298.48  1368.48
                             1376.36  1414.47  1469.72  1477.64  1507.95
                             1547.65  1553.59  1576.38  1586.02  1605.19
                             1628.28  1646.76  1687.27  1713.90  1738.33
                             1752.37  1827.25  1829.95  1859.98  1884.16
                             1896.44  1904.44  1933.21  1967.11  1996.50
                             2018.56  2032.05  2042.37  2076.00  2077.06
                             2082.99  2122.93  2155.21  2166.56  2172.17
                             2173.49  2178.01  2196.35  2199.71  2202.14
                             2206.36  2208.21  2223.93  2235.36  2353.16
                             2380.80  2539.56  4245.57  4319.45  4371.87
                             4375.57  4380.72  4383.90  4395.79  4404.37
                             4436.39  4445.94  4455.84  4474.54  4483.78
                             4499.11  4506.91  4509.56  4581.36  4587.93
                             4630.27  5016.02  5089.67

 Zero-point correction=                           0.333106 (Hartree/Particle)
 Thermal correction to Energy=                    0.351416
 Thermal correction to Enthalpy=                  0.352360
 Thermal correction to Gibbs Free Energy=         0.284781
 Sum of electronic and zero-point Energies=           -747.250879
 Sum of electronic and thermal Energies=              -747.232569
 Sum of electronic and thermal Enthalpies=            -747.231624
 Sum of electronic and thermal Free Energies=         -747.299204

                     E (Thermal)             CV                S
                      KCal/Mol        Cal/Mol-Kelvin    Cal/Mol-Kelvin
 Total                  220.517             67.148            142.233
 Electronic               0.000              0.000              0.000
 Translational            0.889              2.981             42.267
 Rotational               0.889              2.981             33.631
 Vibrational            218.740             61.186             66.335
 Vibration     1          0.593              1.985              6.144
 Vibration     2          0.593              1.984              5.866
 Vibration     3          0.594              1.981              5.291
 Vibration     4          0.596              1.975              4.617
 Vibration     5          0.599              1.964              3.945
 Vibration     6          0.602              1.956              3.655
 Vibration     7          0.607              1.939              3.230
 Vibration     8          0.611              1.927              3.001
 Vibration     9          0.615              1.911              2.779
 Vibration    10          0.622              1.891              2.546
 Vibration    11          0.627              1.874              2.388
 Vibration    12          0.636              1.846              2.175
 Vibration    13          0.658              1.776              1.789
 Vibration    14          0.663              1.762              1.726
 Vibration    15          0.668              1.745              1.660
 Vibration    16          0.672              1.734              1.618
 Vibration    17          0.681              1.708              1.526
 Vibration    18          0.691              1.678              1.431
 Vibration    19          0.725              1.580              1.176
 Vibration    20          0.751              1.509              1.032
 Vibration    21          0.795              1.397              0.846
 Vibration    22          0.811              1.357              0.790
 Vibration    23          0.860              1.240              0.647
 Vibration    24          0.874              1.208              0.613
 Vibration    25          0.885              1.184              0.588
 Vibration    26          0.930              1.087              0.496

                           ! Non-Optimized Parameters !
 Normal termination of Gaussian 16 at Mon Dec 14 13:39:28 2020.

 ----------------------------------------------------------------------
 # B3LYP/6-311++G(d,p) empiricaldispersion=gd3bj scf=xqc pop=npa geom=c
 heck
 ----------------------------------------------------------------------

 --------------------------------------
 CID_63306658_JID_7949_Energie_neutraal
 --------------------------------------
 Structure from the checkpoint file:  "JID_7949.chk"
 Charge =  0 Multiplicity = 1

 SCF Done:  E(RB3LYP) =  -747.797245938     A.U. after   15 cycles
 Normal termination of Gaussian 16 at Mon Dec 14 13:46:32 2020.

 ----------------------------------------------------------------------
 # B3LYP/6-311++G(d,p) empiricaldispersion=gd3bj scf=xqc pop=npa geom=c
 heck
 ----------------------------------------------------------------------

 ------------------------------------
 CID_63306658_JID_7949_Energie_kation
 ------------------------------------
 Structure from the checkpoint file:  "JID_7949.chk"
 Charge =  1 Multiplicity = 2

 SCF Done:  E(UB3LYP) =  -747.504300190     A.U. after   24 cycles
 Normal termination of Gaussian 16 at Mon Dec 14 14:02:50 2020.
 Gaussian 16:  ES64L-G16RevA.03 25-Dec-2016

 ----------------------------------------------------------------------
 # B3LYP/6-311++G(d,p) empiricaldispersion=gd3bj scf=xqc pop=npa geom=c
 heck
 ----------------------------------------------------------------------

 -----------------------------------
 CID_63306658_JID_7949_Energie_anion
 -----------------------------------
 Structure from the checkpoint file:  "JID_7949.chk"
 Charge = -1 Multiplicity = 2

                         Standard orientation:
 ---------------------------------------------------------------------
 Center     Atomic      Atomic             Coordinates (Angstroms)
 Number     Number       Type             X           Y           Z
 ---------------------------------------------------------------------
      1          6           0       -5.945136   -1.235502   -0.611317
      2          6           0       -4.788718   -0.248155   -0.484003
      3          7           0       -3.516486   -0.914377   -0.753095
      4          6           0       -2.349808   -0.041594   -0.763711
      5          6           0       -2.035952    0.710841    0.559399
      6          6           0       -1.885363   -0.242849    1.753290
      7          6           0       -0.895497    1.703297    0.316918
      8          8           0       -1.155895    2.873864    0.051870
      9          7           0        0.406055    1.283354    0.349498
     10          6           0        0.963299   -0.038893    0.497343
     11          6           0        2.422837   -0.055813    0.075449
     12          6           0        3.138706   -1.269562    0.073689
     13          6           0        4.477211   -1.214724   -0.313947
     14          6           0        5.052067    0.003650   -0.675083
     15          6           0        4.255106    1.142099   -0.633809
     16          7           0        2.968428    1.113298   -0.266174
     17          6           0        2.484646   -2.567065    0.471348
     18          1           0       -5.949851   -1.693236   -1.605405
     19          1           0       -6.905916   -0.735982   -0.446501
     20          1           0       -5.857970   -2.039833    0.130579
     21          1           0       -4.899490    0.554307   -1.224537
     22          1           0       -4.832006    0.238911    0.507558
     23          1           0       -3.380463   -1.668587   -0.081858
     24          1           0       -1.486310   -0.653803   -1.054271
     25          1           0       -2.490263    0.703896   -1.555300
     26          1           0       -2.880685    1.374284    0.765479
     27          1           0       -1.242515   -1.101583    1.534469
     28          1           0       -1.475783    0.272503    2.628484
     29          1           0       -2.866332   -0.639030    2.037660
     30          1           0        1.088691    1.992427    0.095533
     31          1           0        0.904037   -0.394102    1.537714
     32          1           0        0.415851   -0.776340   -0.104291
     33          1           0        5.067193   -2.127734   -0.332672
     34          1           0        6.091707    0.066921   -0.979932
     35          1           0        4.654090    2.117248   -0.903560
     36          1           0        2.085293   -2.522075    1.492350
     37          1           0        1.643636   -2.814534   -0.188814
     38          1           0        3.197888   -3.394866    0.427354
 ---------------------------------------------------------------------

 SCF Done:  E(UB3LYP) =  -747.792447413     A.U. after   33 cycles
 SCF Done:  E(UB3LYP) =  -747.792464365     a.u. after    3 cycles

 The electronic state is 2-A.
 Alpha  occ. eigenvalues --  -18.98139 -14.22743 -14.20714 -14.19973 -10.16834
 Alpha  occ. eigenvalues --  -10.11635 -10.11206 -10.10575 -10.10336 -10.10058
 Alpha  occ. eigenvalues --  -10.08531 -10.08464 -10.07817 -10.07529 -10.07518
 Alpha  occ. eigenvalues --  -10.07379 -10.07300  -0.93303  -0.85037  -0.81882
 Alpha  occ. eigenvalues --   -0.81268  -0.71375  -0.69946  -0.68469  -0.65318
 Alpha  occ. eigenvalues --   -0.62046  -0.59239  -0.58514  -0.53933  -0.52129
 Alpha  occ. eigenvalues --   -0.50820  -0.50631  -0.47172  -0.41807  -0.40702
 Alpha  occ. eigenvalues --   -0.40216  -0.38082  -0.37228  -0.37025  -0.36399
 Alpha  occ. eigenvalues --   -0.36023  -0.34275  -0.33505  -0.33085  -0.32126
 Alpha  occ. eigenvalues --   -0.31296  -0.31268  -0.30220  -0.29482  -0.28761
 Alpha  occ. eigenvalues --   -0.28654  -0.28254  -0.27488  -0.27358  -0.26296
 Alpha  occ. eigenvalues --   -0.25638  -0.25181  -0.23782  -0.18682  -0.16277
 Alpha  occ. eigenvalues --   -0.16049  -0.15746  -0.14590  -0.13331   0.03955
 Alpha virt. eigenvalues --    0.05518   0.06222   0.06858   0.07641   0.08069
 Alpha virt. eigenvalues --    0.08198   0.08460   0.09366   0.09467   0.10036
 Alpha virt. eigenvalues --    0.10294   0.11153   0.11424   0.11815   0.12055

  Beta  occ. eigenvalues --  -18.98130 -14.22747 -14.20698 -14.19754 -10.16827
  Beta  occ. eigenvalues --  -10.11625 -10.11182 -10.10569 -10.10328 -10.10003
  Beta  occ. eigenvalues --  -10.08530 -10.08429 -10.07831 -10.07495 -10.07346
  Beta  occ. eigenvalues --  -10.07333 -10.07270  -0.93288  -0.84800  -0.81851
  Beta  occ. eigenvalues --   -0.81205  -0.71121  -0.69916  -0.68334  -0.65287
  Beta  occ. eigenvalues --   -0.61976  -0.59099  -0.58458  -0.53878  -0.51952
  Beta  occ. eigenvalues --   -0.50663  -0.50563  -0.47129  -0.41710  -0.40671
  Beta  occ. eigenvalues --   -0.40145  -0.38038  -0.37161  -0.36957  -0.36341
  Beta  occ. eigenvalues --   -0.35999  -0.34179  -0.33456  -0.33040  -0.32036
  Beta  occ. eigenvalues --   -0.31266  -0.31218  -0.30148  -0.29349  -0.28669
  Beta  occ. eigenvalues --   -0.28403  -0.28111  -0.27367  -0.27279  -0.26265
  Beta  occ. eigenvalues --   -0.25566  -0.25157  -0.23751  -0.17715  -0.16036
  Beta  occ. eigenvalues --   -0.15907  -0.15636  -0.14366  -0.13314
  Beta virt. eigenvalues --    0.06034   0.06462   0.07192   0.07595   0.07968
  Beta virt. eigenvalues --    0.08201   0.08450   0.08657   0.09486   0.09689
  Beta virt. eigenvalues --    0.10289   0.10410   0.11210   0.11637   0.12034

 Mulliken charges and spin densities:
               1          2
     1  C    0.077153  -0.639777
     2  C   -0.217330   0.040301
     3  N   -0.001897  -0.000385
     4  C   -0.382239  -0.171907
     5  C   -0.079485   0.447554
     6  C    0.322606  -0.975613
     7  C   -0.126494  -0.151489
     8  O   -0.326827   0.002961
     9  N   -0.218076  -0.015399
    10  C   -0.441398   0.130924
    11  C   -0.888486   0.398289
    12  C   -1.243663   1.518140
    13  C    0.638706  -0.389295
    14  C    0.075649  -0.388518
    15  C   -0.024658   0.000329
    16  N   -0.027497   0.105404
    17  C    1.583609  -2.159059
    18  H    0.034807   0.119360
    19  H   -0.025438   0.144634
    20  H   -0.209677   0.340895
    21  H    0.128748   0.021217
    22  H    0.092015   0.023951
    23  H    0.147163   0.076746
    24  H   -0.132681   0.311800
    25  H    0.148867   0.022088
    26  H    0.218649   0.029169
    27  H   -0.191938   0.405566
    28  H    0.013373   0.136175
    29  H   -0.246485   0.414424
    30  H    0.398866  -0.005081
    31  H    0.210874  -0.028169
    32  H    0.444269  -0.413031
    33  H   -0.196460   0.328134
    34  H    0.013548   0.127673
    35  H    0.127598   0.017487
    36  H   -0.058463   0.194231
    37  H   -0.310379   0.485016
    38  H   -0.326931   0.495256
 Sum of Mulliken charges =  -1.00000   1.00000

 Dipole moment (field-independent basis, Debye):
    X=              0.8590    Y=              2.5648    Z=              0.0594  Tot=              2.7055
 Quadrupole moment (field-independent basis, Debye-Ang):
   XX=           -182.1086   YY=           -162.9748   ZZ=           -129.7780
   XY=              0.9250   XZ=              4.0377   YZ=             -0.3330

 Summary of Natural Population Analysis:

                                       Natural Population
                Natural  -----------------------------------------------
    Atom  No    Charge         Core      Valence    Rydberg      Total
 -----------------------------------------------------------------------
      C    1   -0.28626      0.99967     2.28206    0.00454     3.28626
      C    2   -0.08912      0.99964     2.07882    0.01065     3.08912
      N    3   -0.33807      0.99975     2.82621    0.01212     3.83807
      C    4   -0.08081      0.99960     2.06932    0.01188     3.08081
      C    5   -0.16107      0.99956     2.15139    0.01012     3.16107
      C    6   -0.29357      0.99965     2.28684    0.00707     3.29357
      C    7    0.34835      0.99963     1.62867    0.02335     2.65165
      O    8   -0.33045      0.99988     3.32518    0.00540     4.33045
      N    9   -0.32197      0.99965     2.81329    0.00903     3.82197
      C   10   -0.10373      0.99958     2.09387    0.01027     3.10373
      C   11    0.11243      0.99949     1.87402    0.01406     2.88757
      C   12   -0.02758      0.99947     2.01872    0.00939     3.02758
      C   13   -0.05084      0.99952     2.04141    0.00991     3.05084
      C   14   -0.12903      0.99956     2.12074    0.00874     3.12903
      C   15    0.03304      0.99959     1.95314    0.01423     2.96696
      N   16   -0.22832      0.99966     2.71865    0.01002     3.72832
      C   17   -0.29600      0.99964     2.29055    0.00581     3.29600
      H   18    0.09940      0.00000     0.39934    0.00127     0.40060
      H   19    0.09639      0.00000     0.40269    0.00092     0.40361
      H   20    0.09729      0.00000     0.40124    0.00147     0.40271
      H   21    0.08904      0.00000     0.40975    0.00121     0.41096
      H   22    0.07813      0.00000     0.42031    0.00156     0.42187
      H   23    0.17315      0.00000     0.32315    0.00369     0.32685
      H   24    0.09392      0.00000     0.40490    0.00119     0.40608
      H   25    0.09572      0.00000     0.40314    0.00115     0.40428
      H   26    0.10739      0.00000     0.39050    0.00211     0.39261
      H   27    0.10023      0.00000     0.39822    0.00155     0.39977
      H   28    0.10270      0.00000     0.39637    0.00093     0.39730
      H   29    0.10272      0.00000     0.39622    0.00105     0.39728
      H   30    0.21004      0.00000     0.28707    0.00289     0.28996
      H   31    0.09843      0.00000     0.40012    0.00144     0.40157
      H   32    0.10096      0.00000     0.39715    0.00189     0.39904
      H   33    0.09698      0.00000     0.40211    0.00092     0.40302
      H   34    0.09918      0.00000     0.40000    0.00082     0.40082
      H   35    0.08592      0.00000     0.41316    0.00093     0.41408
      H   36    0.10288      0.00000     0.39594    0.00118     0.39712
      H   37    0.10832      0.00000     0.38962    0.00206     0.39168
      H   38    0.10423      0.00000     0.39463    0.00114     0.39577
 =======================================================================
   * Total *   -0.00000     16.99356    46.79851    0.20794    64.00000

 Normal termination of Gaussian 16 at Mon Dec 14 15:02:02 2020.
