 Gaussian 16, Revision A.03,

 -----------------------------------------------------------
 # opt freq B3LYP/6-31G(d) empiricaldispersion=gd3bj scf=xqc
 -----------------------------------------------------------

 -------------------------------
 CID_61581254_JID_10118_neutraal
 -------------------------------
 Symbolic Z-matrix:
 Charge =  0 Multiplicity = 1

 SCF Done:  E(RB3LYP) =  -973.209929487     A.U. after   15 cycles
 SCF Done:  E(RB3LYP) =  -973.220331976     A.U. after   13 cycles
 SCF Done:  E(RB3LYP) =  -973.223041924     A.U. after   14 cycles
 SCF Done:  E(RB3LYP) =  -973.223463615     A.U. after   13 cycles
 SCF Done:  E(RB3LYP) =  -973.224692635     A.U. after   13 cycles
 SCF Done:  E(RB3LYP) =  -973.224790266     A.U. after   12 cycles
 SCF Done:  E(RB3LYP) =  -973.224914537     A.U. after   11 cycles
 SCF Done:  E(RB3LYP) =  -973.225046391     A.U. after   11 cycles
 SCF Done:  E(RB3LYP) =  -973.225311136     A.U. after   13 cycles
 SCF Done:  E(RB3LYP) =  -973.224921417     A.U. after   14 cycles
 SCF Done:  E(RB3LYP) =  -973.226490651     A.U. after   10 cycles
 SCF Done:  E(RB3LYP) =  -973.226494738     A.U. after    9 cycles
 SCF Done:  E(RB3LYP) =  -973.226496040     A.U. after    8 cycles
 SCF Done:  E(RB3LYP) =  -973.226497036     A.U. after    9 cycles
 SCF Done:  E(RB3LYP) =  -973.226497260     A.U. after    8 cycles
 SCF Done:  E(RB3LYP) =  -973.226497325     A.U. after    7 cycles
 Optimization completed.
    -- Stationary point found.
 Normal termination of Gaussian 16 at Mon Dec 14 17:44:07 2020.

 --------------------------------------------------------------------
 #N Geom=AllCheck Guess=TCheck SCRF=Check GenChk RB3LYP/6-31G(d) Freq
 --------------------------------------------------------------------

 Structure from the checkpoint file:  "JID_10118.chk"
 -------------------------------
 CID_61581254_JID_10118_neutraal
 -------------------------------
 Charge =  0 Multiplicity = 1

 SCF Done:  E(RB3LYP) =  -973.226497325     A.U. after    1 cycles

  Exact polarizability: 227.762  -0.136 174.097   9.252   3.852 116.679
 Approx polarizability: 314.159  -3.350 273.032  29.474  12.252 177.457

                      1                      2                      3
                      A                      A                      A
 Frequencies --     20.0550                29.2092                41.0297
 Red. masses --      4.0347                 4.5001                 4.0865
 Frc consts  --      0.0010                 0.0023                 0.0041
 IR Inten    --      0.2230                 0.1000                 0.3712

                      4                      5                      6
                      A                      A                      A
 Frequencies --     50.1198                66.5769                79.2956
 Red. masses --      4.4492                 5.2262                 3.0950
 Frc consts  --      0.0066                 0.0136                 0.0115
 IR Inten    --      2.2498                 0.7551                 2.2133

                      7                      8                      9
                      A                      A                      A
 Frequencies --     85.7959               101.4432               116.4891
 Red. masses --      3.2565                 4.6796                 5.2375
 Frc consts  --      0.0141                 0.0284                 0.0419
 IR Inten    --      6.4831                 3.3397                 3.8467

                     10                     11                     12
                      A                      A                      A
 Frequencies --    126.3241               155.0044               179.8065
 Red. masses --      2.0964                 2.5682                 3.1903
 Frc consts  --      0.0197                 0.0364                 0.0608
 IR Inten    --      0.6925                10.5030                 1.6816

                     13                     14                     15
                      A                      A                      A
 Frequencies --    189.7379               201.8641               217.6151
 Red. masses --      1.1878                 2.8383                 2.3276
 Frc consts  --      0.0252                 0.0681                 0.0649
 IR Inten    --      1.2938                 1.0423                 0.9677

                     16                     17                     18
                      A                      A                      A
 Frequencies --    229.9645               259.2297               276.2811
 Red. masses --      1.7277                 1.7596                 3.9886
 Frc consts  --      0.0538                 0.0697                 0.1794
 IR Inten    --      1.0962                 1.0916                 2.0632

                     19                     20                     21
                      A                      A                      A
 Frequencies --    281.2657               304.5838               325.5975
 Red. masses --      4.0154                 3.2055                 3.3516
 Frc consts  --      0.1872                 0.1752                 0.2093
 IR Inten    --      5.1141                 9.2333                 2.3163

                     22                     23                     24
                      A                      A                      A
 Frequencies --    354.0010               373.0588               401.3685
 Red. masses --      3.3891                 3.7810                 2.6357
 Frc consts  --      0.2502                 0.3100                 0.2502
 IR Inten    --      4.0162                 8.2097                 2.2668

                     25                     26                     27
                      A                      A                      A
 Frequencies --    406.1205               412.3021               453.3180
 Red. masses --      2.6179                 5.9490                 2.1623
 Frc consts  --      0.2544                 0.5958                 0.2618
 IR Inten    --      1.4307                12.6089                 3.4271

                     28                     29                     30
                      A                      A                      A
 Frequencies --    465.1785               477.4511               539.0612
 Red. masses --      3.4870                 1.1380                 3.8642
 Frc consts  --      0.4446                 0.1528                 0.6616
 IR Inten    --     16.6440               127.7768                 8.7213

                     31                     32                     33
                      A                      A                      A
 Frequencies --    556.7439               575.3806               613.0236
 Red. masses --      4.4868                 4.3858                 3.5851
 Frc consts  --      0.8194                 0.8555                 0.7938
 IR Inten    --      7.3469                 1.0806                10.0062

                     34                     35                     36
                      A                      A                      A
 Frequencies --    628.7617               650.7577               692.6312
 Red. masses --      4.7708                 3.7287                 4.4384
 Frc consts  --      1.1113                 0.9303                 1.2545
 IR Inten    --     15.2286                19.5599                 2.4837

                     37                     38                     39
                      A                      A                      A
 Frequencies --    716.8500               776.4000               781.3003
 Red. masses --      4.9825                 3.2844                 6.4398
 Frc consts  --      1.5085                 1.1665                 2.3161
 IR Inten    --      5.0723                10.5610                22.5582

                     40                     41                     42
                      A                      A                      A
 Frequencies --    809.5492               862.0547               866.3842
 Red. masses --      1.7761                 2.9920                 1.7881
 Frc consts  --      0.6858                 1.3100                 0.7908
 IR Inten    --     14.1321                 6.1395                26.3545

                     43                     44                     45
                      A                      A                      A
 Frequencies --    877.2266               905.2596               920.5299
 Red. masses --      3.0384                 2.2955                 1.5668
 Frc consts  --      1.3776                 1.1083                 0.7823
 IR Inten    --      1.1028                 5.2481                 5.9574

                     46                     47                     48
                      A                      A                      A
 Frequencies --    933.8220               975.2685               978.5773
 Red. masses --      2.7263                 2.7481                 2.8965
 Frc consts  --      1.4007                 1.5401                 1.6343
 IR Inten    --     20.9765                18.4753                21.4251

                     49                     50                     51
                      A                      A                      A
 Frequencies --   1018.2638              1051.1927              1055.3382
 Red. masses --      1.2879                 2.4429                 1.8411
 Frc consts  --      0.7868                 1.5905                 1.2081
 IR Inten    --      0.8537                24.3487                15.6113

                     52                     53                     54
                      A                      A                      A
 Frequencies --   1077.0601              1105.7379              1113.4319
 Red. masses --      2.2149                 2.9153                 1.8855
 Frc consts  --      1.5139                 2.1001                 1.3772
 IR Inten    --     48.9746                63.0540                56.4831

                     55                     56                     57
                      A                      A                      A
 Frequencies --   1126.0449              1135.3779              1154.7043
 Red. masses --      1.8008                 2.1243                 1.3439
 Frc consts  --      1.3453                 1.6134                 1.0557
 IR Inten    --      3.2923               133.0568                 5.7381

                     58                     59                     60
                      A                      A                      A
 Frequencies --   1156.8418              1168.4184              1188.7325
 Red. masses --      1.5971                 3.2869                 1.4206
 Frc consts  --      1.2593                 2.6438                 1.1828
 IR Inten    --     27.3144                91.7432                 2.2080

                     61                     62                     63
                      A                      A                      A
 Frequencies --   1193.6395              1211.2338              1228.5463
 Red. masses --      1.6588                 1.6403                 1.8295
 Frc consts  --      1.3925                 1.4179                 1.6270
 IR Inten    --     13.2682                 2.6724                39.0452

                     64                     65                     66
                      A                      A                      A
 Frequencies --   1232.5804              1267.7895              1282.5174
 Red. masses --      2.1765                 3.1769                 1.3073
 Frc consts  --      1.9482                 3.0085                 1.2669
 IR Inten    --     47.8792                 2.6735                37.3266

                     67                     68                     69
                      A                      A                      A
 Frequencies --   1302.1367              1307.5373              1327.6873
 Red. masses --      1.4468                 1.3708                 2.0380
 Frc consts  --      1.4454                 1.3808                 2.1167
 IR Inten    --     13.1110                 1.0265                55.8691

                     70                     71                     72
                      A                      A                      A
 Frequencies --   1341.5508              1358.6194              1371.3371
 Red. masses --      2.2206                 1.9705                 1.3348
 Frc consts  --      2.3547                 2.1430                 1.4789
 IR Inten    --     65.9154                50.2137                16.5381

                     73                     74                     75
                      A                      A                      A
 Frequencies --   1397.1637              1417.4061              1420.8286
 Red. masses --      1.3356                 1.3987                 1.3133
 Frc consts  --      1.5361                 1.6557                 1.5621
 IR Inten    --     14.9128                14.6688                19.7875

                     76                     77                     78
                      A                      A                      A
 Frequencies --   1424.2069              1437.6364              1449.5748
 Red. masses --      1.3606                 2.0099                 1.2601
 Frc consts  --      1.6260                 2.4475                 1.5601
 IR Inten    --     11.0270                18.6681                 8.2228

                     79                     80                     81
                      A                      A                      A
 Frequencies --   1458.4891              1470.7439              1495.6641
 Red. masses --      1.6277                 1.7041                 1.1515
 Frc consts  --      2.0399                 2.1718                 1.5177
 IR Inten    --      8.9688               153.7645                18.1218

                     82                     83                     84
                      A                      A                      A
 Frequencies --   1500.6209              1501.3555              1509.0776
 Red. masses --      1.1371                 1.1349                 1.1856
 Frc consts  --      1.5086                 1.5072                 1.5908
 IR Inten    --      9.4900                 9.5722                20.9410

                     85                     86                     87
                      A                      A                      A
 Frequencies --   1513.3408              1517.1547              1521.3271
 Red. masses --      1.0736                 1.0526                 1.0789
 Frc consts  --      1.4487                 1.4275                 1.4713
 IR Inten    --      1.0330                 2.9849                18.4157

                     88                     89                     90
                      A                      A                      A
 Frequencies --   1527.4038              1532.6922              1536.6310
 Red. masses --      1.0637                 1.0722                 1.0503
 Frc consts  --      1.4622                 1.4840                 1.4612
 IR Inten    --     13.3489                 8.5612                 5.0773

                     91                     92                     93
                      A                      A                      A
 Frequencies --   1543.6844              1546.5494              1570.8275
 Red. masses --      1.1261                 1.2310                 8.5976
 Frc consts  --      1.5810                 1.7348                12.4992
 IR Inten    --     36.5272                81.3493                 7.5694

                     94                     95                     96
                      A                      A                      A
 Frequencies --   1660.8010              1715.2953              1777.3682
 Red. masses --      7.1124                 9.6748                10.4451
 Frc consts  --     11.5585                16.7715                19.4409
 IR Inten    --      4.9713               261.6508               418.7632

                     97                     98                     99
                      A                      A                      A
 Frequencies --   3001.2391              3009.9711              3047.4590
 Red. masses --      1.0527                 1.0582                 1.0603
 Frc consts  --      5.5870                 5.6484                 5.8019
 IR Inten    --     34.1690               109.8446                22.2519

                    100                    101                    102
                      A                      A                      A
 Frequencies --   3058.7061              3060.2941              3063.5789
 Red. masses --      1.0355                 1.0608                 1.0630
 Frc consts  --      5.7078                 5.8536                 5.8781
 IR Inten    --     18.5544                10.2401                59.8412

                    103                    104                    105
                      A                      A                      A
 Frequencies --   3081.9362              3081.9919              3083.2653
 Red. masses --      1.0979                 1.0937                 1.0708
 Frc consts  --      6.1440                 6.1209                 5.9976
 IR Inten    --     43.9473                21.4619                24.2659

                    106                    107                    108
                      A                      A                      A
 Frequencies --   3084.3390              3099.9152              3123.5429
 Red. masses --      1.0925                 1.0659                 1.1023
 Frc consts  --      6.1234                 6.0347                 6.3362
 IR Inten    --     26.7082                31.6220                52.8017

                    109                    110                    111
                      A                      A                      A
 Frequencies --   3124.2713              3134.1289              3141.5125
 Red. masses --      1.1024                 1.1032                 1.1016
 Frc consts  --      6.3400                 6.3848                 6.4056
 IR Inten    --     24.6791                22.7457                33.0287

                    112                    113                    114
                      A                      A                      A
 Frequencies --   3167.1992              3171.4203              3180.2677
 Red. masses --      1.0999                 1.1021                 1.0999
 Frc consts  --      6.5007                 6.5311                 6.5545
 IR Inten    --      3.1227                 3.6542                14.6533

                    115                    116                    117
                      A                      A                      A
 Frequencies --   3229.3507              3245.1219              3697.6530
 Red. masses --      1.0887                 1.0967                 1.0651
 Frc consts  --      6.6897                 6.8049                 8.5804
 IR Inten    --      0.6586                 2.3861                47.8091

 - Thermochemistry -
 -------------------
 Temperature   298.150 Kelvin.  Pressure   1.00000 Atm.
 Atom     1 has atomic number  6 and mass  12.00000

 Molecular mass:   283.15321 amu.
 Principal axes and moments of inertia in atomic units:
                           1         2         3
     Eigenvalues --  2512.99110********************
           X            0.99981   0.01752  -0.00823
           Y           -0.01746   0.99982   0.00733
           Z            0.00836  -0.00719   0.99994
 This molecule is an asymmetric top.
 Rotational symmetry number  1.
 Warning -- assumption of classical behavior for rotation
           may cause significant error
 Rotational temperatures (Kelvin)      0.03447     0.00741     0.00662
 Rotational constants (GHZ):           0.71816     0.15440     0.13789
 Zero-point vibrational energy     911847.5 (Joules/Mol)
                                  217.93678 (Kcal/Mol)
 Warning -- explicit consideration of  33 degrees of freedom as
           vibrations may cause significant error
 Vibrational temperatures:     28.85    42.03    59.03    72.11    95.79
          (Kelvin)            114.09   123.44   145.95   167.60   181.75
                              223.02   258.70   272.99   290.44   313.10
                              330.87   372.97   397.51   404.68   438.23
                              468.46   509.33   536.75   577.48   584.32
                              593.21   652.22   669.29   686.95   775.59
                              801.03   827.84   882.00   904.65   936.30
                              996.54  1031.39  1117.07  1124.12  1164.76
                             1240.30  1246.53  1262.13  1302.47  1324.44
                             1343.56  1403.19  1407.95  1465.05  1512.43
                             1518.40  1549.65  1590.91  1601.98  1620.13
                             1633.56  1661.36  1664.44  1681.09  1710.32
                             1717.38  1742.70  1767.60  1773.41  1824.07
                             1845.26  1873.48  1881.25  1910.25  1930.19
                             1954.75  1973.05  2010.21  2039.33  2044.26
                             2049.12  2068.44  2085.61  2098.44  2116.07
                             2151.93  2159.06  2160.12  2171.23  2177.36
                             2182.85  2188.85  2197.59  2205.20  2210.87
                             2221.02  2225.14  2260.07  2389.52  2467.93
                             2557.24  4318.11  4330.68  4384.61  4400.80
                             4403.08  4407.81  4434.22  4434.30  4436.13
                             4437.68  4460.09  4494.08  4495.13  4509.31
                             4519.94  4556.89  4562.97  4575.70  4646.32
                             4669.01  5320.10

 Zero-point correction=                           0.347304 (Hartree/Particle)
 Thermal correction to Energy=                    0.368422
 Thermal correction to Enthalpy=                  0.369366
 Thermal correction to Gibbs Free Energy=         0.295490
 Sum of electronic and zero-point Energies=           -972.879193
 Sum of electronic and thermal Energies=              -972.858075
 Sum of electronic and thermal Enthalpies=            -972.857131
 Sum of electronic and thermal Free Energies=         -972.931008

                     E (Thermal)             CV                S
                      KCal/Mol        Cal/Mol-Kelvin    Cal/Mol-Kelvin
 Total                  231.188             77.263            155.487
 Electronic               0.000              0.000              0.000
 Translational            0.889              2.981             42.820
 Rotational               0.889              2.981             34.307
 Vibrational            229.411             71.302             78.359
 Vibration     1          0.593              1.986              6.629
 Vibration     2          0.593              1.984              5.882
 Vibration     3          0.594              1.981              5.209
 Vibration     4          0.595              1.978              4.813
 Vibration     5          0.598              1.970              4.252
 Vibration     6          0.600              1.963              3.908
 Vibration     7          0.601              1.959              3.754
 Vibration     8          0.604              1.948              3.426
 Vibration     9          0.608              1.936              3.158
 Vibration    10          0.611              1.927              3.001
 Vibration    11          0.620              1.897              2.610
 Vibration    12          0.629              1.867              2.330
 Vibration    13          0.633              1.854              2.230
 Vibration    14          0.639              1.837              2.116
 Vibration    15          0.646              1.814              1.979
 Vibration    16          0.652              1.795              1.879
 Vibration    17          0.668              1.747              1.667
 Vibration    18          0.678              1.717              1.557
 Vibration    19          0.681              1.708              1.526
 Vibration    20          0.695              1.665              1.392
 Vibration    21          0.710              1.624              1.282
 Vibration    22          0.730              1.567              1.148
 Vibration    23          0.744              1.527              1.067
 Vibration    24          0.767              1.467              0.958
 Vibration    25          0.771              1.457              0.940
 Vibration    26          0.776              1.444              0.919
 Vibration    27          0.812              1.354              0.786
 Vibration    28          0.823              1.327              0.751
 Vibration    29          0.834              1.300              0.717
 Vibration    30          0.894              1.164              0.567
 Vibration    31          0.912              1.125              0.530
 Vibration    32          0.932              1.085              0.494
 Vibration    33          0.972              1.004              0.428

 Optimization completed.
    -- Stationary point found.
 Normal termination of Gaussian 16 at Mon Dec 14 18:05:51 2020.

 ----------------------------------------------------------------------
 # B3LYP/6-311++G(d,p) empiricaldispersion=gd3bj scf=xqc pop=npa geom=c
 heck
 ----------------------------------------------------------------------

 ---------------------------------------
 CID_61581254_JID_10118_Energie_neutraal
 ---------------------------------------
 Structure from the checkpoint file:  "JID_10118.chk"
 Charge =  0 Multiplicity = 1

 SCF Done:  E(RB3LYP) =  -973.511921753     A.U. after   16 cycles
 Normal termination of Gaussian 16 at Mon Dec 14 18:16:36 2020.

 ----------------------------------------------------------------------
 # B3LYP/6-311++G(d,p) empiricaldispersion=gd3bj scf=xqc pop=npa geom=c
 heck
 ----------------------------------------------------------------------

 -------------------------------------
 CID_61581254_JID_10118_Energie_kation
 -------------------------------------
 Structure from the checkpoint file:  "JID_10118.chk"
 Charge =  1 Multiplicity = 2

 SCF Done:  E(UB3LYP) =  -973.205730705     A.U. after   29 cycles
 Normal termination of Gaussian 16 at Mon Dec 14 18:43:35 2020.
 Gaussian 16:  ES64L-G16RevA.03 25-Dec-2016

 ----------------------------------------------------------------------
 # B3LYP/6-311++G(d,p) empiricaldispersion=gd3bj scf=xqc pop=npa geom=c
 heck
 ----------------------------------------------------------------------

 ------------------------------------
 CID_61581254_JID_10118_Energie_anion
 ------------------------------------
 Structure from the checkpoint file:  "JID_10118.chk"
 Charge = -1 Multiplicity = 2

                         Standard orientation:
 ---------------------------------------------------------------------
 Center     Atomic      Atomic             Coordinates (Angstroms)
 Number     Number       Type             X           Y           Z
 ---------------------------------------------------------------------
      1          6           0       -4.777088   -0.756740    1.805570
      2          6           0       -4.137078   -1.772167    0.856380
      3          6           0       -3.845451   -1.208816   -0.537188
      4          7           0       -2.915299   -0.071947   -0.486932
      5          6           0       -3.427610    1.245033   -0.606423
      6          8           0       -4.623900    1.442747   -0.789395
      7          6           0       -2.405361    2.269088   -0.481701
      8          6           0       -1.112401    1.939269   -0.242739
      9          6           0       -0.753040    0.556125   -0.151889
     10          7           0       -1.641367   -0.400877   -0.262790
     11          6           0        0.667465    0.224563    0.212313
     12          8           0        1.304508    1.083603    0.831743
     13          7           0        1.204665   -0.981972   -0.125596
     14          6           0        0.588589   -1.980443   -0.995685
     15          6           0        2.508134   -1.341592    0.439409
     16          6           0        3.686915   -1.096707   -0.522959
     17          6           0        3.988713    0.390071   -0.687067
     18          8           0        4.526259    0.817350    0.553810
     19          6           0        4.478080    2.218718    0.739521
     20          8           0        4.838690   -1.777183   -0.046824
     21          1           0       -4.099386    0.080309    2.005032
     22          1           0       -5.018284   -1.223472    2.766320
     23          1           0       -5.696310   -0.340361    1.381454
     24          1           0       -3.199218   -2.149968    1.282575
     25          1           0       -4.798290   -2.638637    0.727366
     26          1           0       -3.385476   -1.968467   -1.174459
     27          1           0       -4.753761   -0.835901   -1.010925
     28          1           0       -2.743845    3.295509   -0.568854
     29          1           0       -0.334243    2.681238   -0.107416
     30          1           0        1.387323   -2.529020   -1.502620
     31          1           0       -0.025468   -2.690370   -0.431156
     32          1           0       -0.038855   -1.508313   -1.750049
     33          1           0        2.662662   -0.759918    1.348506
     34          1           0        2.490482   -2.406062    0.693613
     35          1           0        3.452910   -1.524693   -1.505549
     36          1           0        4.725200    0.543604   -1.491700
     37          1           0        3.075825    0.946496   -0.930502
     38          1           0        5.058845    2.747357   -0.032582
     39          1           0        3.439951    2.573388    0.725180
     40          1           0        4.918918    2.426190    1.717875
     41          1           0        5.221368   -1.185882    0.625195
 ---------------------------------------------------------------------

 SCF Done:  E(UB3LYP) =  -973.537043198     A.U. after   26 cycles

 The electronic state is 2-A.
 Alpha  occ. eigenvalues --  -19.04388 -19.03361 -18.94846 -18.93783 -14.22348
 Alpha  occ. eigenvalues --  -14.22318 -14.16606 -10.13412 -10.13192 -10.12602
 Alpha  occ. eigenvalues --  -10.12584 -10.11920 -10.09511 -10.09003 -10.07311
 Alpha  occ. eigenvalues --  -10.05494 -10.04768 -10.04664 -10.02783 -10.00979
 Alpha  occ. eigenvalues --   -0.96264  -0.93192  -0.90810  -0.90186  -0.85774
 Alpha  occ. eigenvalues --   -0.81536  -0.71278  -0.67743  -0.65371  -0.64350
 Alpha  occ. eigenvalues --   -0.62176  -0.59519  -0.57651  -0.56555  -0.52482
 Alpha  occ. eigenvalues --   -0.50548  -0.49176  -0.46284  -0.44240  -0.42250
 Alpha  occ. eigenvalues --   -0.40811  -0.40477  -0.39568  -0.37496  -0.36665
 Alpha  occ. eigenvalues --   -0.36179  -0.34727  -0.34212  -0.33331  -0.32767
 Alpha  occ. eigenvalues --   -0.32076  -0.31617  -0.30959  -0.29888  -0.29376
 Alpha  occ. eigenvalues --   -0.28694  -0.28312  -0.28039  -0.27055  -0.26337
 Alpha  occ. eigenvalues --   -0.25342  -0.24895  -0.24735  -0.23797  -0.23695
 Alpha  occ. eigenvalues --   -0.23211  -0.22504  -0.21286  -0.19487  -0.17844
 Alpha  occ. eigenvalues --   -0.15891  -0.15168  -0.12990  -0.12600  -0.09955
 Alpha  occ. eigenvalues --   -0.08914   0.03534
 Alpha virt. eigenvalues --    0.06749   0.07738   0.08244   0.08530   0.09261
 Alpha virt. eigenvalues --    0.09995   0.10303   0.10654   0.11218   0.11341
 Alpha virt. eigenvalues --    0.11546   0.11914   0.12438   0.13083   0.13513

  Beta  occ. eigenvalues --  -19.04388 -19.03361 -18.94720 -18.93808 -14.22298
  Beta  occ. eigenvalues --  -14.21962 -14.15686 -10.13349 -10.13189 -10.12601
  Beta  occ. eigenvalues --  -10.12585 -10.11974 -10.09512 -10.09002 -10.07332
  Beta  occ. eigenvalues --  -10.05469 -10.04761 -10.04665 -10.02683 -10.00639
  Beta  occ. eigenvalues --   -0.96263  -0.93191  -0.90516  -0.89847  -0.85126
  Beta  occ. eigenvalues --   -0.81450  -0.70723  -0.67729  -0.65182  -0.63637
  Beta  occ. eigenvalues --   -0.62114  -0.59462  -0.57535  -0.56498  -0.52115
  Beta  occ. eigenvalues --   -0.50300  -0.49028  -0.45932  -0.44141  -0.42190
  Beta  occ. eigenvalues --   -0.40790  -0.40333  -0.39535  -0.37239  -0.36561
  Beta  occ. eigenvalues --   -0.36019  -0.34452  -0.33958  -0.33264  -0.32720
  Beta  occ. eigenvalues --   -0.32013  -0.31561  -0.30767  -0.29806  -0.28849
  Beta  occ. eigenvalues --   -0.28532  -0.28229  -0.27693  -0.26907  -0.26021
  Beta  occ. eigenvalues --   -0.25081  -0.24774  -0.24687  -0.23657  -0.23655
  Beta  occ. eigenvalues --   -0.23096  -0.22390  -0.20025  -0.19127  -0.17837
  Beta  occ. eigenvalues --   -0.15089  -0.13637  -0.12727  -0.12160  -0.09465
  Beta  occ. eigenvalues --   -0.07116
  Beta virt. eigenvalues --    0.06731   0.07652   0.08161   0.08496   0.09214
  Beta virt. eigenvalues --    0.09827   0.10290   0.10641   0.11103   0.11366
  Beta virt. eigenvalues --    0.11541   0.11880   0.12083   0.12438   0.13075

 Mulliken charges and spin densities:
               1          2
     1  C   -0.583446   0.012533
     2  C   -0.062401  -0.050599
     3  C   -0.244200  -0.018508
     4  N    0.513086   0.097629
     5  C   -0.118932  -0.033592
     6  O   -0.368195  -0.007142
     7  C   -0.411955   0.295395
     8  C    0.183156   0.056709
     9  C   -0.528424   0.050758
    10  N   -0.356220   0.470661
    11  C   -0.113138   0.006332
    12  O   -0.350004   0.041693
    13  N    0.074759   0.006439
    14  C   -0.360410   0.001833
    15  C   -0.277500   0.011553
    16  C   -0.386203  -0.017905
    17  C   -0.209176   0.004931
    18  O   -0.160557  -0.000327
    19  C   -0.301772  -0.001254
    20  O   -0.193118   0.000722
    21  H    0.168134   0.000897
    22  H    0.104260   0.004418
    23  H    0.143144  -0.001186
    24  H    0.139317  -0.009020
    25  H    0.075625   0.035917
    26  H    0.062056   0.060443
    27  H    0.193578  -0.004135
    28  H    0.140579  -0.020532
    29  H    0.154820  -0.004714
    30  H    0.098838  -0.000750
    31  H    0.166146   0.004676
    32  H    0.203523   0.000741
    33  H    0.224395  -0.002365
    34  H    0.183103   0.004953
    35  H    0.155931  -0.000273
    36  H    0.159058  -0.000469
    37  H    0.188514   0.000260
    38  H    0.104874  -0.000030
    39  H    0.214269   0.001388
    40  H    0.117599   0.000508
    41  H    0.256888   0.001408
 Sum of Mulliken charges =  -1.00000   1.00000

 Dipole moment (field-independent basis, Debye):
    X=              6.9963    Y=             -2.8596    Z=             -0.1712  Tot=              7.5601
 Quadrupole moment (field-independent basis, Debye-Ang):
   XX=           -195.9810   YY=           -139.5827   ZZ=           -129.9537
   XY=             23.1165   XZ=             -6.9048   YZ=              2.0449

 Summary of Natural Population Analysis:

                                       Natural Population
                Natural  -----------------------------------------------
    Atom  No    Charge         Core      Valence    Rydberg      Total
 -----------------------------------------------------------------------
      C    1   -0.28844      0.99967     2.28433    0.00444     3.28844
      C    2   -0.18992      0.99964     2.18358    0.00670     3.18992
      C    3   -0.08715      0.99962     2.07712    0.01041     3.08715
      N    4   -0.08495      0.99966     2.57080    0.01449     3.58495
      C    5    0.29854      0.99960     1.67890    0.02295     2.70146
      O    6   -0.35604      0.99988     3.34986    0.00630     4.35604
      C    7   -0.08507      0.99952     2.07598    0.00957     3.08507
      C    8   -0.06987      0.99953     2.06157    0.00877     3.06987
      C    9    0.01484      0.99953     1.97146    0.01416     2.98516
      N   10    0.00223      0.99964     2.48436    0.01377     3.49777
      C   11    0.34359      0.99959     1.63414    0.02268     2.65641
      O   12   -0.33828      0.99988     3.33280    0.00560     4.33828
      N   13   -0.25680      0.99964     2.74629    0.01088     3.75680
      C   14   -0.17111      0.99965     2.16482    0.00664     3.17111
      C   15   -0.09654      0.99959     2.08572    0.01123     3.09654
      C   16    0.05087      0.99957     1.93667    0.01290     2.94913
      C   17   -0.02297      0.99957     2.01303    0.01037     3.02297
      O   18   -0.31298      0.99988     3.30154    0.01157     4.31298
      C   19   -0.09817      0.99963     2.08992    0.00862     3.09817
      O   20   -0.37612      0.99990     3.36939    0.00683     4.37612
      H   21    0.10469      0.00000     0.39444    0.00087     0.39531
      H   22    0.08925      0.00000     0.40979    0.00095     0.41075
      H   23    0.09997      0.00000     0.39906    0.00097     0.40003
      H   24    0.09881      0.00000     0.39976    0.00143     0.40119
      H   25    0.08536      0.00000     0.41264    0.00200     0.41464
      H   26    0.09514      0.00000     0.40329    0.00157     0.40486
      H   27    0.10738      0.00000     0.39149    0.00113     0.39262
      H   28    0.09227      0.00000     0.40606    0.00166     0.40773
      H   29    0.10253      0.00000     0.39629    0.00119     0.39747
      H   30    0.08205      0.00000     0.41678    0.00117     0.41795
      H   31    0.09529      0.00000     0.40352    0.00119     0.40471
      H   32    0.11085      0.00000     0.38827    0.00088     0.38915
      H   33    0.11532      0.00000     0.38325    0.00144     0.38468
      H   34    0.09399      0.00000     0.40486    0.00115     0.40601
      H   35    0.08485      0.00000     0.41382    0.00133     0.41515
      H   36    0.07660      0.00000     0.42199    0.00141     0.42340
      H   37    0.10108      0.00000     0.39757    0.00135     0.39892
      H   38    0.07085      0.00000     0.42778    0.00136     0.42915
      H   39    0.09821      0.00000     0.40055    0.00123     0.40179
      H   40    0.08565      0.00000     0.41350    0.00085     0.41435
      H   41    0.23419      0.00000     0.26328    0.00253     0.26581
 =======================================================================
   * Total *    0.00000     19.99319    55.76026    0.24654    76.00000

 Normal termination of Gaussian 16 at Mon Dec 14 19:07:57 2020.
