 Gaussian 16, Revision A.03,

 -----------------------------------------------------------
 # opt freq B3LYP/6-31G(d) empiricaldispersion=gd3bj scf=xqc
 -----------------------------------------------------------

 ------------------------------
 CID_22572900_JID_2557_neutraal
 ------------------------------
 Symbolic Z-matrix:
 Charge =  0 Multiplicity = 1

 SCF Done:  E(RB3LYP) =  -878.987528479     A.U. after   15 cycles
 SCF Done:  E(RB3LYP) =  -878.989387333     A.U. after   14 cycles
 SCF Done:  E(RB3LYP) =  -878.987058921     A.U. after   14 cycles
 SCF Done:  E(RB3LYP) =  -878.990759235     A.U. after   13 cycles
 SCF Done:  E(RB3LYP) =  -878.991282753     A.U. after   13 cycles
 SCF Done:  E(RB3LYP) =  -878.991512157     A.U. after   13 cycles
 SCF Done:  E(RB3LYP) =  -878.991872610     A.U. after   12 cycles
 SCF Done:  E(RB3LYP) =  -878.991983373     A.U. after   12 cycles
 SCF Done:  E(RB3LYP) =  -878.992075012     A.U. after   12 cycles
 SCF Done:  E(RB3LYP) =  -878.992227239     A.U. after   12 cycles
 SCF Done:  E(RB3LYP) =  -878.995288057     A.U. after   11 cycles
 SCF Done:  E(RB3LYP) =  -878.995326103     A.U. after   12 cycles
 SCF Done:  E(RB3LYP) =  -878.995329441     A.U. after   10 cycles
 SCF Done:  E(RB3LYP) =  -878.995330457     A.U. after   10 cycles
 SCF Done:  E(RB3LYP) =  -878.995330624     A.U. after    8 cycles
 Optimization completed.
    -- Stationary point found.
 Normal termination of Gaussian 16 at Wed Dec  9 17:48:40 2020.

 --------------------------------------------------------------------
 #N Geom=AllCheck Guess=TCheck SCRF=Check GenChk RB3LYP/6-31G(d) Freq
 --------------------------------------------------------------------

 Structure from the checkpoint file:  "JID_2557.chk"
 ------------------------------
 CID_22572900_JID_2557_neutraal
 ------------------------------
 Charge =  0 Multiplicity = 1

 SCF Done:  E(RB3LYP) =  -878.995330624     A.U. after    1 cycles

  Exact polarizability: 144.081   1.030 114.275  -0.864   3.664  81.569
 Approx polarizability: 205.690   1.090 178.754  -3.618   6.188 136.247

                      1                      2                      3
                      A                      A                      A
 Frequencies --     21.5382                30.7273                67.5131
 Red. masses --      5.6697                 3.2393                 3.9231
 Frc consts  --      0.0015                 0.0018                 0.0105
 IR Inten    --      0.7334                 0.0605                 1.6391

                      4                      5                      6
                      A                      A                      A
 Frequencies --     80.1042               153.5222               198.1255
 Red. masses --      7.4371                 3.9608                 2.4745
 Frc consts  --      0.0281                 0.0550                 0.0572
 IR Inten    --      1.5757                 0.9643                 2.7140

                      7                      8                      9
                      A                      A                      A
 Frequencies --    206.7590               238.1646               239.9047
 Red. masses --      1.0538                 2.7887                 1.5995
 Frc consts  --      0.0265                 0.0932                 0.0542
 IR Inten    --      0.0683                 3.1654                 0.1155

                     10                     11                     12
                      A                      A                      A
 Frequencies --    279.3742               298.8335               327.0750
 Red. masses --      2.3468                 2.4803                 3.0007
 Frc consts  --      0.1079                 0.1305                 0.1891
 IR Inten    --      1.8941                 2.0646                 8.6481

                     13                     14                     15
                      A                      A                      A
 Frequencies --    399.2359               472.2674               496.6032
 Red. masses --      2.6173                 3.2933                 4.5126
 Frc consts  --      0.2458                 0.4328                 0.6557
 IR Inten    --      9.8181                 1.6729                 5.5458

                     16                     17                     18
                      A                      A                      A
 Frequencies --    558.8802               599.9604               624.6615
 Red. masses --      2.7634                 3.6482                 3.7151
 Frc consts  --      0.5085                 0.7737                 0.8541
 IR Inten    --      1.2629                 1.0673                 0.9671

                     19                     20                     21
                      A                      A                      A
 Frequencies --    665.0720               702.6629               731.6598
 Red. masses --      6.4322                 4.3130                 1.2429
 Frc consts  --      1.6763                 1.2547                 0.3920
 IR Inten    --      2.8158                 2.0358                 5.4888

                     22                     23                     24
                      A                      A                      A
 Frequencies --    768.0555               815.7622               819.6217
 Red. masses --      2.5665                 1.2637                 4.7986
 Frc consts  --      0.8920                 0.4955                 1.8993
 IR Inten    --      0.2181                38.1293                 7.7869

                     25                     26                     27
                      A                      A                      A
 Frequencies --    881.3227               891.1405               929.2477
 Red. masses --      4.2085                 2.9944                 2.2418
 Frc consts  --      1.9260                 1.4011                 1.1406
 IR Inten    --     27.0740                 5.3948                19.3178

                     28                     29                     30
                      A                      A                      A
 Frequencies --    943.1085               951.7996               983.9583
 Red. masses --      2.0512                 1.4900                 1.4668
 Frc consts  --      1.0750                 0.7953                 0.8367
 IR Inten    --      2.3677                 3.4715                 0.1376

                     31                     32                     33
                      A                      A                      A
 Frequencies --    997.2808              1025.7364              1096.5500
 Red. masses --      2.1031                 2.9459                 2.0985
 Frc consts  --      1.2324                 1.8261                 1.4866
 IR Inten    --     18.2891                38.2801                42.3597

                     34                     35                     36
                      A                      A                      A
 Frequencies --   1118.5875              1144.1676              1166.4198
 Red. masses --      1.7212                 2.1201                 1.3149
 Frc consts  --      1.2689                 1.6352                 1.0540
 IR Inten    --     16.8628                13.5722                 2.0717

                     37                     38                     39
                      A                      A                      A
 Frequencies --   1210.2934              1218.6093              1242.3417
 Red. masses --      1.3506                 1.6269                 1.5264
 Frc consts  --      1.1656                 1.4234                 1.3880
 IR Inten    --      0.2965                 5.2466                16.7290

                     40                     41                     42
                      A                      A                      A
 Frequencies --   1278.0442              1336.1696              1360.0847
 Red. masses --      1.2779                 1.3865                 2.3657
 Frc consts  --      1.2298                 1.4584                 2.5784
 IR Inten    --     12.0133                 3.5057                 1.8886

                     43                     44                     45
                      A                      A                      A
 Frequencies --   1377.0849              1385.9476              1407.0123
 Red. masses --      1.5604                 1.4918                 1.7083
 Frc consts  --      1.7434                 1.6884                 1.9926
 IR Inten    --      6.7602                12.8095                12.5637

                     46                     47                     48
                      A                      A                      A
 Frequencies --   1428.9514              1447.4450              1485.3985
 Red. masses --      1.2634                 1.2175                 1.3358
 Frc consts  --      1.5200                 1.5029                 1.7365
 IR Inten    --      2.2302                 6.7425                18.1158

                     49                     50                     51
                      A                      A                      A
 Frequencies --   1493.5850              1504.4360              1512.0341
 Red. masses --      2.3986                 1.2110                 1.0590
 Frc consts  --      3.1526                 1.6149                 1.4265
 IR Inten    --     32.4775                34.7616                 2.8179

                     52                     53                     54
                      A                      A                      A
 Frequencies --   1517.7573              1530.6478              1536.7503
 Red. masses --      1.0485                 1.0460                 1.0633
 Frc consts  --      1.4231                 1.4439                 1.4795
 IR Inten    --      2.9135                10.5421                18.3352

                     55                     56                     57
                      A                      A                      A
 Frequencies --   1573.5792              1811.6201              3016.4181
 Red. masses --      7.5037                10.6825                 1.0820
 Frc consts  --     10.9471                20.6565                 5.8005
 IR Inten    --     33.4019               105.8019                19.5622

                     58                     59                     60
                      A                      A                      A
 Frequencies --   3032.3114              3056.3871              3060.1784
 Red. masses --      1.0693                 1.0358                 1.0379
 Frc consts  --      5.7931                 5.7008                 5.7265
 IR Inten    --     23.1258                23.6805                34.2957

                     61                     62                     63
                      A                      A                      A
 Frequencies --   3061.4744              3098.7295              3106.2440
 Red. masses --      1.0601                 1.0944                 1.0995
 Frc consts  --      5.8541                 6.1913                 6.2506
 IR Inten    --      6.8041                18.2850                12.1842

                     64                     65                     66
                      A                      A                      A
 Frequencies --   3123.0776              3128.1117              3140.9967
 Red. masses --      1.1029                 1.1023                 1.1016
 Frc consts  --      6.3378                 6.3548                 6.4034
 IR Inten    --     23.9025                32.8191                24.9387

                     67                     68                     69
                      A                      A                      A
 Frequencies --   3144.1936              3248.9006              3277.5111
 Red. masses --      1.1014                 1.0939                 1.0947
 Frc consts  --      6.4155                 6.8030                 6.9287
 IR Inten    --     28.3888                 0.9523                 1.4349

 - Thermochemistry -
 -------------------
 Temperature   298.150 Kelvin.  Pressure   1.00000 Atm.
 Atom     1 has atomic number  6 and mass  12.00000

 Molecular mass:   183.07179 amu.
 Principal axes and moments of inertia in atomic units:
                           1         2         3
     Eigenvalues --  1011.302214234.073134792.12624
           X            0.99975  -0.02199   0.00321
           Y            0.02194   0.99963   0.01593
           Z           -0.00356  -0.01586   0.99987
 This molecule is an asymmetric top.
 Rotational symmetry number  1.
 Warning -- assumption of classical behavior for rotation
           may cause significant error
 Rotational temperatures (Kelvin)      0.08565     0.02046     0.01807
 Rotational constants (GHZ):           1.78457     0.42624     0.37661
 Zero-point vibrational energy     544765.8 (Joules/Mol)
                                  130.20215 (Kcal/Mol)
 Warning -- explicit consideration of  17 degrees of freedom as
           vibrations may cause significant error
 Vibrational temperatures:     30.99    44.21    97.14   115.25   220.88
          (Kelvin)            285.06   297.48   342.67   345.17   401.96
                              429.95   470.59   574.41   679.49   714.50
                              804.10   863.21   898.75   956.89  1010.98
                             1052.70  1105.06  1173.70  1179.25  1268.03
                             1282.15  1336.98  1356.92  1369.43  1415.70
                             1434.86  1475.81  1577.69  1609.40  1646.20
                             1678.22  1741.34  1753.31  1787.45  1838.82
                             1922.45  1956.86  1981.32  1994.07  2024.38
                             2055.94  2082.55  2137.16  2148.94  2164.55
                             2175.48  2183.71  2202.26  2211.04  2264.03
                             2606.52  4339.95  4362.82  4397.46  4402.91
                             4404.78  4458.38  4469.19  4493.41  4500.65
                             4519.19  4523.79  4674.44  4715.61

 Zero-point correction=                           0.207490 (Hartree/Particle)
 Thermal correction to Energy=                    0.220126
 Thermal correction to Enthalpy=                  0.221071
 Thermal correction to Gibbs Free Energy=         0.166519
 Sum of electronic and zero-point Energies=           -878.787840
 Sum of electronic and thermal Energies=              -878.775204
 Sum of electronic and thermal Enthalpies=            -878.774260
 Sum of electronic and thermal Free Energies=         -878.828811

                     E (Thermal)             CV                S
                      KCal/Mol        Cal/Mol-Kelvin    Cal/Mol-Kelvin
 Total                  138.131             46.224            114.812
 Electronic               0.000              0.000              0.000
 Translational            0.889              2.981             41.521
 Rotational               0.889              2.981             31.396
 Vibrational            136.354             40.262             41.896
 Vibration     1          0.593              1.985              6.487
 Vibration     2          0.594              1.984              5.782
 Vibration     3          0.598              1.970              4.225
 Vibration     4          0.600              1.963              3.888
 Vibration     5          0.619              1.899              2.628
 Vibration     6          0.637              1.843              2.150
 Vibration     7          0.641              1.830              2.072
 Vibration     8          0.656              1.782              1.817
 Vibration     9          0.657              1.779              1.804
 Vibration    10          0.680              1.712              1.537
 Vibration    11          0.692              1.676              1.423
 Vibration    12          0.711              1.621              1.274
 Vibration    13          0.765              1.472              0.965
 Vibration    14          0.829              1.312              0.731
 Vibration    15          0.852              1.258              0.667
 Vibration    16          0.914              1.120              0.526
 Vibration    17          0.958              1.032              0.450

                           ! Non-Optimized Parameters !
 Normal termination of Gaussian 16 at Wed Dec  9 17:55:07 2020.

 ----------------------------------------------------------------------
 # B3LYP/6-311++G(d,p) empiricaldispersion=gd3bj scf=xqc pop=npa geom=c
 heck
 ----------------------------------------------------------------------

 --------------------------------------
 CID_22572900_JID_2557_Energie_neutraal
 --------------------------------------
 Structure from the checkpoint file:  "JID_2557.chk"
 Charge =  0 Multiplicity = 1

 SCF Done:  E(RB3LYP) =  -879.155449217     A.U. after   15 cycles
 Normal termination of Gaussian 16 at Wed Dec  9 17:58:29 2020.

 ----------------------------------------------------------------------
 # B3LYP/6-311++G(d,p) empiricaldispersion=gd3bj scf=xqc pop=npa geom=c
 heck
 ----------------------------------------------------------------------

 ------------------------------------
 CID_22572900_JID_2557_Energie_kation
 ------------------------------------
 Structure from the checkpoint file:  "JID_2557.chk"
 Charge =  1 Multiplicity = 2

 SCF Done:  E(UB3LYP) =  -878.844507064     A.U. after   23 cycles
 Normal termination of Gaussian 16 at Wed Dec  9 18:05:10 2020.
 Gaussian 16:  ES64L-G16RevA.03 25-Dec-2016

 ----------------------------------------------------------------------
 # B3LYP/6-311++G(d,p) empiricaldispersion=gd3bj scf=xqc pop=npa geom=c
 heck
 ----------------------------------------------------------------------

 -----------------------------------
 CID_22572900_JID_2557_Energie_anion
 -----------------------------------
 Structure from the checkpoint file:  "JID_2557.chk"
 Charge = -1 Multiplicity = 2

                         Standard orientation:
 ---------------------------------------------------------------------
 Center     Atomic      Atomic             Coordinates (Angstroms)
 Number     Number       Type             X           Y           Z
 ---------------------------------------------------------------------
      1          6           0        2.083116   -1.711344    0.692911
      2          6           0        2.813422   -0.372168    0.463270
      3          6           0        4.044909   -0.552982   -0.425686
      4          6           0        1.837825    0.636259   -0.137618
      5          8           0        1.822663    0.891223   -1.327066
      6          6           0        0.910636    1.360317    0.837974
      7          6           0       -0.391340    1.832032    0.181265
      8          6           0       -1.402828    0.725809    0.052258
      9          6           0       -2.761067    0.858622    0.150657
     10         16           0       -3.545314   -0.669823   -0.093235
     11          6           0       -1.967546   -1.389412   -0.299693
     12          7           0       -0.969126   -0.563907   -0.199454
     13          1           0        1.754296   -2.129030   -0.263781
     14          1           0        1.195664   -1.593682    1.320285
     15          1           0        2.760412   -2.426288    1.173035
     16          1           0        3.119589    0.014984    1.446815
     17          1           0        3.747683   -0.904164   -1.417869
     18          1           0        4.583309    0.391210   -0.558211
     19          1           0        4.731787   -1.283902    0.014696
     20          1           0        0.716383    0.735019    1.715648
     21          1           0        1.478921    2.231033    1.197785
     22          1           0       -0.831779    2.659566    0.746433
     23          1           0       -0.137165    2.212573   -0.815640
     24          1           0       -3.332931    1.754946    0.345319
     25          1           0       -1.861350   -2.450332   -0.492088
 ---------------------------------------------------------------------

 SCF Done:  E(UB3LYP) =  -879.142250973     A.U. after   33 cycles
 SCF Done:  E(UB3LYP) =  -879.142250973     a.u. after    1 cycles

 The electronic state is 2-A.
 Alpha  occ. eigenvalues --  -88.76902 -18.99021 -14.19795 -10.13585 -10.11483
 Alpha  occ. eigenvalues --  -10.09399 -10.08224 -10.07078 -10.06300 -10.06260
 Alpha  occ. eigenvalues --  -10.05294 -10.05235  -7.85559  -5.81819  -5.81483
 Alpha  occ. eigenvalues --   -5.81196  -0.92483  -0.85051  -0.69706  -0.68619
 Alpha  occ. eigenvalues --   -0.68095  -0.62197  -0.57847  -0.55073  -0.49544
 Alpha  occ. eigenvalues --   -0.48570  -0.43314  -0.40654  -0.38966  -0.37756
 Alpha  occ. eigenvalues --   -0.34393  -0.33423  -0.32878  -0.30908  -0.30011
 Alpha  occ. eigenvalues --   -0.29687  -0.29493  -0.28044  -0.27076  -0.25797
 Alpha  occ. eigenvalues --   -0.25420  -0.24339  -0.23735  -0.22821  -0.22372
 Alpha  occ. eigenvalues --   -0.17530  -0.16474  -0.13563  -0.13067   0.04879
 Alpha virt. eigenvalues --    0.06718   0.07198   0.08012   0.08515   0.08988
 Alpha virt. eigenvalues --    0.09656   0.10083   0.10956   0.11566   0.11922
 Alpha virt. eigenvalues --    0.12192   0.12351   0.13082   0.13677   0.14186

  Beta  occ. eigenvalues --  -88.76878 -18.98952 -14.19743 -10.13526 -10.11323
  Beta  occ. eigenvalues --  -10.09390 -10.08116 -10.07074 -10.06289 -10.06243
  Beta  occ. eigenvalues --  -10.05268 -10.05219  -7.85537  -5.81808  -5.81473
  Beta  occ. eigenvalues --   -5.81116  -0.92351  -0.84891  -0.69635  -0.68493
  Beta  occ. eigenvalues --   -0.68011  -0.62049  -0.57802  -0.54940  -0.49453
  Beta  occ. eigenvalues --   -0.48340  -0.43189  -0.40540  -0.38858  -0.37698
  Beta  occ. eigenvalues --   -0.34338  -0.33292  -0.32778  -0.30795  -0.29893
  Beta  occ. eigenvalues --   -0.29508  -0.29287  -0.28010  -0.27004  -0.25672
  Beta  occ. eigenvalues --   -0.25234  -0.24287  -0.23683  -0.22770  -0.22190
  Beta  occ. eigenvalues --   -0.17067  -0.16390  -0.13326  -0.12660
  Beta virt. eigenvalues --    0.07314   0.08000   0.08184   0.08307   0.09087
  Beta virt. eigenvalues --    0.09394   0.10166   0.10507   0.11337   0.11737
  Beta virt. eigenvalues --    0.12258   0.12308   0.12542   0.13262   0.13918

 Mulliken charges and spin densities:
               1          2
     1  C    0.317390  -1.007434
     2  C   -0.507378   0.917870
     3  C    0.078962  -0.688900
     4  C   -0.156944  -0.044668
     5  O   -0.258064   0.015350
     6  C    0.717736  -0.841830
     7  C    0.825760  -1.440378
     8  C   -1.540338   0.376858
     9  C    0.819075  -0.015986
    10  S   -0.027511  -0.400671
    11  C   -0.085223   0.442488
    12  N    0.166521   0.037817
    13  H    0.085953   0.077612
    14  H   -0.002711   0.133373
    15  H   -0.167378   0.296814
    16  H   -0.428341   0.616971
    17  H    0.123797   0.039878
    18  H   -0.012453   0.148984
    19  H   -0.130555   0.270773
    20  H    0.103811   0.048291
    21  H   -0.474076   0.684363
    22  H   -0.369566   0.536197
    23  H    0.254748  -0.071525
    24  H   -0.485866   0.774948
    25  H    0.152652   0.092805
 Sum of Mulliken charges =  -1.00000   1.00000

 Dipole moment (field-independent basis, Debye):
    X=             -2.8800    Y=             -3.1645    Z=             -2.7090  Tot=              5.0644
 Quadrupole moment (field-independent basis, Debye-Ang):
   XX=           -139.3923   YY=           -115.5354   ZZ=           -110.9852
   XY=              7.4464   XZ=             -2.2937   YZ=             -2.7937

 Summary of Natural Population Analysis:

                                       Natural Population
                Natural  -----------------------------------------------
    Atom  No    Charge         Core      Valence    Rydberg      Total
 -----------------------------------------------------------------------
      C    1   -0.27829      0.99964     2.27208    0.00657     3.27829
      C    2   -0.15528      0.99956     2.14587    0.00985     3.15528
      C    3   -0.28409      0.99966     2.27676    0.00767     3.28409
      C    4    0.31508      0.99964     1.66187    0.02341     2.68492
      O    5   -0.29178      0.99987     3.28581    0.00610     4.29178
      C    6   -0.23358      0.99957     2.22405    0.00995     3.23358
      C    7   -0.20343      0.99958     2.19327    0.01057     3.20343
      C    8    0.06729      0.99949     1.91850    0.01472     2.93271
      C    9   -0.19315      0.99946     2.18279    0.01089     3.19315
      S   10    0.17297      4.99948     2.80506    0.02250     7.82703
      C   11   -0.02645      0.99965     2.01153    0.01527     3.02645
      N   12   -0.23973      0.99966     2.72862    0.01145     3.73973
      H   13    0.10032      0.00000     0.39866    0.00101     0.39968
      H   14    0.10600      0.00000     0.39288    0.00112     0.39400
      H   15    0.09663      0.00000     0.40222    0.00115     0.40337
      H   16    0.10151      0.00000     0.39539    0.00310     0.39849
      H   17    0.10317      0.00000     0.39589    0.00094     0.39683
      H   18    0.09988      0.00000     0.39935    0.00077     0.40012
      H   19    0.09621      0.00000     0.40297    0.00082     0.40379
      H   20    0.10558      0.00000     0.39282    0.00160     0.39442
      H   21    0.11450      0.00000     0.38331    0.00219     0.38550
      H   22    0.10657      0.00000     0.39137    0.00205     0.39343
      H   23    0.11358      0.00000     0.38497    0.00145     0.38642
      H   24    0.11199      0.00000     0.38644    0.00157     0.38801
      H   25    0.09449      0.00000     0.40451    0.00100     0.40551
 =======================================================================
   * Total *    0.00000     15.99526    32.83699    0.16775    49.00000

 Normal termination of Gaussian 16 at Wed Dec  9 18:15:38 2020.
