 Gaussian 16, Revision A.03,

 -----------------------------------------------------------
 # opt freq B3LYP/6-31G(d) empiricaldispersion=gd3bj scf=xqc
 -----------------------------------------------------------

 --------------------------------
 CID_102950281_JID_10331_neutraal
 --------------------------------
 Symbolic Z-matrix:
 Charge =  0 Multiplicity = 1

 SCF Done:  E(RB3LYP) =  -985.634573738     A.U. after   14 cycles
 SCF Done:  E(RB3LYP) =  -985.646079740     A.U. after   13 cycles
 SCF Done:  E(RB3LYP) =  -985.647797447     A.U. after   13 cycles
 SCF Done:  E(RB3LYP) =  -985.647976653     A.U. after   11 cycles
 SCF Done:  E(RB3LYP) =  -985.648021048     A.U. after   11 cycles
 SCF Done:  E(RB3LYP) =  -985.648048350     A.U. after   11 cycles
 SCF Done:  E(RB3LYP) =  -985.648066004     A.U. after   12 cycles
 SCF Done:  E(RB3LYP) =  -985.648092368     A.U. after   12 cycles
 SCF Done:  E(RB3LYP) =  -985.648119217     A.U. after   12 cycles
 SCF Done:  E(RB3LYP) =  -985.648130952     A.U. after   11 cycles
 SCF Done:  E(RB3LYP) =  -985.648144334     A.U. after    8 cycles
 SCF Done:  E(RB3LYP) =  -985.648144357     A.U. after    8 cycles
 SCF Done:  E(RB3LYP) =  -985.648144392     A.U. after    8 cycles
 SCF Done:  E(RB3LYP) =  -985.648144415     A.U. after    8 cycles
 SCF Done:  E(RB3LYP) =  -985.648144420     A.U. after    7 cycles
 Optimization completed.
    -- Stationary point found.
 Normal termination of Gaussian 16 at Sun Dec 13 16:45:32 2020.

 --------------------------------------------------------------------
 #N Geom=AllCheck Guess=TCheck SCRF=Check GenChk RB3LYP/6-31G(d) Freq
 --------------------------------------------------------------------

 Structure from the checkpoint file:  "JID_10331.chk"
 --------------------------------
 CID_102950281_JID_10331_neutraal
 --------------------------------
 Charge =  0 Multiplicity = 1

 SCF Done:  E(RB3LYP) =  -985.648144420     A.U. after    1 cycles

  Exact polarizability: 201.495  11.836 164.257  10.413  16.211 127.517
 Approx polarizability: 267.544  27.909 271.851  26.733  39.564 216.046

                      1                      2                      3
                      A                      A                      A
 Frequencies --      6.0970                28.5798                42.2333
 Red. masses --      5.2020                 4.7057                 4.9293
 Frc consts  --      0.0001                 0.0023                 0.0052
 IR Inten    --      0.6158                 0.4755                 0.2285

                      4                      5                      6
                      A                      A                      A
 Frequencies --     76.0370                95.7665               119.7187
 Red. masses --      3.7051                 3.2820                 3.9489
 Frc consts  --      0.0126                 0.0177                 0.0333
 IR Inten    --      0.6203                 4.8320                 7.0637

                      7                      8                      9
                      A                      A                      A
 Frequencies --    139.7160               142.2333               164.1549
 Red. masses --      2.8916                 3.9166                 2.1479
 Frc consts  --      0.0333                 0.0467                 0.0341
 IR Inten    --     25.8989                 3.6589                 2.3707

                     10                     11                     12
                      A                      A                      A
 Frequencies --    166.8709               169.0768               175.3464
 Red. masses --      1.4159                 1.1792                 3.9804
 Frc consts  --      0.0232                 0.0199                 0.0721
 IR Inten    --      0.7790                 0.0988                 0.1471

                     13                     14                     15
                      A                      A                      A
 Frequencies --    184.6851               210.5884               219.5998
 Red. masses --      1.2510                 2.7608                 3.2939
 Frc consts  --      0.0251                 0.0721                 0.0936
 IR Inten    --      0.9686                17.3523                27.1562

                     16                     17                     18
                      A                      A                      A
 Frequencies --    240.8683               269.6385               274.7709
 Red. masses --      4.3146                 4.5004                 3.7525
 Frc consts  --      0.1475                 0.1928                 0.1669
 IR Inten    --     13.3127                 3.9536                14.0414

                     19                     20                     21
                      A                      A                      A
 Frequencies --    302.2171               344.7004               364.7918
 Red. masses --      3.0806                 4.3404                 3.3911
 Frc consts  --      0.1658                 0.3039                 0.2659
 IR Inten    --     28.3438                22.5615                91.3740

                     22                     23                     24
                      A                      A                      A
 Frequencies --    409.8611               459.7131               492.1915
 Red. masses --      4.9319                 4.6016                 3.8841
 Frc consts  --      0.4881                 0.5730                 0.5544
 IR Inten    --      6.7784                 1.7738                 5.4824

                     25                     26                     27
                      A                      A                      A
 Frequencies --    494.0093               506.9933               533.2631
 Red. masses --      5.8985                 7.5318                 5.9989
 Frc consts  --      0.8481                 1.1407                 1.0051
 IR Inten    --     11.9356                18.8974                25.6161

                     28                     29                     30
                      A                      A                      A
 Frequencies --    582.3778               633.5704               666.1263
 Red. masses --      7.3470                 5.5487                 8.1962
 Frc consts  --      1.4681                 1.3123                 2.1428
 IR Inten    --      3.6622                 1.5631                17.2747

                     31                     32                     33
                      A                      A                      A
 Frequencies --    693.3910               701.9896               725.7518
 Red. masses --      5.1435                 7.3666                 8.1796
 Frc consts  --      1.4570                 2.1388                 2.5384
 IR Inten    --      3.0165                29.3506                 5.8730

                     34                     35                     36
                      A                      A                      A
 Frequencies --    739.4118               785.5580               795.1056
 Red. masses --      5.5917                 7.3876                 4.1548
 Frc consts  --      1.8012                 2.6860                 1.5476
 IR Inten    --     14.4601                 8.1501                 0.8422

                     37                     38                     39
                      A                      A                      A
 Frequencies --    844.5472               852.6532               877.4609
 Red. masses --      2.4459                 5.0881                 1.5906
 Frc consts  --      1.0279                 2.1795                 0.7216
 IR Inten    --      9.3673                21.3309                10.0075

                     40                     41                     42
                      A                      A                      A
 Frequencies --    890.1902               933.3624               985.7785
 Red. masses --      2.1470                 4.5375                 1.4476
 Frc consts  --      1.0024                 2.3290                 0.8288
 IR Inten    --     16.7820                13.9126                 0.5270

                     43                     44                     45
                      A                      A                      A
 Frequencies --   1004.0034              1009.7087              1054.2239
 Red. masses --      6.0568                 9.7294                 7.7625
 Frc consts  --      3.5972                 5.8442                 5.0830
 IR Inten    --      1.8126                12.9426                59.2267

                     46                     47                     48
                      A                      A                      A
 Frequencies --   1070.9725              1081.9677              1114.0496
 Red. masses --      4.2286                 4.5428                 3.8631
 Frc consts  --      2.8576                 3.1333                 2.8249
 IR Inten    --    116.6441                85.9569               119.4353

                     49                     50                     51
                      A                      A                      A
 Frequencies --   1168.5347              1179.3952              1184.4352
 Red. masses --      2.1327                 1.9074                 1.2664
 Frc consts  --      1.7158                 1.5631                 1.0468
 IR Inten    --     28.8648                37.5855                 0.5579

                     52                     53                     54
                      A                      A                      A
 Frequencies --   1184.8836              1185.4737              1210.4657
 Red. masses --      1.2707                 1.2653                 1.5110
 Frc consts  --      1.0511                 1.0477                 1.3044
 IR Inten    --      0.3704                 1.0183                31.5802

                     55                     56                     57
                      A                      A                      A
 Frequencies --   1212.2582              1230.7568              1262.4796
 Red. masses --      1.3885                 2.2935                 2.3467
 Frc consts  --      1.2023                 2.0469                 2.2037
 IR Inten    --      2.3959               161.0087                45.8798

                     58                     59                     60
                      A                      A                      A
 Frequencies --   1270.9646              1293.0362              1328.4885
 Red. masses --      3.2592                 2.4396                 4.8762
 Frc consts  --      3.1019                 2.4032                 5.0705
 IR Inten    --     21.2149                 2.2910                28.7274

                     61                     62                     63
                      A                      A                      A
 Frequencies --   1337.0507              1339.4804              1365.5046
 Red. masses --      2.2374                 2.1914                 1.5029
 Frc consts  --      2.3566                 2.3165                 1.6511
 IR Inten    --      4.6644                59.9299                11.0775

                     64                     65                     66
                      A                      A                      A
 Frequencies --   1381.7282              1421.9976              1427.4124
 Red. masses --      4.1114                 3.3293                 3.0755
 Frc consts  --      4.6247                 3.9664                 3.6920
 IR Inten    --    335.9851                40.6550               439.7030

                     67                     68                     69
                      A                      A                      A
 Frequencies --   1464.4049              1475.2198              1491.5660
 Red. masses --      1.3535                 1.4507                 1.5976
 Frc consts  --      1.7101                 1.8601                 2.0941
 IR Inten    --    122.8553                85.9836                 6.6824

                     70                     71                     72
                      A                      A                      A
 Frequencies --   1509.8523              1510.2483              1510.8406
 Red. masses --      1.0490                 1.0495                 1.4837
 Frc consts  --      1.4090                 1.4103                 1.9954
 IR Inten    --      0.6176                 6.5668                76.5114

                     73                     74                     75
                      A                      A                      A
 Frequencies --   1512.6419              1524.3325              1524.8515
 Red. masses --      1.0490                 1.0923                 1.0692
 Frc consts  --      1.4141                 1.4953                 1.4648
 IR Inten    --     11.5435                 6.4602                29.6777

                     76                     77                     78
                      A                      A                      A
 Frequencies --   1527.0048              1530.6121              1539.9805
 Red. masses --      1.0956                 1.9881                 2.0502
 Frc consts  --      1.5051                 2.7442                 2.8648
 IR Inten    --      9.6820                72.5612                77.0017

                     79                     80                     81
                      A                      A                      A
 Frequencies --   1606.0688              1608.6879              1633.5251
 Red. masses --      8.7200                 8.6796                 7.8418
 Frc consts  --     13.2525                13.2340                12.3288
 IR Inten    --    146.7227                71.6949               126.9618

                     82                     83                     84
                      A                      A                      A
 Frequencies --   1645.8657              3063.4493              3067.6446
 Red. masses --      6.5825                 1.0306                 1.0301
 Frc consts  --     10.5058                 5.6985                 5.7112
 IR Inten    --    416.2613                33.1059                49.5621

                     85                     86                     87
                      A                      A                      A
 Frequencies --   3071.9839              3103.0256              3132.3506
 Red. masses --      1.0294                 1.0862                 1.1071
 Frc consts  --      5.7234                 6.1623                 6.3999
 IR Inten    --     45.4544                12.3152                24.2779

                     88                     89                     90
                      A                      A                      A
 Frequencies --   3138.8604              3145.6026              3175.8175
 Red. masses --      1.1073                 1.1073                 1.1055
 Frc consts  --      6.4278                 6.4556                 6.5691
 IR Inten    --     25.7060                22.1804                31.0303

                     91                     92                     93
                      A                      A                      A
 Frequencies --   3176.5691              3177.7974              3185.3619
 Red. masses --      1.1071                 1.1061                 1.0909
 Frc consts  --      6.5818                 6.5811                 6.5217
 IR Inten    --     23.9411                13.3299                31.7237

                     94                     95                     96
                      A                      A                      A
 Frequencies --   3216.7304              3243.1116              3698.3470
 Red. masses --      1.0922                 1.0926                 1.0645
 Frc consts  --      6.6583                 6.7708                 8.5786
 IR Inten    --     12.6869                 0.9831                34.3233

 - Thermochemistry -
 -------------------
 Temperature   298.150 Kelvin.  Pressure   1.00000 Atm.
 Atom     1 has atomic number  6 and mass  12.00000

 Molecular mass:   278.10151 amu.
 Principal axes and moments of inertia in atomic units:
                           1         2         3
     Eigenvalues --  3208.487989099.49271**********
           X            0.99999  -0.00388  -0.00202
           Y            0.00390   0.99989   0.01456
           Z            0.00196  -0.01457   0.99989
 This molecule is an asymmetric top.
 Rotational symmetry number  1.
 Warning -- assumption of classical behavior for rotation
           may cause significant error
 Rotational temperatures (Kelvin)      0.02700     0.00952     0.00848
 Rotational constants (GHZ):           0.56249     0.19833     0.17664
 Zero-point vibrational energy     699053.5 (Joules/Mol)
                                  167.07780 (Kcal/Mol)
 Warning -- explicit consideration of  28 degrees of freedom as
           vibrations may cause significant error
 Vibrational temperatures:      8.77    41.12    60.76   109.40   137.79
          (Kelvin)            172.25   201.02   204.64   236.18   240.09
                              243.26   252.28   265.72   302.99   315.96
                              346.56   387.95   395.33   434.82   495.95
                              524.85   589.70   661.42   708.15   710.77
                              729.45   767.25   837.91   911.57   958.41
                              997.64  1010.01  1044.20  1063.85  1130.24
                             1143.98  1215.12  1226.78  1262.47  1280.79
                             1342.90  1418.32  1444.54  1452.75  1516.79
                             1540.89  1556.71  1602.87  1681.26  1696.89
                             1704.14  1704.78  1705.63  1741.59  1744.17
                             1770.78  1816.43  1828.63  1860.39  1911.40
                             1923.72  1927.21  1964.66  1988.00  2045.94
                             2053.73  2106.95  2122.51  2146.03  2172.34
                             2172.91  2173.76  2176.35  2193.17  2193.92
                             2197.02  2202.21  2215.69  2310.77  2314.54
                             2350.28  2368.03  4407.62  4413.66  4419.90
                             4464.56  4506.75  4516.12  4525.82  4569.29
                             4570.37  4572.14  4583.03  4628.16  4666.11
                             5321.10

 Zero-point correction=                           0.266255 (Hartree/Particle)
 Thermal correction to Energy=                    0.285214
 Thermal correction to Enthalpy=                  0.286158
 Thermal correction to Gibbs Free Energy=         0.216326
 Sum of electronic and zero-point Energies=           -985.381889
 Sum of electronic and thermal Energies=              -985.362930
 Sum of electronic and thermal Enthalpies=            -985.361986
 Sum of electronic and thermal Free Energies=         -985.431818

                     E (Thermal)             CV                S
                      KCal/Mol        Cal/Mol-Kelvin    Cal/Mol-Kelvin
 Total                  178.975             68.840            146.975
 Electronic               0.000              0.000              0.000
 Translational            0.889              2.981             42.767
 Rotational               0.889              2.981             34.055
 Vibrational            177.197             62.878             70.153
 Vibration     1          0.593              1.987              8.994
 Vibration     2          0.593              1.984              5.926
 Vibration     3          0.595              1.980              5.151
 Vibration     4          0.599              1.965              3.991
 Vibration     5          0.603              1.952              3.539
 Vibration     6          0.609              1.933              3.105
 Vibration     7          0.615              1.914              2.808
 Vibration     8          0.616              1.911              2.774
 Vibration     9          0.623              1.886              2.501
 Vibration    10          0.624              1.883              2.470
 Vibration    11          0.625              1.881              2.446
 Vibration    12          0.627              1.873              2.377
 Vibration    13          0.631              1.861              2.281
 Vibration    14          0.643              1.825              2.039
 Vibration    15          0.647              1.811              1.962
 Vibration    16          0.658              1.778              1.796
 Vibration    17          0.674              1.729              1.599
 Vibration    18          0.677              1.720              1.566
 Vibration    19          0.694              1.669              1.405
 Vibration    20          0.723              1.586              1.190
 Vibration    21          0.738              1.545              1.102
 Vibration    22          0.774              1.449              0.927
 Vibration    23          0.818              1.339              0.767
 Vibration    24          0.848              1.267              0.678
 Vibration    25          0.850              1.263              0.673
 Vibration    26          0.862              1.235              0.641
 Vibration    27          0.888              1.176              0.580
 Vibration    28          0.939              1.069              0.481

 Optimization completed on the basis of negligible forces.
    -- Stationary point found.
 Normal termination of Gaussian 16 at Sun Dec 13 17:00:30 2020.

 ----------------------------------------------------------------------
 # B3LYP/6-311++G(d,p) empiricaldispersion=gd3bj scf=xqc pop=npa geom=c
 heck
 ----------------------------------------------------------------------

 ----------------------------------------
 CID_102950281_JID_10331_Energie_neutraal
 ----------------------------------------
 Structure from the checkpoint file:  "JID_10331.chk"
 Charge =  0 Multiplicity = 1

 SCF Done:  E(RB3LYP) =  -985.925817866     A.U. after   16 cycles
 Normal termination of Gaussian 16 at Sun Dec 13 17:06:00 2020.

 ----------------------------------------------------------------------
 # B3LYP/6-311++G(d,p) empiricaldispersion=gd3bj scf=xqc pop=npa geom=c
 heck
 ----------------------------------------------------------------------

 --------------------------------------
 CID_102950281_JID_10331_Energie_kation
 --------------------------------------
 Structure from the checkpoint file:  "JID_10331.chk"
 Charge =  1 Multiplicity = 2

 SCF Done:  E(UB3LYP) =  -985.628096756     A.U. after   30 cycles
 Normal termination of Gaussian 16 at Sun Dec 13 17:20:01 2020.
 Gaussian 16:  ES64L-G16RevA.03 25-Dec-2016

 ----------------------------------------------------------------------
 # B3LYP/6-311++G(d,p) empiricaldispersion=gd3bj scf=xqc pop=npa geom=c
 heck
 ----------------------------------------------------------------------

 -------------------------------------
 CID_102950281_JID_10331_Energie_anion
 -------------------------------------
 Structure from the checkpoint file:  "JID_10331.chk"
 Charge = -1 Multiplicity = 2

                         Standard orientation:
 ---------------------------------------------------------------------
 Center     Atomic      Atomic             Coordinates (Angstroms)
 Number     Number       Type             X           Y           Z
 ---------------------------------------------------------------------
      1          6           0        5.024374    1.849596   -0.924008
      2          8           0        3.958989    1.593883    0.000319
      3          6           0        3.227925    0.486234   -0.204450
      4          7           0        3.504390   -0.307931   -1.236681
      5          6           0        2.721306   -1.390405   -1.362673
      6          7           0        1.712985   -1.750589   -0.579891
      7          6           0        1.454331   -0.932682    0.463562
      8          6           0        2.188436    0.215897    0.700397
      9          6           0        0.272457   -1.343941    1.337209
     10          6           0       -1.007847   -0.906557    0.638695
     11          7           0       -1.648923   -1.814464   -0.095431
     12          6           0       -2.751659   -1.454156   -0.749432
     13          6           0       -3.225671   -0.136728   -0.663498
     14          7           0       -2.598899    0.792603    0.058665
     15          6           0       -1.496204    0.410540    0.696608
     16          8           0       -0.804811    1.303624    1.435334
     17          6           0       -1.309285    2.641783    1.481473
     18          8           0       -4.347529    0.178619   -1.337349
     19          6           0       -4.809059    1.528012   -1.234878
     20          8           0        0.273217   -2.726237    1.585296
     21          1           0        5.484373    2.776216   -0.578625
     22          1           0        4.638528    1.966627   -1.940346
     23          1           0        5.750965    1.032699   -0.915773
     24          1           0        2.943808   -2.041521   -2.205901
     25          1           0        1.979009    0.880068    1.529549
     26          1           0        0.349980   -0.838359    2.303770
     27          1           0       -3.272957   -2.196571   -1.344864
     28          1           0       -2.315865    2.664019    1.908998
     29          1           0       -0.612474    3.189667    2.116504
     30          1           0       -1.339510    3.079986    0.479726
     31          1           0       -5.037354    1.785782   -0.196192
     32          1           0       -4.059089    2.228146   -1.615476
     33          1           0       -5.712370    1.570109   -1.844353
     34          1           0        0.042522   -3.138847    0.733507
 ---------------------------------------------------------------------

 SCF Done:  E(UB3LYP) =  -985.926966484     A.U. after   33 cycles
 SCF Done:  E(UB3LYP) =  -985.927223608     a.u. after    7 cycles

 The electronic state is 2-A.
 Alpha  occ. eigenvalues --  -19.05919 -19.04545 -19.04015 -18.98729 -14.18466
 Alpha  occ. eigenvalues --  -14.18160 -14.17775 -14.16384 -10.15349 -10.13820
 Alpha  occ. eigenvalues --  -10.13173 -10.12908 -10.11776 -10.11682 -10.11336
 Alpha  occ. eigenvalues --  -10.09889 -10.08109 -10.06446 -10.06129 -10.05137
 Alpha  occ. eigenvalues --   -0.98310  -0.97045  -0.96280  -0.90027  -0.85469
 Alpha  occ. eigenvalues --   -0.83313  -0.76698  -0.76036  -0.67978  -0.65998
 Alpha  occ. eigenvalues --   -0.62717  -0.61960  -0.59240  -0.55647  -0.53740
 Alpha  occ. eigenvalues --   -0.51148  -0.50589  -0.47986  -0.43340  -0.43010
 Alpha  occ. eigenvalues --   -0.42467  -0.41229  -0.39028  -0.37988  -0.37565
 Alpha  occ. eigenvalues --   -0.37168  -0.35995  -0.35433  -0.34430  -0.33944
 Alpha  occ. eigenvalues --   -0.33526  -0.31983  -0.31214  -0.30745  -0.30171
 Alpha  occ. eigenvalues --   -0.28670  -0.27881  -0.25812  -0.25641  -0.24970
 Alpha  occ. eigenvalues --   -0.24126  -0.23518  -0.22517  -0.21082  -0.18183
 Alpha  occ. eigenvalues --   -0.18169  -0.17497  -0.17170  -0.15176  -0.14144
 Alpha  occ. eigenvalues --   -0.14036  -0.12311  -0.09489   0.04684
 Alpha virt. eigenvalues --    0.06462   0.06936   0.07924   0.08547   0.09543
 Alpha virt. eigenvalues --    0.09749   0.09922   0.10290   0.10765   0.10944
 Alpha virt. eigenvalues --    0.11304   0.11367   0.12175   0.12749   0.12914

  Beta  occ. eigenvalues --  -19.05902 -19.04548 -19.03963 -18.98698 -14.18270
  Beta  occ. eigenvalues --  -14.18184 -14.17503 -14.15841 -10.15324 -10.13833
  Beta  occ. eigenvalues --  -10.13174 -10.12783 -10.11763 -10.11671 -10.11284
  Beta  occ. eigenvalues --  -10.09916 -10.07844 -10.06386 -10.06128 -10.05088
  Beta  occ. eigenvalues --   -0.98262  -0.96990  -0.96187  -0.89935  -0.85269
  Beta  occ. eigenvalues --   -0.82845  -0.76068  -0.75712  -0.67749  -0.65817
  Beta  occ. eigenvalues --   -0.62562  -0.61860  -0.59135  -0.55453  -0.53611
  Beta  occ. eigenvalues --   -0.51007  -0.50209  -0.47821  -0.43250  -0.42903
  Beta  occ. eigenvalues --   -0.42329  -0.41130  -0.38898  -0.37892  -0.37450
  Beta  occ. eigenvalues --   -0.36960  -0.35885  -0.35328  -0.34311  -0.33864
  Beta  occ. eigenvalues --   -0.33449  -0.31882  -0.31116  -0.30289  -0.29755
  Beta  occ. eigenvalues --   -0.28339  -0.27697  -0.25767  -0.25599  -0.24668
  Beta  occ. eigenvalues --   -0.23910  -0.23453  -0.22173  -0.19972  -0.17995
  Beta  occ. eigenvalues --   -0.17734  -0.16590  -0.16135  -0.14944  -0.13895
  Beta  occ. eigenvalues --   -0.13601  -0.11813  -0.08815
  Beta virt. eigenvalues --    0.06620   0.06938   0.07987   0.09277   0.09501
  Beta virt. eigenvalues --    0.09840   0.09880   0.10310   0.10711   0.10958
  Beta virt. eigenvalues --    0.11181   0.11258   0.11307   0.12111   0.12838

 Mulliken charges and spin densities:
               1          2
     1  C   -0.312221  -0.004806
     2  O   -0.146190   0.001390
     3  C   -0.569412  -0.016552
     4  N   -0.188019   0.083133
     5  C    0.032049   0.052128
     6  N   -0.013336  -0.010045
     7  C   -0.069363   0.136698
     8  C    0.285444   0.089547
     9  C   -0.385246   0.044952
    10  C   -0.461047   0.029013
    11  N    0.008338   0.237748
    12  C    0.072848  -0.049843
    13  C   -0.169030   0.182685
    14  N   -0.207851   0.153515
    15  C   -0.166914  -0.040148
    16  O   -0.135441   0.011162
    17  C   -0.016754  -0.286985
    18  O   -0.184283   0.021370
    19  C    0.043513  -0.347294
    20  O   -0.145002   0.004755
    21  H    0.126128   0.002796
    22  H    0.169967   0.002142
    23  H    0.169327   0.000121
    24  H    0.163430  -0.003328
    25  H    0.227193  -0.004631
    26  H    0.222595   0.003001
    27  H    0.158158   0.001911
    28  H    0.030668   0.129563
    29  H    0.070788   0.052003
    30  H    0.047139   0.129623
    31  H   -0.025655   0.187663
    32  H    0.067233   0.091495
    33  H    0.012671   0.119098
    34  H    0.288276  -0.003882
 Sum of Mulliken charges =  -1.00000   1.00000

 Dipole moment (field-independent basis, Debye):
    X=              2.8143    Y=              4.3185    Z=             -0.5608  Tot=              5.1850
 Quadrupole moment (field-independent basis, Debye-Ang):
   XX=           -162.1099   YY=           -142.4458   ZZ=           -131.8189
   XY=              5.8738   XZ=             -2.1432   YZ=              3.6555

 Summary of Natural Population Analysis:

                                       Natural Population
                Natural  -----------------------------------------------
    Atom  No    Charge         Core      Valence    Rydberg      Total
 -----------------------------------------------------------------------
      C    1   -0.10298      0.99960     2.09497    0.00841     3.10298
      O    2   -0.27238      0.99985     3.26371    0.00882     4.27238
      C    3    0.28307      0.99948     1.70192    0.01554     2.71693
      N    4   -0.27037      0.99966     2.76142    0.00929     3.77037
      C    5    0.15391      0.99969     1.82778    0.01862     2.84609
      N    6   -0.26717      0.99968     2.75480    0.01269     3.76717
      C    7    0.16507      0.99952     1.82178    0.01363     2.83493
      C    8   -0.15386      0.99945     2.14394    0.01048     3.15386
      C    9    0.04416      0.99949     1.94106    0.01530     2.95584
      C   10    0.05364      0.99949     1.93003    0.01685     2.94636
      N   11   -0.14519      0.99966     2.63316    0.01237     3.64519
      C   12   -0.02815      0.99957     2.01557    0.01301     3.02815
      C   13    0.26785      0.99948     1.71510    0.01756     2.73215
      N   14   -0.25916      0.99962     2.74988    0.00967     3.75916
      C   15    0.25704      0.99941     1.72757    0.01598     2.74296
      O   16   -0.27613      0.99985     3.26758    0.00870     4.27613
      C   17   -0.10338      0.99960     2.09403    0.00976     3.10338
      O   18   -0.27196      0.99985     3.26351    0.00859     4.27196
      C   19   -0.10155      0.99960     2.09349    0.00846     3.10155
      O   20   -0.36486      0.99990     3.35896    0.00601     4.36486
      H   21    0.08420      0.00000     0.41503    0.00077     0.41580
      H   22    0.08962      0.00000     0.40921    0.00117     0.41038
      H   23    0.08871      0.00000     0.41011    0.00118     0.41129
      H   24    0.07527      0.00000     0.42351    0.00122     0.42473
      H   25    0.10960      0.00000     0.38912    0.00128     0.39040
      H   26    0.09373      0.00000     0.40471    0.00157     0.40627
      H   27    0.08800      0.00000     0.41055    0.00144     0.41200
      H   28    0.08846      0.00000     0.41029    0.00125     0.41154
      H   29    0.08573      0.00000     0.41336    0.00090     0.41427
      H   30    0.08952      0.00000     0.40923    0.00125     0.41048
      H   31    0.08776      0.00000     0.41030    0.00193     0.41224
      H   32    0.08685      0.00000     0.41154    0.00161     0.41315
      H   33    0.08426      0.00000     0.41460    0.00115     0.41574
      H   34    0.24070      0.00000     0.25634    0.00296     0.25930
 =======================================================================
   * Total *   -0.00000     19.99244    52.74814    0.25942    73.00000

 Normal termination of Gaussian 16 at Sun Dec 13 19:15:44 2020.
