 Gaussian 16, Revision A.03,

 -----------------------------------------------------------
 # opt freq B3LYP/6-31G(d) empiricaldispersion=gd3bj scf=xqc
 -----------------------------------------------------------

 ------------------------------
 CID_21323357_JID_8956_neutraal
 ------------------------------
 Symbolic Z-matrix:
 Charge =  0 Multiplicity = 1

 SCF Done:  E(RB3LYP) =  -1103.78285546     A.U. after   15 cycles
 SCF Done:  E(RB3LYP) =  -1103.78948923     A.U. after   13 cycles
 SCF Done:  E(RB3LYP) =  -1103.79049294     A.U. after   12 cycles
 SCF Done:  E(RB3LYP) =  -1103.79063711     A.U. after   11 cycles
 SCF Done:  E(RB3LYP) =  -1103.79072015     A.U. after   11 cycles
 SCF Done:  E(RB3LYP) =  -1103.79077871     A.U. after   11 cycles
 SCF Done:  E(RB3LYP) =  -1103.79086747     A.U. after   12 cycles
 SCF Done:  E(RB3LYP) =  -1103.79086035     A.U. after   11 cycles
 SCF Done:  E(RB3LYP) =  -1103.79120425     A.U. after   12 cycles
 SCF Done:  E(RB3LYP) =  -1103.79136820     A.U. after   15 cycles
 SCF Done:  E(RB3LYP) =  -1103.79346631     A.U. after   10 cycles
 SCF Done:  E(RB3LYP) =  -1103.79346946     A.U. after    9 cycles
 SCF Done:  E(RB3LYP) =  -1103.79347030     A.U. after    8 cycles
 SCF Done:  E(RB3LYP) =  -1103.79347037     A.U. after    7 cycles
 SCF Done:  E(RB3LYP) =  -1103.79347037     A.U. after    6 cycles
 Optimization completed.
    -- Stationary point found.
 Normal termination of Gaussian 16 at Fri Dec 11 23:23:04 2020.

 --------------------------------------------------------------------
 #N Geom=AllCheck Guess=TCheck SCRF=Check GenChk RB3LYP/6-31G(d) Freq
 --------------------------------------------------------------------

 Structure from the checkpoint file:  "JID_8956.chk"
 ------------------------------
 CID_21323357_JID_8956_neutraal
 ------------------------------
 Charge =  0 Multiplicity = 1

 SCF Done:  E(RB3LYP) =  -1103.79347037     A.U. after    1 cycles

  Exact polarizability: 291.340   1.514 189.469   6.351   5.587  95.413
 Approx polarizability: 401.456  -0.630 337.203  10.518  21.688 157.863

                      1                      2                      3
                      A                      A                      A
 Frequencies --     32.4015                36.6653                53.6499
 Red. masses --      1.5118                 1.7479                 4.4245
 Frc consts  --      0.0009                 0.0014                 0.0075
 IR Inten    --      0.4364                 0.3060                 2.8947

                      4                      5                      6
                      A                      A                      A
 Frequencies --     73.5936               100.4750               126.9183
 Red. masses --      5.6657                 3.7302                 4.4115
 Frc consts  --      0.0181                 0.0222                 0.0419
 IR Inten    --      1.9964                 0.9623                 1.9781

                      7                      8                      9
                      A                      A                      A
 Frequencies --    138.9718               168.2998               196.8056
 Red. masses --      1.1381                 4.1588                 4.2208
 Frc consts  --      0.0130                 0.0694                 0.0963
 IR Inten    --      0.4396                 3.3650                 1.8742

                     10                     11                     12
                      A                      A                      A
 Frequencies --    213.0915               234.3958               257.2140
 Red. masses --      3.7717                 3.9644                 4.0532
 Frc consts  --      0.1009                 0.1283                 0.1580
 IR Inten    --      1.7785                 0.4430                 2.2905

                     13                     14                     15
                      A                      A                      A
 Frequencies --    282.4834               320.7600               350.9698
 Red. masses --      4.6974                 6.1022                 4.2191
 Frc consts  --      0.2208                 0.3699                 0.3062
 IR Inten    --      0.4874                 4.2196                 0.6857

                     16                     17                     18
                      A                      A                      A
 Frequencies --    388.4429               414.6755               430.5222
 Red. masses --      3.3960                 5.3837                 3.9421
 Frc consts  --      0.3019                 0.5454                 0.4305
 IR Inten    --      0.1160                 1.0986                 1.7462

                     19                     20                     21
                      A                      A                      A
 Frequencies --    464.3793               516.6849               527.0838
 Red. masses --      5.5105                 5.6705                 5.3020
 Frc consts  --      0.7001                 0.8919                 0.8679
 IR Inten    --      0.9696                 0.7931                 1.3729

                     22                     23                     24
                      A                      A                      A
 Frequencies --    540.5320               602.5095               621.2642
 Red. masses --      4.5039                 4.4032                 4.2012
 Frc consts  --      0.7753                 0.9418                 0.9554
 IR Inten    --      3.6633                 0.6914                 3.3152

                     25                     26                     27
                      A                      A                      A
 Frequencies --    652.3512               676.8372               691.4677
 Red. masses --      5.5539                 6.5730                 3.4354
 Frc consts  --      1.3926                 1.7741                 0.9678
 IR Inten    --      8.5139                 3.1415                 2.0320

                     28                     29                     30
                      A                      A                      A
 Frequencies --    699.9403               710.5345               741.9873
 Red. masses --      2.7951                 6.2973                 5.8136
 Frc consts  --      0.8068                 1.8732                 1.8858
 IR Inten    --      3.7757                 2.9860                 6.4542

                     31                     32                     33
                      A                      A                      A
 Frequencies --    756.1098               778.7900               799.4574
 Red. masses --      2.5551                 1.8441                 1.9978
 Frc consts  --      0.8607                 0.6590                 0.7523
 IR Inten    --     15.0903                 0.7548                15.5992

                     34                     35                     36
                      A                      A                      A
 Frequencies --    833.2299               848.6593               868.1558
 Red. masses --      2.8168                 1.4120                 4.3484
 Frc consts  --      1.1522                 0.5992                 1.9310
 IR Inten    --      5.2889                22.9396                23.8732

                     37                     38                     39
                      A                      A                      A
 Frequencies --    906.6785               941.1965               958.0448
 Red. masses --      1.4523                 1.3871                 2.5044
 Frc consts  --      0.7034                 0.7239                 1.3543
 IR Inten    --      9.1827                35.3698                 0.4556

                     40                     41                     42
                      A                      A                      A
 Frequencies --    964.1802               972.3204              1004.7050
 Red. masses --      1.4498                 1.3169                 1.1820
 Frc consts  --      0.7941                 0.7335                 0.7030
 IR Inten    --      1.3429                 0.1925                 4.1489

                     43                     44                     45
                      A                      A                      A
 Frequencies --   1018.1406              1019.1556              1035.5355
 Red. masses --      2.4560                 2.0115                 1.4822
 Frc consts  --      1.5000                 1.2310                 0.9364
 IR Inten    --     18.2119                10.6647                 3.6256

                     46                     47                     48
                      A                      A                      A
 Frequencies --   1064.8877              1075.9721              1111.6999
 Red. masses --      7.2616                 1.5190                 2.9115
 Frc consts  --      4.8517                 1.0361                 2.1200
 IR Inten    --      1.2156                 5.1490                 6.5910

                     49                     50                     51
                      A                      A                      A
 Frequencies --   1160.3605              1199.6851              1227.4602
 Red. masses --      2.0836                 1.5739                 1.8152
 Frc consts  --      1.6529                 1.3346                 1.6113
 IR Inten    --      0.1882                 3.4905                 3.8119

                     52                     53                     54
                      A                      A                      A
 Frequencies --   1254.3534              1273.8962              1302.2613
 Red. masses --      2.6138                 2.6238                 1.9309
 Frc consts  --      2.4230                 2.5087                 1.9293
 IR Inten    --      1.8113                 1.6155                 3.9463

                     55                     56                     57
                      A                      A                      A
 Frequencies --   1344.2540              1349.7349              1367.3703
 Red. masses --      7.5122                 2.9109                 3.1607
 Frc consts  --      7.9979                 3.1244                 3.4819
 IR Inten    --     51.4386                 2.4209                44.7281

                     58                     59                     60
                      A                      A                      A
 Frequencies --   1387.5743              1417.9910              1431.7925
 Red. masses --      1.2140                 2.9857                 2.3093
 Frc consts  --      1.3772                 3.5371                 2.7892
 IR Inten    --     12.0176               128.3296                19.1548

                     61                     62                     63
                      A                      A                      A
 Frequencies --   1443.6061              1455.7925              1479.0578
 Red. masses --      1.2510                 1.4218                 4.2187
 Frc consts  --      1.5360                 1.7753                 5.4375
 IR Inten    --      0.4464                 3.9746                90.7035

                     64                     65                     66
                      A                      A                      A
 Frequencies --   1485.3051              1486.2765              1506.4577
 Red. masses --      1.5479                 1.3141                 1.1255
 Frc consts  --      2.0119                 1.7103                 1.5050
 IR Inten    --     39.5414                24.4265                32.4429

                     67                     68                     69
                      A                      A                      A
 Frequencies --   1514.7559              1524.7002              1546.5610
 Red. masses --      1.0453                 1.1553                 2.8402
 Frc consts  --      1.4131                 1.5824                 4.0025
 IR Inten    --      5.7145                 8.1154                10.1503

                     70                     71                     72
                      A                      A                      A
 Frequencies --   1562.7160              1610.7666              1668.5294
 Red. masses --      8.1950                 5.5274                 5.6088
 Frc consts  --     11.7912                 8.4496                 9.2000
 IR Inten    --     13.4559                 0.3860                10.3147

                     73                     74                     75
                      A                      A                      A
 Frequencies --   1689.3926              1732.2100              3046.5180
 Red. masses --      5.2212                 6.8552                 1.0376
 Frc consts  --      8.7797                12.1191                 5.6739
 IR Inten    --     10.9162                30.7780                35.8088

                     76                     77                     78
                      A                      A                      A
 Frequencies --   3088.4741              3099.9977              3129.4912
 Red. masses --      1.0288                 1.1004                 1.1013
 Frc consts  --      5.7816                 6.2307                 6.3551
 IR Inten    --     17.6386                18.0760                14.7729

                     79                     80                     81
                      A                      A                      A
 Frequencies --   3175.3741              3182.9236              3184.2683
 Red. masses --      1.0895                 1.1067                 1.0847
 Frc consts  --      6.4726                 6.6058                 6.4800
 IR Inten    --     11.3926                 3.8530                14.6079

                     82                     83                     84
                      A                      A                      A
 Frequencies --   3186.0046              3186.5876              3191.9384
 Red. masses --      1.0629                 1.0869                 1.1081
 Frc consts  --      6.3570                 6.5030                 6.6520
 IR Inten    --      1.4024                12.6130                 1.4768

                     85                     86                     87
                      A                      A                      A
 Frequencies --   3213.4360              3222.0635              3276.7867
 Red. masses --      1.0926                 1.0935                 1.1175
 Frc consts  --      6.6476                 6.6889                 7.0695
 IR Inten    --      8.4065                 4.8108                 3.2176

 - Thermochemistry -
 -------------------
 Temperature   298.150 Kelvin.  Pressure   1.00000 Atm.
 Atom     1 has atomic number  6 and mass  12.00000

 Molecular mass:   255.08302 amu.
 Principal axes and moments of inertia in atomic units:
                           1         2         3
     Eigenvalues --  1982.674768508.527179946.53170
           X            0.99998  -0.00640   0.00256
           Y            0.00641   0.99997  -0.00470
           Z           -0.00253   0.00471   0.99999
 This molecule is an asymmetric top.
 Rotational symmetry number  1.
 Warning -- assumption of classical behavior for rotation
           may cause significant error
 Rotational temperatures (Kelvin)      0.04369     0.01018     0.00871
 Rotational constants (GHZ):           0.91026     0.21211     0.18144
 Zero-point vibrational energy     638982.6 (Joules/Mol)
                                  152.72051 (Kcal/Mol)
 Warning -- explicit consideration of  23 degrees of freedom as
           vibrations may cause significant error
 Vibrational temperatures:     46.62    52.75    77.19   105.88   144.56
          (Kelvin)            182.61   199.95   242.15   283.16   306.59
                              337.24   370.07   406.43   461.50   504.97
                              558.88   596.63   619.43   668.14   743.39
                              758.36   777.70   866.88   893.86   938.59
                              973.82   994.87  1007.06  1022.30  1067.55
                             1087.87  1120.51  1150.24  1198.83  1221.03
                             1249.08  1304.51  1354.17  1378.41  1387.24
                             1398.95  1445.55  1464.88  1466.34  1489.90
                             1532.14  1548.08  1599.49  1669.50  1726.08
                             1766.04  1804.73  1832.85  1873.66  1934.08
                             1941.97  1967.34  1996.41  2040.17  2060.03
                             2077.03  2094.56  2128.03  2137.02  2138.42
                             2167.46  2179.40  2193.70  2225.16  2248.40
                             2317.53  2400.64  2430.66  2492.26  4383.26
                             4443.63  4460.21  4502.64  4568.66  4579.52
                             4581.45  4583.95  4584.79  4592.49  4623.42
                             4635.83  4714.57

 Zero-point correction=                           0.243376 (Hartree/Particle)
 Thermal correction to Energy=                    0.259387
 Thermal correction to Enthalpy=                  0.260331
 Thermal correction to Gibbs Free Energy=         0.198531
 Sum of electronic and zero-point Energies=          -1103.550095
 Sum of electronic and thermal Energies=             -1103.534084
 Sum of electronic and thermal Enthalpies=           -1103.533140
 Sum of electronic and thermal Free Energies=        -1103.594939

                     E (Thermal)             CV                S
                      KCal/Mol        Cal/Mol-Kelvin    Cal/Mol-Kelvin
 Total                  162.768             60.910            130.068
 Electronic               0.000              0.000              0.000
 Translational            0.889              2.981             42.509
 Rotational               0.889              2.981             33.484
 Vibrational            160.990             54.948             54.075
 Vibration     1          0.594              1.983              5.677
 Vibration     2          0.594              1.982              5.432
 Vibration     3          0.596              1.976              4.678
 Vibration     4          0.599              1.966              4.055
 Vibration     5          0.604              1.949              3.445
 Vibration     6          0.611              1.926              2.992
 Vibration     7          0.615              1.914              2.818
 Vibration     8          0.625              1.881              2.454
 Vibration     9          0.636              1.844              2.163
 Vibration    10          0.644              1.821              2.017
 Vibration    11          0.654              1.788              1.845
 Vibration    12          0.667              1.751              1.681
 Vibration    13          0.682              1.706              1.519
 Vibration    14          0.706              1.634              1.306
 Vibration    15          0.728              1.573              1.162
 Vibration    16          0.757              1.495              1.006
 Vibration    17          0.778              1.438              0.910
 Vibration    18          0.792              1.404              0.857
 Vibration    19          0.822              1.329              0.753
 Vibration    20          0.872              1.213              0.618
 Vibration    21          0.882              1.190              0.594
 Vibration    22          0.896              1.160              0.564
 Vibration    23          0.961              1.026              0.445

 Optimization completed.
    -- Stationary point found.
 Normal termination of Gaussian 16 at Fri Dec 11 23:34:39 2020.

 ----------------------------------------------------------------------
 # B3LYP/6-311++G(d,p) empiricaldispersion=gd3bj scf=xqc pop=npa geom=c
 heck
 ----------------------------------------------------------------------

 --------------------------------------
 CID_21323357_JID_8956_Energie_neutraal
 --------------------------------------
 Structure from the checkpoint file:  "JID_8956.chk"
 Charge =  0 Multiplicity = 1

 SCF Done:  E(RB3LYP) =  -1103.99570185     A.U. after   16 cycles
 Normal termination of Gaussian 16 at Fri Dec 11 23:39:36 2020.

 ----------------------------------------------------------------------
 # B3LYP/6-311++G(d,p) empiricaldispersion=gd3bj scf=xqc pop=npa geom=c
 heck
 ----------------------------------------------------------------------

 ------------------------------------
 CID_21323357_JID_8956_Energie_kation
 ------------------------------------
 Structure from the checkpoint file:  "JID_8956.chk"
 Charge =  1 Multiplicity = 2

 SCF Done:  E(UB3LYP) =  -1103.71298703     A.U. after   29 cycles
 Normal termination of Gaussian 16 at Fri Dec 11 23:51:27 2020.
 Gaussian 16:  ES64L-G16RevA.03 25-Dec-2016

 ----------------------------------------------------------------------
 # B3LYP/6-311++G(d,p) empiricaldispersion=gd3bj scf=xqc pop=npa geom=c
 heck
 ----------------------------------------------------------------------

 -----------------------------------
 CID_21323357_JID_8956_Energie_anion
 -----------------------------------
 Structure from the checkpoint file:  "JID_8956.chk"
 Charge = -1 Multiplicity = 2

                         Standard orientation:
 ---------------------------------------------------------------------
 Center     Atomic      Atomic             Coordinates (Angstroms)
 Number     Number       Type             X           Y           Z
 ---------------------------------------------------------------------
      1          6           0        5.321193   -1.553502    0.589068
      2          6           0        4.062644   -0.759627    0.342638
      3          6           0        2.928138   -1.350944   -0.204940
      4          6           0        1.729222   -0.646129   -0.424909
      5          6           0        1.686946    0.735217   -0.121693
      6          6           0        2.829157    1.323932    0.444335
      7          6           0        3.991379    0.600045    0.674421
      8          6           0        0.525394    1.613094   -0.422851
      9          6           0        0.680508    2.847822   -0.929528
     10          6           0       -0.829847    1.176420   -0.065824
     11          7           0       -1.773926    1.941221    0.432254
     12          7           0       -2.917591    1.172494    0.584857
     13          6           0       -2.633003   -0.036479    0.163505
     14          7           0       -1.318498   -0.109604   -0.259672
     15          6           0       -0.704883   -1.204661   -0.880512
     16          6           0        0.615834   -1.418855   -0.973960
     17         16           0       -3.712117   -1.424268    0.135642
     18          6           0       -5.264047   -0.546883    0.540875
     19          1           0        6.193463   -1.066730    0.137372
     20          1           0        5.245029   -2.562849    0.173768
     21          1           0        5.525471   -1.648989    1.662749
     22          1           0        2.958243   -2.406421   -0.465688
     23          1           0        2.788583    2.373904    0.715097
     24          1           0        4.853409    1.094077    1.115778
     25          1           0        1.662560    3.234480   -1.180902
     26          1           0       -0.177035    3.490482   -1.092693
     27          1           0       -1.411617   -1.912359   -1.299523
     28          1           0        0.895881   -2.340086   -1.477735
     29          1           0       -5.169219   -0.052780    1.507982
     30          1           0       -5.491030    0.193003   -0.227722
     31          1           0       -6.041569   -1.312907    0.575417
 ---------------------------------------------------------------------

 SCF Done:  E(UB3LYP) =  -1104.00576236     A.U. after   33 cycles
 SCF Done:  E(UB3LYP) =  -1104.00576236     a.u. after    1 cycles

 The electronic state is 2-A.
 Alpha  occ. eigenvalues --  -88.76079 -14.25990 -14.19694 -14.19430 -10.13054
 Alpha  occ. eigenvalues --  -10.10593 -10.10587 -10.07085 -10.05954 -10.05750
 Alpha  occ. eigenvalues --  -10.04696 -10.04450 -10.03975 -10.03917 -10.03804
 Alpha  occ. eigenvalues --  -10.03331 -10.02852 -10.02514  -7.84669  -5.81074
 Alpha  occ. eigenvalues --   -5.80684  -5.80044  -0.93712  -0.80464  -0.73978
 Alpha  occ. eigenvalues --   -0.72468  -0.68972  -0.66159  -0.65063  -0.62152
 Alpha  occ. eigenvalues --   -0.60283  -0.57006  -0.56109  -0.52732  -0.50950
 Alpha  occ. eigenvalues --   -0.46885  -0.46124  -0.44212  -0.42285  -0.37774
 Alpha  occ. eigenvalues --   -0.36047  -0.35376  -0.34837  -0.34712  -0.33383
 Alpha  occ. eigenvalues --   -0.33051  -0.31108  -0.30945  -0.30756  -0.30128
 Alpha  occ. eigenvalues --   -0.28932  -0.27073  -0.26421  -0.25617  -0.24279
 Alpha  occ. eigenvalues --   -0.23500  -0.21800  -0.21350  -0.20735  -0.19755
 Alpha  occ. eigenvalues --   -0.18976  -0.16417  -0.15039  -0.13996  -0.11528
 Alpha  occ. eigenvalues --   -0.10239  -0.08776   0.04245
 Alpha virt. eigenvalues --    0.06710   0.07766   0.08129   0.09310   0.09550
 Alpha virt. eigenvalues --    0.10179   0.10853   0.10989   0.11178   0.11718
 Alpha virt. eigenvalues --    0.12045   0.12504   0.12834   0.13156   0.13664

  Beta  occ. eigenvalues --  -88.76079 -14.26059 -14.19650 -14.19437 -10.12945
  Beta  occ. eigenvalues --  -10.10588 -10.10472 -10.07103 -10.05957 -10.05346
  Beta  occ. eigenvalues --  -10.04680 -10.04426 -10.04019 -10.03731 -10.03637
  Beta  occ. eigenvalues --  -10.03259 -10.02701 -10.02228  -7.84668  -5.81072
  Beta  occ. eigenvalues --   -5.80686  -5.80042  -0.93610  -0.80304  -0.73764
  Beta  occ. eigenvalues --   -0.72253  -0.68861  -0.65807  -0.64768  -0.62042
  Beta  occ. eigenvalues --   -0.59838  -0.56914  -0.55917  -0.52423  -0.50624
  Beta  occ. eigenvalues --   -0.46686  -0.45975  -0.44029  -0.42098  -0.37615
  Beta  occ. eigenvalues --   -0.35831  -0.35198  -0.34661  -0.34559  -0.33276
  Beta  occ. eigenvalues --   -0.32928  -0.30987  -0.30851  -0.30643  -0.29940
  Beta  occ. eigenvalues --   -0.28825  -0.26951  -0.26167  -0.25497  -0.24173
  Beta  occ. eigenvalues --   -0.22828  -0.21531  -0.20951  -0.20289  -0.19522
  Beta  occ. eigenvalues --   -0.18841  -0.16087  -0.14024  -0.13754  -0.10839
  Beta  occ. eigenvalues --   -0.09919  -0.07300
  Beta virt. eigenvalues --    0.06655   0.07690   0.08287   0.09249   0.09488
  Beta virt. eigenvalues --    0.09531   0.10138   0.10892   0.11020   0.11166
  Beta virt. eigenvalues --    0.11733   0.12314   0.12532   0.12925   0.13129

 Mulliken charges and spin densities:
               1          2
     1  C   -0.579070  -0.022051
     2  C    0.300147   0.015643
     3  C   -0.805837   0.055333
     4  C   -0.111437   0.116491
     5  C    1.129571   0.138395
     6  C   -0.240057  -0.063291
     7  C   -0.503152   0.263637
     8  C    1.807500   0.013228
     9  C   -0.567798   0.010641
    10  C   -2.041927   0.037360
    11  N   -0.104096  -0.002105
    12  N   -0.028121   0.024087
    13  C    0.050871   0.029161
    14  N    0.329626  -0.027301
    15  C   -0.376274   0.261625
    16  C    0.106254   0.094225
    17  S   -0.478221   0.046883
    18  C   -0.553755  -0.058433
    19  H    0.122742   0.003945
    20  H    0.124108   0.003300
    21  H    0.107649   0.027216
    22  H    0.058296   0.001393
    23  H    0.138767   0.008379
    24  H    0.112603  -0.018011
    25  H    0.125213  -0.000803
    26  H    0.182195   0.003842
    27  H    0.071922  -0.016013
    28  H    0.134316   0.001928
    29  H    0.195436   0.005149
    30  H    0.172114   0.024302
    31  H    0.120413   0.021842
 Sum of Mulliken charges =  -1.00000   1.00000

 Dipole moment (field-independent basis, Debye):
    X=             -1.4285    Y=             -2.4252    Z=             -0.7403  Tot=              2.9104
 Quadrupole moment (field-independent basis, Debye-Ang):
   XX=           -153.1947   YY=           -133.2464   ZZ=           -127.0446
   XY=              7.6870   XZ=              0.8690   YZ=             -2.7687

 Summary of Natural Population Analysis:

                                       Natural Population
                Natural  -----------------------------------------------
    Atom  No    Charge         Core      Valence    Rydberg      Total
 -----------------------------------------------------------------------
      C    1   -0.28806      0.99964     2.28391    0.00450     3.28806
      C    2   -0.02443      0.99951     2.01701    0.00791     3.02443
      C    3   -0.07621      0.99949     2.06886    0.00785     3.07621
      C    4   -0.00057      0.99948     1.99291    0.00819     3.00057
      C    5    0.01049      0.99945     1.98058    0.00948     2.98951
      C    6   -0.10892      0.99954     2.10110    0.00827     3.10892
      C    7   -0.05573      0.99952     2.04701    0.00920     3.05573
      C    8   -0.03214      0.99948     2.02305    0.00961     3.03214
      C    9   -0.17286      0.99956     2.16752    0.00578     3.17286
      C   10    0.19835      0.99955     1.78116    0.02094     2.80165
      N   11   -0.16498      0.99969     2.65257    0.01273     3.66498
      N   12   -0.18284      0.99965     2.66905    0.01414     3.68284
      C   13    0.11945      0.99956     1.86217    0.01882     2.88055
      N   14   -0.21659      0.99957     2.70699    0.01004     3.71659
      C   15    0.05921      0.99952     1.93082    0.01045     2.94079
      C   16   -0.08406      0.99955     2.07574    0.00877     3.08406
      S   17    0.11845      4.99955     2.86022    0.02178     7.88155
      C   18   -0.34476      0.99962     2.33848    0.00666     3.34476
      H   19    0.09647      0.00000     0.40252    0.00101     0.40353
      H   20    0.09600      0.00000     0.40314    0.00086     0.40400
      H   21    0.09770      0.00000     0.40127    0.00104     0.40230
      H   22    0.08791      0.00000     0.41067    0.00142     0.41209
      H   23    0.09535      0.00000     0.40312    0.00152     0.40465
      H   24    0.08669      0.00000     0.41197    0.00134     0.41331
      H   25    0.09046      0.00000     0.40853    0.00102     0.40954
      H   26    0.09720      0.00000     0.40162    0.00118     0.40280
      H   27    0.08982      0.00000     0.40842    0.00177     0.41018
      H   28    0.09271      0.00000     0.40580    0.00149     0.40729
      H   29    0.11070      0.00000     0.38715    0.00215     0.38930
      H   30    0.10630      0.00000     0.39122    0.00248     0.39370
      H   31    0.09889      0.00000     0.39968    0.00143     0.40111
 =======================================================================
   * Total *   -0.00000     21.99193    44.79425    0.21383    67.00000

 Normal termination of Gaussian 16 at Sat Dec 12 00:05:02 2020.
