 Gaussian 16, Revision A.03,

 -----------------------------------------------------------
 # opt freq B3LYP/6-31G(d) empiricaldispersion=gd3bj scf=xqc
 -----------------------------------------------------------

 ------------------------------
 CID_13026406_JID_1295_neutraal
 ------------------------------
 Symbolic Z-matrix:
 Charge =  0 Multiplicity = 1

 SCF Done:  E(RB3LYP) =  -501.870085401     A.U. after   14 cycles
 SCF Done:  E(RB3LYP) =  -501.875317467     A.U. after   12 cycles
 SCF Done:  E(RB3LYP) =  -501.875789131     A.U. after   11 cycles
 SCF Done:  E(RB3LYP) =  -501.875809314     A.U. after   11 cycles
 SCF Done:  E(RB3LYP) =  -501.875857880     A.U. after   10 cycles
 SCF Done:  E(RB3LYP) =  -501.875874451     A.U. after   10 cycles
 SCF Done:  E(RB3LYP) =  -501.875882785     A.U. after   11 cycles
 SCF Done:  E(RB3LYP) =  -501.875890661     A.U. after   11 cycles
 SCF Done:  E(RB3LYP) =  -501.875895622     A.U. after   10 cycles
 SCF Done:  E(RB3LYP) =  -501.875896531     A.U. after    9 cycles
 Optimization completed.
    -- Stationary point found.

 1\1\GINC-NODE122\FOpt\RB3LYP\6-31G(d)\C9H14O2\VSC10255\08-Dec-2020\0\\
 # opt freq B3LYP/6-31G(d) empiricaldispersion=gd3bj scf=xqc\\CID_13026
 406_JID_1295_neutraal\\0,1\C,0.9773792696,-0.0593410735,-0.0051004703\
 C,0.2609540932,1.1507925574,0.6122415163\C,-0.2420450702,2.110279997,-
 0.5243064431\C,-1.6234370176,2.7855026039,-0.3219213478\C,-1.353336858
 ,4.0377940565,0.519278836\C,0.0433695629,4.4750481845,0.0965808645\O,0
 .5216712043,5.5808543082,0.2219278572\C,0.7860837485,3.270327663,-0.50
 00367173\C,1.883394133,2.7901082033,0.4644313108\O,1.2083692669,1.9333

 Normal termination of Gaussian 16 at Tue Dec  8 19:37:58 2020.

 --------------------------------------------------------------------
 #N Geom=AllCheck Guess=TCheck SCRF=Check GenChk RB3LYP/6-31G(d) Freq
 --------------------------------------------------------------------

 Structure from the checkpoint file:  "JID_1295.chk"
 ------------------------------
 CID_13026406_JID_1295_neutraal
 ------------------------------
 Charge =  0 Multiplicity = 1

 SCF Done:  E(RB3LYP) =  -501.875896531     A.U. after    1 cycles

  Exact polarizability: 102.914   2.307  93.120   2.127  -1.170  78.599
 Approx polarizability: 138.871   8.785 131.689   3.952   0.757 122.073

                      1                      2                      3
                      A                      A                      A
 Frequencies --     37.1187               134.1213               149.9414
 Red. masses --      4.6007                 3.9171                 2.8520
 Frc consts  --      0.0037                 0.0415                 0.0378
 IR Inten    --      3.7317                 1.5325                 2.2689

                      4                      5                      6
                      A                      A                      A
 Frequencies --    243.7966               268.6201               286.6352
 Red. masses --      1.0487                 1.5657                 1.6060
 Frc consts  --      0.0367                 0.0666                 0.0777
 IR Inten    --      0.0514                 0.4677                 0.1753

                      7                      8                      9
                      A                      A                      A
 Frequencies --    306.2591               341.5762               349.0449
 Red. masses --      2.1084                 2.4699                 2.6498
 Frc consts  --      0.1165                 0.1698                 0.1902
 IR Inten    --      1.6847                 0.3869                 7.9616

                     10                     11                     12
                      A                      A                      A
 Frequencies --    384.6086               440.8514               495.1116
 Red. masses --      2.5332                 3.7059                 2.7075
 Frc consts  --      0.2208                 0.4244                 0.3910
 IR Inten    --      3.3836                 1.5364                 4.4201

                     13                     14                     15
                      A                      A                      A
 Frequencies --    507.1136               553.0108               646.8539
 Red. masses --      3.1320                 2.7637                 3.3784
 Frc consts  --      0.4745                 0.4980                 0.8329
 IR Inten    --      2.9252                 1.6675                 8.7261

                     16                     17                     18
                      A                      A                      A
 Frequencies --    679.5506               714.3104               733.7548
 Red. masses --      4.5497                 3.3537                 3.6248
 Frc consts  --      1.2379                 1.0082                 1.1498
 IR Inten    --      0.4660                 1.5516                 1.7274

                     19                     20                     21
                      A                      A                      A
 Frequencies --    809.0630               840.9599               863.0509
 Red. masses --      3.4898                 2.5020                 2.1280
 Frc consts  --      1.3459                 1.0425                 0.9339
 IR Inten    --      5.3024                15.3687                 5.0421

                     22                     23                     24
                      A                      A                      A
 Frequencies --    933.4590               945.9351               952.4992
 Red. masses --      2.0818                 1.7855                 2.0444
 Frc consts  --      1.0687                 0.9413                 1.0928
 IR Inten    --      1.5458                 0.6802                 2.9699

                     25                     26                     27
                      A                      A                      A
 Frequencies --    972.7247               978.2742              1009.1934
 Red. masses --      2.0177                 1.8906                 1.5331
 Frc consts  --      1.1248                 1.0660                 0.9200
 IR Inten    --      3.8255                 1.6461                 5.6527

                     28                     29                     30
                      A                      A                      A
 Frequencies --   1024.8833              1059.3542              1083.2507
 Red. masses --      1.4166                 1.9222                 3.0347
 Frc consts  --      0.8767                 1.2710                 2.0981
 IR Inten    --      0.5995                16.4914                45.2920

                     31                     32                     33
                      A                      A                      A
 Frequencies --   1100.2190              1151.2780              1177.2105
 Red. masses --      2.2892                 1.4071                 2.6686
 Frc consts  --      1.6326                 1.0989                 2.1789
 IR Inten    --     41.9755                 5.9943                33.5131

                     34                     35                     36
                      A                      A                      A
 Frequencies --   1187.3113              1210.0241              1227.7154
 Red. masses --      2.0838                 1.7100                 2.0645
 Frc consts  --      1.7308                 1.4752                 1.8335
 IR Inten    --     56.6403                19.9465                 5.0352

                     37                     38                     39
                      A                      A                      A
 Frequencies --   1234.5981              1259.9479              1284.8817
 Red. masses --      1.4040                 1.7956                 1.6430
 Frc consts  --      1.2609                 1.6794                 1.5982
 IR Inten    --      7.8627                21.6838                 4.2612

                     40                     41                     42
                      A                      A                      A
 Frequencies --   1293.4007              1316.0476              1326.4737
 Red. masses --      2.0218                 1.4264                 1.4695
 Frc consts  --      1.9927                 1.4556                 1.5234
 IR Inten    --     15.1966                 5.8987                 8.1099

                     43                     44                     45
                      A                      A                      A
 Frequencies --   1351.9127              1385.7508              1395.8207
 Red. masses --      1.5276                 1.3743                 1.3770
 Frc consts  --      1.6450                 1.5549                 1.5807
 IR Inten    --      4.5259                 1.6004                 6.3235

                     46                     47                     48
                      A                      A                      A
 Frequencies --   1426.9182              1444.8416              1479.4319
 Red. masses --      1.3000                 1.2529                 1.0865
 Frc consts  --      1.5595                 1.5410                 1.4010
 IR Inten    --      9.7061                 9.5209                10.6175

                     49                     50                     51
                      A                      A                      A
 Frequencies --   1507.5143              1516.3954              1526.6538
 Red. masses --      1.0528                 1.0525                 1.0627
 Frc consts  --      1.4097                 1.4259                 1.4592
 IR Inten    --      2.7223                 2.5797                 3.6528

                     52                     53                     54
                      A                      A                      A
 Frequencies --   1532.8858              1544.0425              1554.6586
 Red. masses --      1.0709                 1.0654                 1.0826
 Frc consts  --      1.4826                 1.4966                 1.5416
 IR Inten    --      5.7729                 1.4971                 1.1533

                     55                     56                     57
                      A                      A                      A
 Frequencies --   1844.5579              3011.9388              3044.5010
 Red. masses --     12.3384                 1.0710                 1.0696
 Frc consts  --     24.7340                 5.7247                 5.8411
 IR Inten    --    209.1850                62.7659                 2.9061

                     58                     59                     60
                      A                      A                      A
 Frequencies --   3053.2653              3060.4288              3064.4713
 Red. masses --      1.0357                 1.0689                 1.0363
 Frc consts  --      5.6886                 5.8986                 5.7340
 IR Inten    --     20.1127                28.8021                11.0092

                     61                     62                     63
                      A                      A                      A
 Frequencies --   3090.1214              3103.4272              3118.9168
 Red. masses --      1.0857                 1.0862                 1.1013
 Frc consts  --      6.1080                 6.1636                 6.3118
 IR Inten    --     21.9212                20.5783                29.8482

                     64                     65                     66
                      A                      A                      A
 Frequencies --   3124.4075              3124.9264              3129.6186
 Red. masses --      1.0953                 1.0946                 1.0986
 Frc consts  --      6.2995                 6.2978                 6.3396
 IR Inten    --     13.8365                14.2672                13.2978

                     67                     68                     69
                      A                      A                      A
 Frequencies --   3130.7928              3136.0086              3143.4880
 Red. masses --      1.0996                 1.1023                 1.1020
 Frc consts  --      6.3503                 6.3870                 6.4161
 IR Inten    --     21.9907                40.5376                25.2794

 - Thermochemistry -
 -------------------
 Temperature   298.150 Kelvin.  Pressure   1.00000 Atm.
 Atom     1 has atomic number  6 and mass  12.00000

 Molecular mass:   154.09938 amu.
 Principal axes and moments of inertia in atomic units:
                           1         2         3
     Eigenvalues --   936.501721850.415992230.57805
           X            0.99992  -0.01243   0.00386
           Y            0.01259   0.99894  -0.04437
           Z           -0.00331   0.04441   0.99901
 This molecule is an asymmetric top.
 Rotational symmetry number  1.
 Warning -- assumption of classical behavior for rotation
           may cause significant error
 Rotational temperatures (Kelvin)      0.09249     0.04681     0.03883
 Rotational constants (GHZ):           1.92711     0.97532     0.80909
 Zero-point vibrational energy     576371.2 (Joules/Mol)
                                  137.75601 (Kcal/Mol)
 Warning -- explicit consideration of  14 degrees of freedom as
           vibrations may cause significant error
 Vibrational temperatures:     53.41   192.97   215.73   350.77   386.48
          (Kelvin)            412.40   440.64   491.45   502.20   553.37
                              634.29   712.36   729.62   795.66   930.68
                              977.72  1027.73  1055.71  1164.06  1209.95
                             1241.74  1343.04  1360.99  1370.43  1399.53
                             1407.52  1452.00  1474.58  1524.17  1558.56
                             1582.97  1656.43  1693.74  1708.28  1740.95
                             1766.41  1776.31  1812.78  1848.66  1860.92
                             1893.50  1908.50  1945.10  1993.79  2008.27
                             2053.02  2078.80  2128.57  2168.98  2181.75
                             2196.51  2205.48  2221.53  2236.81  2653.91
                             4333.51  4380.36  4392.97  4403.27  4409.09
                             4446.00  4465.14  4487.43  4495.33  4496.07
                             4502.82  4504.51  4512.02  4522.78

 Zero-point correction=                           0.219528 (Hartree/Particle)
 Thermal correction to Energy=                    0.229573
 Thermal correction to Enthalpy=                  0.230517
 Thermal correction to Gibbs Free Energy=         0.184271
 Sum of electronic and zero-point Energies=           -501.656368
 Sum of electronic and thermal Energies=              -501.646323
 Sum of electronic and thermal Enthalpies=            -501.645379
 Sum of electronic and thermal Free Energies=         -501.691626

                     E (Thermal)             CV                S
                      KCal/Mol        Cal/Mol-Kelvin    Cal/Mol-Kelvin
 Total                  144.059             40.236             97.334
 Electronic               0.000              0.000              0.000
 Translational            0.889              2.981             41.007
 Rotational               0.889              2.981             29.737
 Vibrational            142.282             34.274             26.590
 Vibration     1          0.594              1.982              5.407
 Vibration     2          0.613              1.919              2.886
 Vibration     3          0.618              1.903              2.673
 Vibration     4          0.659              1.773              1.775
 Vibration     5          0.673              1.731              1.605
 Vibration     6          0.684              1.699              1.494
 Vibration     7          0.697              1.662              1.382
 Vibration     8          0.721              1.592              1.205
 Vibration     9          0.726              1.577              1.170
 Vibration    10          0.754              1.503              1.021
 Vibration    11          0.801              1.381              0.824
 Vibration    12          0.851              1.261              0.670
 Vibration    13          0.862              1.234              0.641
 Vibration    14          0.908              1.133              0.538

 Optimization completed.
    -- Stationary point found.

 1\1\GINC-NODE122\Freq\RB3LYP\6-31G(d)\C9H14O2\VSC10255\08-Dec-2020\0\\
 #N Geom=AllCheck Guess=TCheck SCRF=Check GenChk RB3LYP/6-31G(d) Freq\\
 CID_13026406_JID_1295_neutraal\\0,1\C,0.9773792696,-0.0593410735,-0.00
 51004703\C,0.2609540932,1.1507925574,0.6122415163\C,-0.2420450702,2.11
 0279997,-0.5243064431\C,-1.6234370176,2.7855026039,-0.3219213478\C,-1.
 353336858,4.0377940565,0.519278836\C,0.0433695629,4.4750481845,0.09658
 08645\O,0.5216712043,5.5808543082,0.2219278572\C,0.7860837485,3.270327
 663,-0.5000367173\C,1.883394133,2.7901082033,0.4644313108\O,1.20836926

 Normal termination of Gaussian 16 at Tue Dec  8 19:43:55 2020.

 ----------------------------------------------------------------------
 # B3LYP/6-311++G(d,p) empiricaldispersion=gd3bj scf=xqc pop=npa geom=c
 heck
 ----------------------------------------------------------------------

 --------------------------------------
 CID_13026406_JID_1295_Energie_neutraal
 --------------------------------------
 Structure from the checkpoint file:  "JID_1295.chk"
 Charge =  0 Multiplicity = 1

 SCF Done:  E(RB3LYP) =  -502.018403969     A.U. after   14 cycles
 Normal termination of Gaussian 16 at Tue Dec  8 19:46:26 2020.

 ----------------------------------------------------------------------
 # B3LYP/6-311++G(d,p) empiricaldispersion=gd3bj scf=xqc pop=npa geom=c
 heck
 ----------------------------------------------------------------------

 ------------------------------------
 CID_13026406_JID_1295_Energie_kation
 ------------------------------------
 Structure from the checkpoint file:  "JID_1295.chk"
 Charge =  1 Multiplicity = 2

 SCF Done:  E(UB3LYP) =  -501.691714001     A.U. after   20 cycles
 Normal termination of Gaussian 16 at Tue Dec  8 19:51:43 2020.
 Gaussian 16:  ES64L-G16RevA.03 25-Dec-2016

 -----------------------------------
 CID_13026406_JID_1295_Energie_anion
 -----------------------------------
 Structure from the checkpoint file:  "JID_1295.chk"
 Charge = -1 Multiplicity = 2

                         Standard orientation:
 ---------------------------------------------------------------------
 Center     Atomic      Atomic             Coordinates (Angstroms)
 Number     Number       Type             X           Y           Z
 ---------------------------------------------------------------------
      1          6           0        2.607633   -0.545039    0.669677
      2          6           0        1.412568    0.050834   -0.088978
      3          6           0        0.260169    0.398909    0.919082
      4          6           0       -0.541039    1.700729    0.657435
      5          6           0       -1.631943    1.320616   -0.349664
      6          6           0       -1.952819   -0.131460   -0.019259
      7          8           0       -2.968529   -0.727887   -0.301923
      8          6           0       -0.757273   -0.753287    0.717578
      9          6           0       -0.029023   -1.752407   -0.196923
     10          8           0        0.853227   -0.951136   -0.965764
     11          6           0        1.880310    1.188859   -0.988951
     12          1           0        3.078215    0.212599    1.306365
     13          1           0        3.353554   -0.919338   -0.038312
     14          1           0        2.299438   -1.375187    1.314231
     15          1           0        0.670084    0.415354    1.932454
     16          1           0        0.088601    2.528508    0.322874
     17          1           0       -1.009287    2.016619    1.597449
     18          1           0       -2.528636    1.945229   -0.329038
     19          1           0       -1.242493    1.330381   -1.377689
     20          1           0       -1.110453   -1.222819    1.640661
     21          1           0       -0.703518   -2.274191   -0.880558
     22          1           0        0.516836   -2.501056    0.396574
     23          1           0        2.311855    2.003984   -0.398811
     24          1           0        2.648899    0.819804   -1.675006
     25          1           0        1.057817    1.585768   -1.589683
 ---------------------------------------------------------------------

 SCF Done:  E(UB3LYP) =  -502.006464501     A.U. after   32 cycles

 The electronic state is 2-A.
 Alpha  occ. eigenvalues --  -19.01186 -18.99121 -10.12953 -10.12089 -10.10467
 Alpha  occ. eigenvalues --  -10.06508 -10.06262 -10.06236 -10.06210 -10.05763
 Alpha  occ. eigenvalues --  -10.04811  -0.93383  -0.92350  -0.72680  -0.68269
 Alpha  occ. eigenvalues --   -0.63498  -0.58551  -0.57721  -0.54147  -0.48296
 Alpha  occ. eigenvalues --   -0.44061  -0.41286  -0.39145  -0.36633  -0.35934
 Alpha  occ. eigenvalues --   -0.34941  -0.33402  -0.32348  -0.31026  -0.29573
 Alpha  occ. eigenvalues --   -0.28388  -0.27636  -0.26854  -0.26047  -0.25120
 Alpha  occ. eigenvalues --   -0.24123  -0.22951  -0.22405  -0.21777  -0.20254
 Alpha  occ. eigenvalues --   -0.15071  -0.12776   0.04892
 Alpha virt. eigenvalues --    0.07142   0.07986   0.08866   0.09064   0.10169
 Alpha virt. eigenvalues --    0.10568   0.11003   0.11367   0.11981   0.13164
 Alpha virt. eigenvalues --    0.13695   0.14270   0.14604   0.15693   0.16221

  Beta  occ. eigenvalues --  -19.01178 -18.99018 -10.12789 -10.12086 -10.10435
  Beta  occ. eigenvalues --  -10.06488 -10.06270 -10.06241 -10.06195 -10.05747
  Beta  occ. eigenvalues --  -10.04771  -0.93348  -0.92146  -0.72577  -0.68221
  Beta  occ. eigenvalues --   -0.63448  -0.58497  -0.57608  -0.54030  -0.48193
  Beta  occ. eigenvalues --   -0.43982  -0.41132  -0.39003  -0.36561  -0.35836
  Beta  occ. eigenvalues --   -0.34846  -0.33340  -0.32151  -0.30964  -0.29409
  Beta  occ. eigenvalues --   -0.28346  -0.27567  -0.26759  -0.25920  -0.25072
  Beta  occ. eigenvalues --   -0.23883  -0.22877  -0.22246  -0.21652  -0.20211
  Beta  occ. eigenvalues --   -0.15035  -0.12686
  Beta virt. eigenvalues --    0.07450   0.08306   0.08612   0.09608   0.09928
  Beta virt. eigenvalues --    0.10609   0.11071   0.11523   0.11818   0.12491
  Beta virt. eigenvalues --    0.13571   0.14224   0.14482   0.15024   0.16011

 Mulliken charges and spin densities:
               1          2
     1  C    1.625933  -2.126657
     2  C   -1.995579   1.540655
     3  C    1.088587  -0.331048
     4  C    0.585362  -1.097181
     5  C   -0.288094  -0.003722
     6  C   -0.126683  -0.130199
     7  O   -0.327315   0.048396
     8  C   -0.137949  -0.039058
     9  C    0.848447  -0.974662
    10  O    0.000924  -0.013238
    11  C   -0.234755  -0.320368
    12  H   -0.284133   0.439496
    13  H    0.001915   0.140997
    14  H   -0.455346   0.594786
    15  H   -0.687619   0.970680
    16  H   -0.065333   0.202421
    17  H   -0.290478   0.459915
    18  H   -0.044699   0.233140
    19  H    0.172370   0.001503
    20  H   -0.403003   0.661516
    21  H    0.210259  -0.019892
    22  H   -0.218378   0.357047
    23  H   -0.222411   0.385707
    24  H    0.124339   0.018677
    25  H    0.123640   0.001089
 Sum of Mulliken charges =  -1.00000   1.00000

 Dipole moment (field-independent basis, Debye):
    X=              0.0209    Y=              0.9015    Z=             -5.6569  Tot=              5.7284
 Quadrupole moment (field-independent basis, Debye-Ang):
   XX=           -117.0445   YY=           -101.9033   ZZ=           -105.9772
   XY=             -2.2806   XZ=             -5.8541   YZ=             -1.4786

 Summary of Natural Population Analysis:

                                       Natural Population
                Natural  -----------------------------------------------
    Atom  No    Charge         Core      Valence    Rydberg      Total
 -----------------------------------------------------------------------
      C    1   -0.29521      0.99960     2.28849    0.00712     3.29521
      C    2    0.13419      0.99953     1.84895    0.01733     2.86581
      C    3   -0.11676      0.99955     2.10233    0.01489     3.11676
      C    4   -0.18994      0.99963     2.18105    0.00926     3.18994
      C    5   -0.24191      0.99958     2.23440    0.00792     3.24191
      C    6    0.32566      0.99964     1.65186    0.02284     2.67434
      O    7   -0.28585      0.99987     3.27942    0.00656     4.28585
      C    8   -0.16834      0.99955     2.15611    0.01268     3.16834
      C    9   -0.00349      0.99956     1.99084    0.01309     3.00349
      O   10   -0.31204      0.99988     3.30397    0.00819     4.31204
      C   11   -0.29182      0.99960     2.28529    0.00693     3.29182
      H   12    0.10362      0.00000     0.39469    0.00169     0.39638
      H   13    0.09860      0.00000     0.40040    0.00099     0.40140
      H   14    0.10455      0.00000     0.39360    0.00185     0.39545
      H   15    0.11225      0.00000     0.38208    0.00567     0.38775
      H   16    0.10085      0.00000     0.39802    0.00114     0.39915
      H   17    0.10166      0.00000     0.39642    0.00192     0.39834
      H   18    0.10885      0.00000     0.38999    0.00116     0.39115
      H   19    0.11010      0.00000     0.38880    0.00111     0.38990
      H   20    0.12260      0.00000     0.37442    0.00298     0.37740
      H   21    0.09369      0.00000     0.40516    0.00114     0.40631
      H   22    0.08272      0.00000     0.41573    0.00155     0.41728
      H   23    0.10293      0.00000     0.39622    0.00085     0.39707
      H   24    0.10231      0.00000     0.39685    0.00084     0.39769
      H   25    0.10078      0.00000     0.39830    0.00092     0.39922
 =======================================================================
   * Total *    0.00000     10.99599    30.85337    0.15064    42.00000

 Normal termination of Gaussian 16 at Tue Dec  8 19:59:53 2020.
