 Gaussian 16, Revision A.03,

 -----------------------------------------------------------
 # opt freq B3LYP/6-31G(d) empiricaldispersion=gd3bj scf=xqc
 -----------------------------------------------------------

 -------------------------------
 CID_104186183_JID_8206_neutraal
 -------------------------------
 Symbolic Z-matrix:
 Charge =  0 Multiplicity = 1

 SCF Done:  E(RB3LYP) =  -1184.27937973     A.U. after   15 cycles
 SCF Done:  E(RB3LYP) =  -1184.28344390     A.U. after   13 cycles
 SCF Done:  E(RB3LYP) =  -1184.28377182     A.U. after   14 cycles
 SCF Done:  E(RB3LYP) =  -1184.28504627     A.U. after   13 cycles
 SCF Done:  E(RB3LYP) =  -1184.28586515     A.U. after   15 cycles
 SCF Done:  E(RB3LYP) =  -1184.28820912     A.U. after   13 cycles
 SCF Done:  E(RB3LYP) =  -1184.28968564     A.U. after   16 cycles
 SCF Done:  E(RB3LYP) =  -1184.28902998     A.U. after   16 cycles
 SCF Done:  E(RB3LYP) =  -1184.29036822     A.U. after   13 cycles
 SCF Done:  E(RB3LYP) =  -1184.29112177     A.U. after   16 cycles
 SCF Done:  E(RB3LYP) =  -1184.29381540     A.U. after   11 cycles
 SCF Done:  E(RB3LYP) =  -1184.29381670     A.U. after   10 cycles
 SCF Done:  E(RB3LYP) =  -1184.29381808     A.U. after    9 cycles
 SCF Done:  E(RB3LYP) =  -1184.29381886     A.U. after    8 cycles
 SCF Done:  E(RB3LYP) =  -1184.29381881     A.U. after    7 cycles
 Optimization completed.
    -- Stationary point found.
 Normal termination of Gaussian 16 at Fri Dec 11 19:39:51 2020.

 --------------------------------------------------------------------
 #N Geom=AllCheck Guess=TCheck SCRF=Check GenChk RB3LYP/6-31G(d) Freq
 --------------------------------------------------------------------

 Structure from the checkpoint file:  "JID_8206.chk"
 -------------------------------
 CID_104186183_JID_8206_neutraal
 -------------------------------
 Charge =  0 Multiplicity = 1

 SCF Done:  E(RB3LYP) =  -1184.29381881     A.U. after    1 cycles

  Exact polarizability: 201.545 -36.548 142.329   5.703  -1.984 159.669
 Approx polarizability: 302.151 -70.866 208.618  23.775  -9.453 292.683

                      1                      2                      3
                      A                      A                      A
 Frequencies --     20.0766                33.8340                40.9641
 Red. masses --      5.8337                 4.0123                 4.5153
 Frc consts  --      0.0014                 0.0027                 0.0045
 IR Inten    --      0.7623                 0.7941                 0.9846

                      4                      5                      6
                      A                      A                      A
 Frequencies --     62.6624                76.4452                88.4745
 Red. masses --      4.8866                 7.9445                 3.4692
 Frc consts  --      0.0113                 0.0274                 0.0160
 IR Inten    --      0.3479                 1.2764                 0.1672

                      7                      8                      9
                      A                      A                      A
 Frequencies --    112.5243               118.7129               129.3313
 Red. masses --      3.1047                 3.2094                 6.1068
 Frc consts  --      0.0232                 0.0266                 0.0602
 IR Inten    --      4.2932                 4.8279                 3.3816

                     10                     11                     12
                      A                      A                      A
 Frequencies --    148.6195               174.5464               186.0145
 Red. masses --      3.6561                 3.2776                 5.0342
 Frc consts  --      0.0476                 0.0588                 0.1026
 IR Inten    --      1.4614                 7.6035                 8.8669

                     13                     14                     15
                      A                      A                      A
 Frequencies --    222.3369               235.2207               266.5373
 Red. masses --      1.7745                 4.3279                 1.7634
 Frc consts  --      0.0517                 0.1411                 0.0738
 IR Inten    --      8.2669                 0.4853                 3.1375

                     16                     17                     18
                      A                      A                      A
 Frequencies --    272.8968               308.6381               318.8476
 Red. masses --      2.4679                 5.2198                 4.4112
 Frc consts  --      0.1083                 0.2930                 0.2642
 IR Inten    --      0.0419                 1.3421                 1.2469

                     19                     20                     21
                      A                      A                      A
 Frequencies --    325.1105               396.8033               407.6711
 Red. masses --      2.8998                 5.3007                 3.2460
 Frc consts  --      0.1806                 0.4917                 0.3178
 IR Inten    --      2.6564                 3.5832                 1.9962

                     22                     23                     24
                      A                      A                      A
 Frequencies --    425.1123               463.5602               503.4858
 Red. masses --      3.0982                 3.6459                 3.0780
 Frc consts  --      0.3299                 0.4616                 0.4597
 IR Inten    --      2.5170                 5.1658                13.8126

                     25                     26                     27
                      A                      A                      A
 Frequencies --    518.5834               540.5235               589.2782
 Red. masses --      3.2930                 6.5291                 3.9906
 Frc consts  --      0.5218                 1.1239                 0.8164
 IR Inten    --      9.1078                11.0532                 0.2490

                     28                     29                     30
                      A                      A                      A
 Frequencies --    644.8494               652.9401               707.3924
 Red. masses --      5.5441                 3.7684                 4.9602
 Frc consts  --      1.3583                 0.9466                 1.4624
 IR Inten    --      4.2666                13.4887                26.4488

                     31                     32                     33
                      A                      A                      A
 Frequencies --    721.0714               724.5064               750.9213
 Red. masses --      4.0202                 1.3537                 1.5350
 Frc consts  --      1.2316                 0.4186                 0.5100
 IR Inten    --      1.9292                97.0920                26.8128

                     34                     35                     36
                      A                      A                      A
 Frequencies --    782.3852               830.7397               838.6255
 Red. masses --      4.6707                 1.3934                 2.5034
 Frc consts  --      1.6845                 0.5666                 1.0373
 IR Inten    --      2.5135                36.0030                10.8403

                     37                     38                     39
                      A                      A                      A
 Frequencies --    854.3332               864.7414               885.0027
 Red. masses --      5.0059                 1.2721                 2.8412
 Frc consts  --      2.1527                 0.5605                 1.3111
 IR Inten    --     57.8685                15.9181                 3.1286

                     40                     41                     42
                      A                      A                      A
 Frequencies --    924.6022               948.6410               965.1647
 Red. masses --      2.1426                 2.1797                 1.3018
 Frc consts  --      1.0792                 1.1557                 0.7145
 IR Inten    --      5.6316                29.0782                 0.6030

                     43                     44                     45
                      A                      A                      A
 Frequencies --    995.8880              1014.2237              1033.5691
 Red. masses --      1.3417                 1.7967                 1.8207
 Frc consts  --      0.7840                 1.0889                 1.1460
 IR Inten    --      1.8768                 7.0315                 0.1195

                     46                     47                     48
                      A                      A                      A
 Frequencies --   1037.3137              1071.9241              1111.1210
 Red. masses --      2.8742                 2.3639                 4.0596
 Frc consts  --      1.8222                 1.6003                 2.9529
 IR Inten    --      4.8900                 8.1743                60.8977

                     49                     50                     51
                      A                      A                      A
 Frequencies --   1121.1650              1149.3235              1154.5594
 Red. masses --      1.9425                 1.6442                 1.8600
 Frc consts  --      1.4386                 1.2796                 1.4608
 IR Inten    --      8.2164                29.0466                40.9740

                     52                     53                     54
                      A                      A                      A
 Frequencies --   1163.6390              1187.4627              1195.6039
 Red. masses --      4.8154                 1.2966                 1.2909
 Frc consts  --      3.8416                 1.0772                 1.0873
 IR Inten    --     69.8337                20.7962                 5.8022

                     55                     56                     57
                      A                      A                      A
 Frequencies --   1206.6421              1225.3780              1254.9387
 Red. masses --      1.3273                 1.5123                 2.1540
 Frc consts  --      1.1386                 1.3379                 1.9987
 IR Inten    --     69.0780                19.8423                38.9346

                     58                     59                     60
                      A                      A                      A
 Frequencies --   1269.8554              1280.8056              1289.0190
 Red. masses --      1.2178                 1.3646                 1.2766
 Frc consts  --      1.1570                 1.3190                 1.2497
 IR Inten    --     17.2584                17.3514                13.9493

                     61                     62                     63
                      A                      A                      A
 Frequencies --   1318.8233              1342.7285              1355.5787
 Red. masses --      1.1282                 2.2860                 2.3633
 Frc consts  --      1.1562                 2.4283                 2.5587
 IR Inten    --      6.0118                 0.3033                31.3200

                     64                     65                     66
                      A                      A                      A
 Frequencies --   1382.0812              1393.8089              1430.1447
 Red. masses --      1.5796                 1.4592                 1.5035
 Frc consts  --      1.7778                 1.6702                 1.8118
 IR Inten    --     72.5569                 2.1677                22.2225

                     67                     68                     69
                      A                      A                      A
 Frequencies --   1437.9316              1449.1894              1462.6971
 Red. masses --      1.5520                 1.3561                 1.9765
 Frc consts  --      1.8906                 1.6780                 2.4915
 IR Inten    --     15.1115                27.9745                 6.5470

                     70                     71                     72
                      A                      A                      A
 Frequencies --   1490.7644              1503.3670              1510.1785
 Red. masses --      1.0997                 1.2130                 1.0925
 Frc consts  --      1.4400                 1.6152                 1.4680
 IR Inten    --      8.1824                16.4523                10.7580

                     73                     74                     75
                      A                      A                      A
 Frequencies --   1513.4158              1515.8114              1527.1063
 Red. masses --      1.5320                 1.0601                 1.2971
 Frc consts  --      2.0674                 1.4351                 1.7823
 IR Inten    --     40.8009                10.9492                39.4029

                     76                     77                     78
                      A                      A                      A
 Frequencies --   1533.7577              1544.1100              1558.6613
 Red. masses --      1.0631                 2.1439                 1.0892
 Frc consts  --      1.4735                 3.0117                 1.5591
 IR Inten    --      9.5926                 4.4805                 2.5411

                     79                     80                     81
                      A                      A                      A
 Frequencies --   1614.2487              1653.4083              1769.2974
 Red. masses --      6.3279                 5.3539                 7.6208
 Frc consts  --      9.7151                 8.6235                14.0557
 IR Inten    --     24.6996               177.5677               324.6678

                     82                     83                     84
                      A                      A                      A
 Frequencies --   1797.4548              2902.8647              2995.5024
 Red. masses --      9.6573                 1.0835                 1.0449
 Frc consts  --     18.3831                 5.3793                 5.5241
 IR Inten    --    274.5166               155.5962                25.0722

                     85                     86                     87
                      A                      A                      A
 Frequencies --   3005.9550              3035.5688              3048.0358
 Red. masses --      1.0502                 1.1013                 1.1056
 Frc consts  --      5.5910                 5.9794                 6.0521
 IR Inten    --     54.9058                38.2526                45.6152

                     88                     89                     90
                      A                      A                      A
 Frequencies --   3071.1498              3084.0804              3085.4942
 Red. masses --      1.0686                 1.0642                 1.0656
 Frc consts  --      5.9383                 5.9640                 5.9769
 IR Inten    --     29.3679                 4.1841                40.1635

                     91                     92                     93
                      A                      A                      A
 Frequencies --   3129.0975              3141.9981              3144.7719
 Red. masses --      1.0957                 1.0979                 1.1018
 Frc consts  --      6.3209                 6.3859                 6.4200
 IR Inten    --     14.5579                31.2375                25.8736

                     94                     95                     96
                      A                      A                      A
 Frequencies --   3161.5179              3180.3390              3200.1113
 Red. masses --      1.1009                 1.0874                 1.0939
 Frc consts  --      6.4833                 6.4804                 6.6003
 IR Inten    --      2.0698                 8.0525                 7.4892

                     97                     98                     99
                      A                      A                      A
 Frequencies --   3218.5299              3246.3777              3583.9292
 Red. masses --      1.0897                 1.0932                 1.0752
 Frc consts  --      6.6506                 6.7881                 8.1372
 IR Inten    --      0.7195                 2.0460                46.1722

 - Thermochemistry -
 -------------------
 Temperature   298.150 Kelvin.  Pressure   1.00000 Atm.
 Atom     1 has atomic number  6 and mass  12.00000

 Molecular mass:   267.09292 amu.
 Principal axes and moments of inertia in atomic units:
                           1         2         3
     Eigenvalues --  4106.396336101.257017714.58011
           X            0.99998   0.00612  -0.00126
           Y           -0.00610   0.99992   0.01124
           Z            0.00132  -0.01124   0.99994
 This molecule is an asymmetric top.
 Rotational symmetry number  1.
 Warning -- assumption of classical behavior for rotation
           may cause significant error
 Rotational temperatures (Kelvin)      0.02109     0.01420     0.01123
 Rotational constants (GHZ):           0.43950     0.29580     0.23394
 Zero-point vibrational energy     754754.2 (Joules/Mol)
                                  180.39058 (Kcal/Mol)
 Warning -- explicit consideration of  27 degrees of freedom as
           vibrations may cause significant error
 Vibrational temperatures:     28.89    48.68    58.94    90.16   109.99
          (Kelvin)            127.30   161.90   170.80   186.08   213.83
                              251.13   267.63   319.89   338.43   383.49
                              392.64   444.06   458.75   467.76   570.91
                              586.55   611.64   666.96   724.40   746.13
                              777.69   847.84   927.79   939.44  1017.78
                             1037.46  1042.40  1080.41  1125.68  1195.25
                             1206.60  1229.19  1244.17  1273.32  1330.30
                             1364.88  1388.66  1432.86  1459.24  1487.08
                             1492.46  1542.26  1598.66  1613.11  1653.62
                             1661.15  1674.22  1708.49  1720.21  1736.09
                             1763.05  1805.58  1827.04  1842.79  1854.61
                             1897.49  1931.89  1950.38  1988.51  2005.38
                             2057.66  2068.86  2085.06  2104.49  2144.88
                             2163.01  2172.81  2177.47  2180.91  2197.17
                             2206.74  2221.63  2242.57  2322.54  2378.89
                             2545.62  2586.14  4176.57  4309.86  4324.90
                             4367.51  4385.44  4418.70  4437.30  4439.34
                             4502.07  4520.63  4524.63  4548.72  4575.80
                             4604.25  4630.75  4670.81  5156.47

 Zero-point correction=                           0.287471 (Hartree/Particle)
 Thermal correction to Energy=                    0.306016
 Thermal correction to Enthalpy=                  0.306960
 Thermal correction to Gibbs Free Energy=         0.238691
 Sum of electronic and zero-point Energies=          -1184.006348
 Sum of electronic and thermal Energies=             -1183.987803
 Sum of electronic and thermal Enthalpies=           -1183.986859
 Sum of electronic and thermal Free Energies=        -1184.055128

                     E (Thermal)             CV                S
                      KCal/Mol        Cal/Mol-Kelvin    Cal/Mol-Kelvin
 Total                  192.028             67.539            143.685
 Electronic               0.000              0.000              0.000
 Translational            0.889              2.981             42.646
 Rotational               0.889              2.981             33.624
 Vibrational            190.250             61.578             67.414
 Vibration     1          0.593              1.986              6.627
 Vibration     2          0.594              1.983              5.591
 Vibration     3          0.594              1.981              5.212
 Vibration     4          0.597              1.972              4.372
 Vibration     5          0.599              1.965              3.980
 Vibration     6          0.601              1.957              3.694
 Vibration     7          0.607              1.939              3.225
 Vibration     8          0.609              1.934              3.121
 Vibration     9          0.612              1.924              2.956
 Vibration    10          0.618              1.904              2.690
 Vibration    11          0.627              1.874              2.386
 Vibration    12          0.632              1.859              2.267
 Vibration    13          0.648              1.807              1.940
 Vibration    14          0.655              1.787              1.839
 Vibration    15          0.672              1.734              1.619
 Vibration    16          0.676              1.723              1.578
 Vibration    17          0.698              1.657              1.370
 Vibration    18          0.705              1.638              1.316
 Vibration    19          0.709              1.625              1.284
 Vibration    20          0.763              1.477              0.974
 Vibration    21          0.772              1.454              0.935
 Vibration    22          0.787              1.416              0.875
 Vibration    23          0.821              1.331              0.756
 Vibration    24          0.859              1.242              0.649
 Vibration    25          0.874              1.209              0.613
 Vibration    26          0.896              1.160              0.564
 Vibration    27          0.947              1.055              0.468

                           ! Non-Optimized Parameters !
 Normal termination of Gaussian 16 at Fri Dec 11 19:55:38 2020.

 ----------------------------------------------------------------------
 # B3LYP/6-311++G(d,p) empiricaldispersion=gd3bj scf=xqc pop=npa geom=c
 heck
 ----------------------------------------------------------------------

 ---------------------------------------
 CID_104186183_JID_8206_Energie_neutraal
 ---------------------------------------
 Structure from the checkpoint file:  "JID_8206.chk"
 Charge =  0 Multiplicity = 1

 SCF Done:  E(RB3LYP) =  -1184.54731879     A.U. after   16 cycles
 Normal termination of Gaussian 16 at Fri Dec 11 20:01:59 2020.

 ----------------------------------------------------------------------
 # B3LYP/6-311++G(d,p) empiricaldispersion=gd3bj scf=xqc pop=npa geom=c
 heck
 ----------------------------------------------------------------------

 -------------------------------------
 CID_104186183_JID_8206_Energie_kation
 -------------------------------------
 Structure from the checkpoint file:  "JID_8206.chk"
 Charge =  1 Multiplicity = 2

 SCF Done:  E(UB3LYP) =  -1184.24486965     A.U. after   33 cycles
 SCF Done:  E(UB3LYP) =  -1184.24486965     a.u. after    1 cycles
 Normal termination of Gaussian 16 at Fri Dec 11 20:19:39 2020.
 Gaussian 16:  ES64L-G16RevA.03 25-Dec-2016

 ----------------------------------------------------------------------
 # B3LYP/6-311++G(d,p) empiricaldispersion=gd3bj scf=xqc pop=npa geom=c
 heck
 ----------------------------------------------------------------------

 ------------------------------------
 CID_104186183_JID_8206_Energie_anion
 ------------------------------------
 Structure from the checkpoint file:  "JID_8206.chk"
 Charge = -1 Multiplicity = 2

                         Standard orientation:
 ---------------------------------------------------------------------
 Center     Atomic      Atomic             Coordinates (Angstroms)
 Number     Number       Type             X           Y           Z
 ---------------------------------------------------------------------
      1          6           0       -0.650510   -3.847151    0.521485
      2          8           0       -1.496611   -2.958018   -0.181983
      3          6           0       -0.764134   -1.981380   -0.910832
      4          6           0       -1.745231   -1.059704   -1.620888
      5          6           0       -2.839683   -0.504477   -0.682387
      6          7           0       -2.402691   -0.331350    0.696224
      7          6           0       -1.989146    0.765819    1.377077
      8          8           0       -1.599533    0.693513    2.539987
      9          6           0       -2.031635    2.137008    0.695469
     10         16           0       -1.021623    2.365769   -0.824538
     11          6           0        0.512181    1.537681   -0.477079
     12          6           0        1.003206    1.293672    0.817069
     13          6           0        2.203787    0.614478    0.978706
     14          6           0        2.946129    0.193312   -0.133569
     15          6           0        2.466319    0.466339   -1.421033
     16          6           0        1.257148    1.126044   -1.595723
     17          6           0        4.217012   -0.533370    0.044144
     18          8           0        4.703948   -0.828550    1.119629
     19          1           0       -1.292786   -4.546017    1.062826
     20          1           0       -0.010644   -3.312066    1.240241
     21          1           0       -0.002612   -4.412662   -0.165808
     22          1           0       -0.128735   -1.401260   -0.224636
     23          1           0       -0.098974   -2.467503   -1.642162
     24          1           0       -1.173189   -0.238182   -2.060006
     25          1           0       -2.236377   -1.596297   -2.440858
     26          1           0       -3.216740    0.445850   -1.064811
     27          1           0       -3.681573   -1.202526   -0.658122
     28          1           0       -2.257543   -1.197033    1.203906
     29          1           0       -3.047421    2.379340    0.364473
     30          1           0       -1.737981    2.860406    1.456258
     31          1           0        0.442470    1.599715    1.690898
     32          1           0        2.589684    0.402255    1.970745
     33          1           0        3.038469    0.144036   -2.288144
     34          1           0        0.876624    1.314155   -2.595501
     35          1           0        4.727057   -0.810243   -0.905962
 ---------------------------------------------------------------------

 SCF Done:  E(UB3LYP) =  -1184.56825951     A.U. after   28 cycles

 The electronic state is 2-A.
 Alpha  occ. eigenvalues --  -88.73685 -19.04440 -18.98844 -18.92343 -14.24069
 Alpha  occ. eigenvalues --  -10.17916 -10.13116 -10.12190 -10.12131 -10.10771
 Alpha  occ. eigenvalues --  -10.07821 -10.05986 -10.05682 -10.03844 -10.03453
 Alpha  occ. eigenvalues --  -10.03423 -10.01981 -10.01391  -7.82274  -5.78695
 Alpha  occ. eigenvalues --   -5.78263  -5.77669  -0.95563  -0.94060  -0.86084
 Alpha  occ. eigenvalues --   -0.83045  -0.72809  -0.69474  -0.68533  -0.62708
 Alpha  occ. eigenvalues --   -0.62111  -0.60960  -0.57676  -0.55695  -0.51165
 Alpha  occ. eigenvalues --   -0.48772  -0.47562  -0.46359  -0.41869  -0.41352
 Alpha  occ. eigenvalues --   -0.40703  -0.39657  -0.38898  -0.37204  -0.35254
 Alpha  occ. eigenvalues --   -0.34792  -0.33996  -0.32796  -0.32303  -0.31727
 Alpha  occ. eigenvalues --   -0.31198  -0.30386  -0.28723  -0.28412  -0.27440
 Alpha  occ. eigenvalues --   -0.26881  -0.26092  -0.25865  -0.25071  -0.24099
 Alpha  occ. eigenvalues --   -0.23459  -0.21934  -0.21081  -0.20048  -0.18120
 Alpha  occ. eigenvalues --   -0.16270  -0.15882  -0.15332  -0.12386  -0.09352
 Alpha  occ. eigenvalues --   -0.08480   0.03881
 Alpha virt. eigenvalues --    0.06535   0.07388   0.08149   0.08751   0.09173
 Alpha virt. eigenvalues --    0.10062   0.10463   0.10585   0.11631   0.11771
 Alpha virt. eigenvalues --    0.12232   0.12359   0.12695   0.13398   0.13665

  Beta  occ. eigenvalues --  -88.73680 -19.04440 -18.98841 -18.91776 -14.24068
  Beta  occ. eigenvalues --  -10.17912 -10.13115 -10.12190 -10.12131 -10.10741
  Beta  occ. eigenvalues --  -10.07821 -10.05695 -10.05259 -10.03866 -10.03547
  Beta  occ. eigenvalues --  -10.03322 -10.01751 -10.01263  -7.82269  -5.78694
  Beta  occ. eigenvalues --   -5.78273  -5.77638  -0.95563  -0.94054  -0.85054
  Beta  occ. eigenvalues --   -0.83042  -0.72430  -0.69451  -0.68377  -0.62517
  Beta  occ. eigenvalues --   -0.61840  -0.60672  -0.57664  -0.55433  -0.51136
  Beta  occ. eigenvalues --   -0.48557  -0.47256  -0.45882  -0.41527  -0.41270
  Beta  occ. eigenvalues --   -0.40667  -0.39640  -0.38853  -0.37197  -0.35200
  Beta  occ. eigenvalues --   -0.34568  -0.33878  -0.32768  -0.32208  -0.31610
  Beta  occ. eigenvalues --   -0.31013  -0.30327  -0.28646  -0.28310  -0.27388
  Beta  occ. eigenvalues --   -0.26689  -0.25810  -0.25640  -0.24146  -0.23828
  Beta  occ. eigenvalues --   -0.22980  -0.20974  -0.20076  -0.19457  -0.18101
  Beta  occ. eigenvalues --   -0.16118  -0.15852  -0.14409  -0.11551  -0.08019
  Beta  occ. eigenvalues --   -0.07949
  Beta virt. eigenvalues --    0.06487   0.07342   0.08081   0.08722   0.09143
  Beta virt. eigenvalues --    0.10003   0.10290   0.10492   0.10562   0.11631
  Beta virt. eigenvalues --    0.11784   0.12209   0.12454   0.12846   0.13395

 Mulliken charges and spin densities:
               1          2
     1  C   -0.253341  -0.001092
     2  O   -0.145121   0.000098
     3  C   -0.547257   0.018181
     4  C   -0.035857  -0.000509
     5  C   -0.419595  -0.023898
     6  N   -0.097746  -0.005338
     7  C    0.019178   0.069268
     8  O   -0.295894   0.002057
     9  C   -0.399407  -0.128478
    10  S   -0.399559   0.079741
    11  C    0.529979   0.198074
    12  C   -0.423981  -0.035836
    13  C    0.080145   0.204531
    14  C    0.757132   0.063395
    15  C   -0.970417   0.079285
    16  C   -0.390222   0.043510
    17  C   -0.450660   0.208724
    18  O   -0.380317   0.192927
    19  H    0.125213   0.000084
    20  H    0.145174   0.001941
    21  H    0.120368   0.000473
    22  H    0.337928  -0.012607
    23  H    0.128285   0.000066
    24  H    0.136256  -0.002286
    25  H    0.175330  -0.000820
    26  H    0.153619   0.000015
    27  H    0.174215   0.001005
    28  H    0.320098   0.005952
    29  H    0.126691   0.070054
    30  H    0.242013  -0.000836
    31  H    0.175314   0.012545
    32  H    0.174189  -0.015492
    33  H    0.118639  -0.004101
    34  H    0.147394  -0.001265
    35  H    0.022211  -0.019369
 Sum of Mulliken charges =  -1.00000   1.00000

 Dipole moment (field-independent basis, Debye):
    X=            -10.9214    Y=             -2.3080    Z=             -4.2577  Tot=             11.9470
 Quadrupole moment (field-independent basis, Debye-Ang):
   XX=           -180.4680   YY=           -131.7521   ZZ=           -136.3060
   XY=              5.1652   XZ=             -8.2712   YZ=              2.4957

 Summary of Natural Population Analysis:

                                       Natural Population
                Natural  -----------------------------------------------
    Atom  No    Charge         Core      Valence    Rydberg      Total
 -----------------------------------------------------------------------
      C    1   -0.09959      0.99963     2.09151    0.00844     3.09959
      O    2   -0.31039      0.99988     3.30032    0.01019     4.31039
      C    3   -0.01572      0.99959     2.00597    0.01016     3.01572
      C    4   -0.20664      0.99962     2.20009    0.00693     3.20664
      C    5   -0.08684      0.99963     2.07742    0.00979     3.08684
      N    6   -0.32022      0.99965     2.80829    0.01228     3.82022
      C    7    0.33722      0.99965     1.63961    0.02352     2.66278
      O    8   -0.32457      0.99988     3.31834    0.00635     4.32457
      C    9   -0.29150      0.99954     2.28311    0.00885     3.29150
      S   10    0.11320      4.99953     2.86731    0.01996     7.88680
      C   11   -0.02745      0.99941     2.01464    0.01340     3.02745
      C   12   -0.14507      0.99951     2.13670    0.00886     3.14507
      C   13   -0.02955      0.99953     2.02100    0.00902     3.02955
      C   14   -0.05897      0.99949     2.05036    0.00912     3.05897
      C   15   -0.06558      0.99953     2.05742    0.00863     3.06558
      C   16   -0.13518      0.99952     2.12627    0.00939     3.13518
      C   17    0.23968      0.99968     1.73955    0.02108     2.76032
      O   18   -0.24330      0.99988     3.23552    0.00790     4.24330
      H   19    0.08542      0.00000     0.41377    0.00081     0.41458
      H   20    0.08611      0.00000     0.41262    0.00128     0.41389
      H   21    0.07761      0.00000     0.42112    0.00127     0.42239
      H   22    0.09841      0.00000     0.39989    0.00171     0.40159
      H   23    0.08266      0.00000     0.41606    0.00128     0.41734
      H   24    0.11614      0.00000     0.38255    0.00131     0.38386
      H   25    0.09208      0.00000     0.40681    0.00112     0.40792
      H   26    0.10185      0.00000     0.39700    0.00115     0.39815
      H   27    0.09308      0.00000     0.40587    0.00106     0.40692
      H   28    0.19930      0.00000     0.29856    0.00214     0.30070
      H   29    0.10878      0.00000     0.38921    0.00201     0.39122
      H   30    0.11243      0.00000     0.38565    0.00192     0.38757
      H   31    0.10584      0.00000     0.39253    0.00163     0.39416
      H   32    0.10271      0.00000     0.39542    0.00187     0.39729
      H   33    0.09021      0.00000     0.40783    0.00195     0.40979
      H   34    0.09335      0.00000     0.40561    0.00104     0.40665
      H   35    0.02451      0.00000     0.47232    0.00318     0.47549
 =======================================================================
   * Total *   -0.00000     21.99316    48.77625    0.23059    71.00000

 Normal termination of Gaussian 16 at Fri Dec 11 20:34:35 2020.
