 Gaussian 16, Revision A.03,

 -----------------------------------------------------------
 # opt freq B3LYP/6-31G(d) empiricaldispersion=gd3bj scf=xqc
 -----------------------------------------------------------

 ------------------------------
 CID_105428567_JID_447_neutraal
 ------------------------------
 Symbolic Z-matrix:
 Charge =  0 Multiplicity = 1

 SCF Done:  E(RB3LYP) =  -445.041361225     A.U. after   13 cycles
 SCF Done:  E(RB3LYP) =  -445.048375713     A.U. after   11 cycles
 SCF Done:  E(RB3LYP) =  -445.049040439     A.U. after   11 cycles
 SCF Done:  E(RB3LYP) =  -445.049478452     A.U. after   11 cycles
 SCF Done:  E(RB3LYP) =  -445.049607175     A.U. after   11 cycles
 SCF Done:  E(RB3LYP) =  -445.049676604     A.U. after   10 cycles
 SCF Done:  E(RB3LYP) =  -445.049744907     A.U. after   10 cycles
 SCF Done:  E(RB3LYP) =  -445.049915056     A.U. after   11 cycles
 SCF Done:  E(RB3LYP) =  -445.014366182     A.U. after   12 cycles
 SCF Done:  E(RB3LYP) =  -445.050712520     A.U. after   11 cycles
 SCF Done:  E(RB3LYP) =  -445.056947471     A.U. after   10 cycles
 SCF Done:  E(RB3LYP) =  -445.056968309     A.U. after    9 cycles
 SCF Done:  E(RB3LYP) =  -445.056984445     A.U. after   10 cycles
 SCF Done:  E(RB3LYP) =  -445.056988085     A.U. after    9 cycles
 SCF Done:  E(RB3LYP) =  -445.056989305     A.U. after    8 cycles
 SCF Done:  E(RB3LYP) =  -445.056989383     A.U. after    7 cycles
 Optimization completed.
    -- Stationary point found.
 Normal termination of Gaussian 16 at Tue Dec  8 10:58:54 2020.

 --------------------------------------------------------------------
 #N Geom=AllCheck Guess=TCheck SCRF=Check GenChk RB3LYP/6-31G(d) Freq
 --------------------------------------------------------------------

 Structure from the checkpoint file:  "JID_447.chk"
 ------------------------------
 CID_105428567_JID_447_neutraal
 ------------------------------
 Charge =  0 Multiplicity = 1

 SCF Done:  E(RB3LYP) =  -445.056989383     A.U. after    1 cycles

  Exact polarizability: 104.266  -1.030  87.202  -0.294  -2.656  85.132
 Approx polarizability: 123.844  -2.169 123.279  -0.967  -3.464 129.608

                      1                      2                      3
                      A                      A                      A
 Frequencies --     27.1682                84.5728                95.5103
 Red. masses --      2.7586                 3.5753                 2.5287
 Frc consts  --      0.0012                 0.0151                 0.0136
 IR Inten    --      0.0042                 2.1848                 0.5628

                      4                      5                      6
                      A                      A                      A
 Frequencies --    122.9616               194.2709               228.2780
 Red. masses --      3.4395                 2.6920                 1.4587
 Frc consts  --      0.0306                 0.0599                 0.0448
 IR Inten    --      3.0880                 2.6670                 5.0413

                      7                      8                      9
                      A                      A                      A
 Frequencies --    240.2793               255.5917               275.4398
 Red. masses --      1.2801                 2.2105                 1.1176
 Frc consts  --      0.0435                 0.0851                 0.0500
 IR Inten    --      3.0226                10.0542                18.1807

                     10                     11                     12
                      A                      A                      A
 Frequencies --    292.2985               323.0550               384.6113
 Red. masses --      1.4307                 3.3036                 2.1354
 Frc consts  --      0.0720                 0.2031                 0.1861
 IR Inten    --     77.0264                27.5097                 0.8264

                     13                     14                     15
                      A                      A                      A
 Frequencies --    421.4773               442.3286               492.7252
 Red. masses --      2.8191                 2.1660                 2.3309
 Frc consts  --      0.2951                 0.2497                 0.3334
 IR Inten    --      6.6076                 1.5767                10.2109

                     16                     17                     18
                      A                      A                      A
 Frequencies --    573.2844               674.4437               825.2307
 Red. masses --      2.4056                 2.0291                 2.9042
 Frc consts  --      0.4658                 0.5438                 1.1653
 IR Inten    --      2.3019                73.5156                10.1509

                     19                     20                     21
                      A                      A                      A
 Frequencies --    830.2305               873.4261               881.1101
 Red. masses --      2.7657                 1.7088                 1.5096
 Frc consts  --      1.1232                 0.7681                 0.6905
 IR Inten    --      7.8696                 0.5254                 0.4712

                     22                     23                     24
                      A                      A                      A
 Frequencies --    937.2439               945.4715               949.8683
 Red. masses --      2.4711                 1.1801                 1.9503
 Frc consts  --      1.2789                 0.6215                 1.0368
 IR Inten    --     20.0404                 2.0060                13.8522

                     25                     26                     27
                      A                      A                      A
 Frequencies --    978.7714               985.2294              1009.8713
 Red. masses --      1.5278                 2.0154                 2.1139
 Frc consts  --      0.8623                 1.1526                 1.2702
 IR Inten    --      0.4148                 5.8130                18.4070

                     28                     29                     30
                      A                      A                      A
 Frequencies --   1029.2112              1048.0146              1057.3654
 Red. masses --      2.4802                 2.3125                 2.4892
 Frc consts  --      1.5479                 1.4965                 1.6397
 IR Inten    --      0.9463                10.4381                34.7741

                     31                     32                     33
                      A                      A                      A
 Frequencies --   1098.5736              1121.7584              1135.0434
 Red. masses --      2.4426                 1.3943                 1.1823
 Frc consts  --      1.7368                 1.0337                 0.8974
 IR Inten    --      1.9730                51.2832                 4.1383

                     34                     35                     36
                      A                      A                      A
 Frequencies --   1160.4041              1180.0646              1209.2036
 Red. masses --      1.9100                 1.8391                 1.4949
 Frc consts  --      1.5153                 1.5090                 1.2878
 IR Inten    --      9.1091                 9.4923                 3.0278

                     37                     38                     39
                      A                      A                      A
 Frequencies --   1216.5883              1235.5891              1254.2747
 Red. masses --      1.4460                 1.3832                 1.4764
 Frc consts  --      1.2610                 1.2442                 1.3685
 IR Inten    --      1.4393                 1.7032                11.2402

                     40                     41                     42
                      A                      A                      A
 Frequencies --   1291.0694              1314.4214              1340.5282
 Red. masses --      1.2988                 1.3855                 1.3260
 Frc consts  --      1.2756                 1.4103                 1.4040
 IR Inten    --     10.3838                 4.0322                 7.9934

                     43                     44                     45
                      A                      A                      A
 Frequencies --   1365.7957              1368.0907              1390.7956
 Red. masses --      1.5101                 1.4321                 1.3558
 Frc consts  --      1.6597                 1.5792                 1.5451
 IR Inten    --      0.4758                 2.4890                 6.9823

                     46                     47                     48
                      A                      A                      A
 Frequencies --   1393.5042              1401.0980              1422.2785
 Red. masses --      1.3417                 1.3906                 1.3760
 Frc consts  --      1.5350                 1.6084                 1.6399
 IR Inten    --      2.3877                 9.6433                33.8293

                     49                     50                     51
                      A                      A                      A
 Frequencies --   1430.5278              1437.9475              1451.6360
 Red. masses --      1.2801                 1.3414                 1.2545
 Frc consts  --      1.5434                 1.6342                 1.5576
 IR Inten    --      1.7227                43.1606                 1.4297

                     52                     53                     54
                      A                      A                      A
 Frequencies --   1499.3123              1520.2395              1525.0207
 Red. masses --      1.0929                 1.0440                 1.0551
 Frc consts  --      1.4475                 1.4216                 1.4457
 IR Inten    --      2.5114                 1.1832                 2.6759

                     55                     56                     57
                      A                      A                      A
 Frequencies --   1534.4407              1538.1597              1545.3729
 Red. masses --      1.0488                 1.0811                 1.0538
 Frc consts  --      1.4549                 1.5071                 1.4827
 IR Inten    --      6.5751                 1.2902                 7.1656

                     58                     59                     60
                      A                      A                      A
 Frequencies --   1564.0241              3001.2893              3008.7334
 Red. masses --      1.1121                 1.0800                 1.0590
 Frc consts  --      1.6028                 5.7318                 5.6482
 IR Inten    --      6.4187                 9.8591                82.8508

                     61                     62                     63
                      A                      A                      A
 Frequencies --   3014.8903              3016.7787              3033.4349
 Red. masses --      1.0699                 1.0669                 1.0401
 Frc consts  --      5.7297                 5.7209                 5.6391
 IR Inten    --     39.0239                52.8852                22.7278

                     64                     65                     66
                      A                      A                      A
 Frequencies --   3039.1593              3045.8211              3052.1990
 Red. masses --      1.0407                 1.0839                 1.1030
 Frc consts  --      5.6634                 5.9247                 6.0541
 IR Inten    --     32.7327                38.5336                61.7600

                     67                     68                     69
                      A                      A                      A
 Frequencies --   3060.0675              3092.2549              3095.0421
 Red. masses --      1.1029                 1.0982                 1.0926
 Frc consts  --      6.0849                 6.1871                 6.1664
 IR Inten    --     51.1690                22.5615                 3.6195

                     70                     71                     72
                      A                      A                      A
 Frequencies --   3102.8136              3108.0391              3110.2442
 Red. masses --      1.0995                 1.0878                 1.1019
 Frc consts  --      6.2366                 6.1911                 6.2805
 IR Inten    --     79.3497                40.9821                48.0421

                     73                     74                     75
                      A                      A                      A
 Frequencies --   3156.0866              3502.8771              3728.7058
 Red. masses --      1.0974                 1.0761                 1.0658
 Frc consts  --      6.4406                 7.7797                 8.7302
 IR Inten    --     10.7008                 3.4956                 6.3709

 - Thermochemistry -
 -------------------
 Temperature   298.150 Kelvin.  Pressure   1.00000 Atm.
 Atom     1 has atomic number  6 and mass  12.00000

 Molecular mass:   143.13101 amu.
 Principal axes and moments of inertia in atomic units:
                           1         2         3
     Eigenvalues --   855.935022328.172742805.90721
           X            0.99994   0.01050   0.00397
           Y           -0.01043   0.99979  -0.01741
           Z           -0.00415   0.01737   0.99984
 This molecule is an asymmetric top.
 Rotational symmetry number  1.
 Warning -- assumption of classical behavior for rotation
           may cause significant error
 Rotational temperatures (Kelvin)      0.10119     0.03720     0.03087
 Rotational constants (GHZ):           2.10850     0.77517     0.64319
 Zero-point vibrational energy     649533.6 (Joules/Mol)
                                  155.24226 (Kcal/Mol)
 Warning -- explicit consideration of  16 degrees of freedom as
           vibrations may cause significant error
 Vibrational temperatures:     39.09   121.68   137.42   176.91   279.51
          (Kelvin)            328.44   345.71   367.74   396.30   420.55
                              464.80   553.37   606.41   636.41   708.92
                              824.83   970.37  1187.32  1194.52  1256.67
                             1267.72  1348.48  1360.32  1366.65  1408.23
                             1417.53  1452.98  1480.81  1507.86  1521.31
                             1580.60  1613.96  1633.07  1669.56  1697.85
                             1739.77  1750.40  1777.74  1804.62  1857.56
                             1891.16  1928.72  1965.08  1968.38  2001.04
                             2004.94  2015.87  2046.34  2058.21  2068.89
                             2088.58  2157.18  2187.29  2194.16  2207.72
                             2213.07  2223.45  2250.28  4318.19  4328.90
                             4337.75  4340.47  4364.44  4372.67  4382.26
                             4391.43  4402.75  4449.07  4453.08  4464.26
                             4471.78  4474.95  4540.90  5039.86  5364.78

 Zero-point correction=                           0.247394 (Hartree/Particle)
 Thermal correction to Energy=                    0.258961
 Thermal correction to Enthalpy=                  0.259905
 Thermal correction to Gibbs Free Energy=         0.209683
 Sum of electronic and zero-point Energies=           -444.809595
 Sum of electronic and thermal Energies=              -444.798029
 Sum of electronic and thermal Enthalpies=            -444.797085
 Sum of electronic and thermal Free Energies=         -444.847306

                     E (Thermal)             CV                S
                      KCal/Mol        Cal/Mol-Kelvin    Cal/Mol-Kelvin
 Total                  162.500             43.119            105.700
 Electronic               0.000              0.000              0.000
 Translational            0.889              2.981             40.787
 Rotational               0.889              2.981             30.104
 Vibrational            160.723             37.158             34.810
 Vibration     1          0.593              1.984              6.026
 Vibration     2          0.601              1.960              3.782
 Vibration     3          0.603              1.952              3.544
 Vibration     4          0.610              1.930              3.053
 Vibration     5          0.635              1.848              2.187
 Vibration     6          0.651              1.798              1.892
 Vibration     7          0.657              1.779              1.801
 Vibration     8          0.666              1.753              1.692
 Vibration     9          0.677              1.719              1.562
 Vibration    10          0.688              1.688              1.461
 Vibration    11          0.708              1.629              1.295
 Vibration    12          0.754              1.503              1.021
 Vibration    13          0.784              1.424              0.887
 Vibration    14          0.802              1.378              0.819
 Vibration    15          0.848              1.266              0.677
 Vibration    16          0.930              1.089              0.498

 Optimization completed.
    -- Stationary point found.
 Normal termination of Gaussian 16 at Tue Dec  8 11:04:07 2020.

 ----------------------------------------------------------------------
 # B3LYP/6-311++G(d,p) empiricaldispersion=gd3bj scf=xqc pop=npa geom=c
 heck
 ----------------------------------------------------------------------

 --------------------------------------
 CID_105428567_JID_447_Energie_neutraal
 --------------------------------------
 Structure from the checkpoint file:  "JID_447.chk"
 Charge =  0 Multiplicity = 1

 SCF Done:  E(RB3LYP) =  -445.195655967     A.U. after   13 cycles
 Normal termination of Gaussian 16 at Tue Dec  8 11:07:06 2020.

 ----------------------------------------------------------------------
 # B3LYP/6-311++G(d,p) empiricaldispersion=gd3bj scf=xqc pop=npa geom=c
 heck
 ----------------------------------------------------------------------

 ------------------------------------
 CID_105428567_JID_447_Energie_kation
 ------------------------------------
 Structure from the checkpoint file:  "JID_447.chk"
 Charge =  1 Multiplicity = 2

 SCF Done:  E(UB3LYP) =  -444.876556812     A.U. after   21 cycles
 Normal termination of Gaussian 16 at Tue Dec  8 11:11:05 2020.
 Gaussian 16:  ES64L-G16RevA.03 25-Dec-2016

 ----------------------------------------------------------------------
 # B3LYP/6-311++G(d,p) empiricaldispersion=gd3bj scf=xqc pop=npa geom=c
 heck
 ----------------------------------------------------------------------

 -----------------------------------
 CID_105428567_JID_447_Energie_anion
 -----------------------------------
 Structure from the checkpoint file:  "JID_447.chk"
 Charge = -1 Multiplicity = 2

                         Standard orientation:
 ---------------------------------------------------------------------
 Center     Atomic      Atomic             Coordinates (Angstroms)
 Number     Number       Type             X           Y           Z
 ---------------------------------------------------------------------
      1          6           0       -2.904471    0.816534   -0.185827
      2          6           0       -2.087699   -0.379292    0.321616
      3          6           0       -2.728856   -1.696911   -0.133881
      4          6           0       -0.611744   -0.336338   -0.115241
      5          6           0        0.228630    0.788863    0.503004
      6          6           0        1.745606    0.591294    0.398434
      7          6           0        2.311170   -0.754685    0.920689
      8          7           0        2.416754   -1.232479   -0.478515
      9          6           0        2.304298    0.155419   -0.984077
     10          8           0       -0.110784    2.079052   -0.024620
     11          1           0       -2.916508    0.831022   -1.284554
     12          1           0       -2.483966    1.764648    0.154991
     13          1           0       -3.945057    0.746943    0.152953
     14          1           0       -2.104641   -0.359989    1.422492
     15          1           0       -2.718256   -1.775252   -1.228842
     16          1           0       -2.192627   -2.565246    0.266598
     17          1           0       -3.773227   -1.762300    0.192786
     18          1           0       -0.142402   -1.296085    0.126461
     19          1           0       -0.561157   -0.259341   -1.212759
     20          1           0       -0.017252    0.862935    1.570647
     21          1           0        2.217689    1.483689    0.816709
     22          1           0        3.273426   -0.626093    1.437702
     23          1           0        1.654386   -1.362715    1.556594
     24          1           0        3.284138   -1.711163   -0.710912
     25          1           0        1.649543    0.262172   -1.859481
     26          1           0        3.263802    0.642749   -1.211649
     27          1           0       -0.060488    2.009650   -0.991471
 ---------------------------------------------------------------------

 SCF Done:  E(UB3LYP) =  -445.179899822     A.U. after   27 cycles

 The electronic state is 2-A.
 Alpha  occ. eigenvalues --  -19.01711 -14.18601 -10.11701 -10.08524 -10.08274
 Alpha  occ. eigenvalues --  -10.07411 -10.06657 -10.05912 -10.05872 -10.05210
 Alpha  occ. eigenvalues --   -0.91949  -0.81962  -0.70872  -0.65130  -0.59248
 Alpha  occ. eigenvalues --   -0.58263  -0.56724  -0.52576  -0.46797  -0.43842
 Alpha  occ. eigenvalues --   -0.41002  -0.39342  -0.36897  -0.35805  -0.34296
 Alpha  occ. eigenvalues --   -0.32685  -0.30566  -0.29796  -0.28452  -0.27428
 Alpha  occ. eigenvalues --   -0.26624  -0.26297  -0.25779  -0.24230  -0.22705
 Alpha  occ. eigenvalues --   -0.22461  -0.21487  -0.20356  -0.16534  -0.12210
 Alpha  occ. eigenvalues --    0.04695
 Alpha virt. eigenvalues --    0.06454   0.07293   0.08316   0.08898   0.09393
 Alpha virt. eigenvalues --    0.09525   0.10932   0.11010   0.11629   0.12374
 Alpha virt. eigenvalues --    0.12788   0.12997   0.13747   0.15073   0.15181

  Beta  occ. eigenvalues --  -19.01693 -14.18576 -10.11697 -10.08497 -10.08235
  Beta  occ. eigenvalues --  -10.07404 -10.06651 -10.05891 -10.05857 -10.05191
  Beta  occ. eigenvalues --   -0.91914  -0.81925  -0.70850  -0.65095  -0.59202
  Beta  occ. eigenvalues --   -0.58222  -0.56644  -0.52522  -0.46749  -0.43772
  Beta  occ. eigenvalues --   -0.40906  -0.39299  -0.36868  -0.35782  -0.34261
  Beta  occ. eigenvalues --   -0.32660  -0.30529  -0.29740  -0.28427  -0.27393
  Beta  occ. eigenvalues --   -0.26589  -0.26267  -0.25742  -0.24206  -0.22680
  Beta  occ. eigenvalues --   -0.22422  -0.21453  -0.20323  -0.16514  -0.12165
  Beta virt. eigenvalues --    0.06773   0.07819   0.07987   0.08599   0.09519
  Beta virt. eigenvalues --    0.09905   0.10151   0.11193   0.11302   0.12277
  Beta virt. eigenvalues --    0.12761   0.13095   0.13357   0.13976   0.15263

 Mulliken charges and spin densities:
               1          2
     1  C    0.082385  -0.841622
     2  C   -0.164071   0.709105
     3  C   -0.045048  -0.613393
     4  C   -0.352054   0.009019
     5  C    0.784503  -1.416713
     6  C   -1.679489   2.017554
     7  C    1.371134  -1.903599
     8  N   -0.352510   0.127860
     9  C    1.491362  -1.888386
    10  O   -0.176791   0.012124
    11  H   -0.122511   0.262853
    12  H    0.157663   0.016601
    13  H   -0.133464   0.263018
    14  H    0.036810   0.094587
    15  H   -0.048885   0.179094
    16  H   -0.120361   0.250972
    17  H   -0.160196   0.304955
    18  H    0.306208  -0.163858
    19  H    0.302025  -0.117608
    20  H    0.047514   0.112048
    21  H   -0.117423   0.376615
    22  H   -0.799678   0.938923
    23  H   -0.055781   0.201791
    24  H   -0.050261   0.318010
    25  H   -0.484876   0.631156
    26  H   -0.777067   0.931281
    27  H    0.060863   0.187611
 Sum of Mulliken charges =  -1.00000   1.00000

 Dipole moment (field-independent basis, Debye):
    X=             -5.1178    Y=              0.1773    Z=              1.4732  Tot=              5.3286
 Quadrupole moment (field-independent basis, Debye-Ang):
   XX=           -144.0225   YY=           -101.9225   ZZ=            -95.5781
   XY=             -0.8187   XZ=              0.6010   YZ=              1.3262

 Summary of Natural Population Analysis:

                                       Natural Population
                Natural  -----------------------------------------------
    Atom  No    Charge         Core      Valence    Rydberg      Total
 -----------------------------------------------------------------------
      C    1   -0.28758      0.99965     2.28274    0.00520     3.28758
      C    2   -0.11301      0.99962     2.10292    0.01047     3.11301
      C    3   -0.28100      0.99965     2.27648    0.00486     3.28100
      C    4   -0.20515      0.99958     2.19675    0.00881     3.20515
      C    5    0.06949      0.99952     1.91790    0.01308     2.93051
      C    6   -0.12428      0.99957     2.11138    0.01333     3.12428
      C    7   -0.08195      0.99964     2.07127    0.01104     3.08195
      N    8   -0.34705      0.99976     2.83375    0.01353     3.84705
      C    9   -0.08287      0.99964     2.07132    0.01191     3.08287
      O   10   -0.37403      0.99990     3.36766    0.00647     4.37403
      H   11    0.09419      0.00000     0.40468    0.00113     0.40581
      H   12    0.11003      0.00000     0.38887    0.00110     0.38997
      H   13    0.09399      0.00000     0.40501    0.00100     0.40601
      H   14    0.08833      0.00000     0.40982    0.00185     0.41167
      H   15    0.09614      0.00000     0.40273    0.00113     0.40386
      H   16    0.09834      0.00000     0.40061    0.00105     0.40166
      H   17    0.09665      0.00000     0.40229    0.00105     0.40335
      H   18    0.11099      0.00000     0.38669    0.00232     0.38901
      H   19    0.09604      0.00000     0.40254    0.00142     0.40396
      H   20    0.08328      0.00000     0.41480    0.00192     0.41672
      H   21    0.10405      0.00000     0.39464    0.00131     0.39595
      H   22    0.09045      0.00000     0.40661    0.00293     0.40955
      H   23    0.08531      0.00000     0.41325    0.00144     0.41469
      H   24    0.17590      0.00000     0.32030    0.00380     0.32410
      H   25    0.08597      0.00000     0.41202    0.00201     0.41403
      H   26    0.09106      0.00000     0.40491    0.00403     0.40894
      H   27    0.22668      0.00000     0.27002    0.00330     0.27332
 =======================================================================
   * Total *   -0.00000      9.99654    29.87196    0.13150    40.00000

 Normal termination of Gaussian 16 at Tue Dec  8 11:17:29 2020.
