 Gaussian 16, Revision A.03,

 -----------------------------------------------------------
 # opt freq B3LYP/6-31G(d) empiricaldispersion=gd3bj scf=xqc
 -----------------------------------------------------------

 -------------------------------
 CID_134178272_JID_4344_neutraal
 -------------------------------
 Symbolic Z-matrix:
 Charge =  0 Multiplicity = 1

 SCF Done:  E(RB3LYP) =  -667.902483827     A.U. after   15 cycles
 SCF Done:  E(RB3LYP) =  -667.907846854     A.U. after   13 cycles
 SCF Done:  E(RB3LYP) =  -667.905959503     A.U. after   15 cycles
 SCF Done:  E(RB3LYP) =  -667.903389685     A.U. after   14 cycles
 SCF Done:  E(RB3LYP) =  -667.897517654     A.U. after   14 cycles
 SCF Done:  E(RB3LYP) =  -667.908380905     A.U. after   11 cycles
 SCF Done:  E(RB3LYP) =  -667.910862904     A.U. after   13 cycles
 SCF Done:  E(RB3LYP) =  -667.911560442     A.U. after   13 cycles
 SCF Done:  E(RB3LYP) =  -667.912051375     A.U. after   12 cycles
 SCF Done:  E(RB3LYP) =  -667.912750421     A.U. after   12 cycles
 SCF Done:  E(RB3LYP) =  -667.918414361     A.U. after   11 cycles
 SCF Done:  E(RB3LYP) =  -667.918453286     A.U. after   11 cycles
 SCF Done:  E(RB3LYP) =  -667.918455469     A.U. after    9 cycles
 SCF Done:  E(RB3LYP) =  -667.918456055     A.U. after    8 cycles
 SCF Done:  E(RB3LYP) =  -667.918456169     A.U. after    8 cycles
 Optimization completed.
    -- Stationary point found.
 Normal termination of Gaussian 16 at Thu Dec 10 09:42:12 2020.

 --------------------------------------------------------------------
 #N Geom=AllCheck Guess=TCheck SCRF=Check GenChk RB3LYP/6-31G(d) Freq
 --------------------------------------------------------------------

 Structure from the checkpoint file:  "JID_4344.chk"
 -------------------------------
 CID_134178272_JID_4344_neutraal
 -------------------------------
 Charge =  0 Multiplicity = 1

 SCF Done:  E(RB3LYP) =  -667.918456168     A.U. after    1 cycles

  Exact polarizability: 145.798 -16.451 103.047  -3.196   1.404 102.165
 Approx polarizability: 208.132 -30.003 145.339 -14.403   7.810 164.338

                      1                      2                      3
                      A                      A                      A
 Frequencies --     36.5028                55.6657                62.5647
 Red. masses --      4.6553                 5.7265                 4.2094
 Frc consts  --      0.0037                 0.0105                 0.0097
 IR Inten    --      0.3468                 1.5090                 0.8360

                      4                      5                      6
                      A                      A                      A
 Frequencies --     76.4134               100.5160               109.1886
 Red. masses --      4.3454                 2.4991                 3.5612
 Frc consts  --      0.0149                 0.0149                 0.0250
 IR Inten    --      0.8525                 0.0073                 0.6091

                      7                      8                      9
                      A                      A                      A
 Frequencies --    145.4678               161.4387               206.0097
 Red. masses --      3.9721                 4.9522                 1.5962
 Frc consts  --      0.0495                 0.0760                 0.0399
 IR Inten    --      2.4401                 0.4174                 0.4915

                     10                     11                     12
                      A                      A                      A
 Frequencies --    218.9258               234.1535               253.3209
 Red. masses --      1.2835                 1.9999                 3.1922
 Frc consts  --      0.0362                 0.0646                 0.1207
 IR Inten    --      0.2398                 0.2820                 5.4849

                     13                     14                     15
                      A                      A                      A
 Frequencies --    276.8774               291.2439               336.6612
 Red. masses --      1.6552                 1.4161                 3.0602
 Frc consts  --      0.0748                 0.0708                 0.2044
 IR Inten    --      5.6601                11.7554                13.6488

                     16                     17                     18
                      A                      A                      A
 Frequencies --    348.8158               360.4027               387.9652
 Red. masses --      2.5235                 3.6698                 2.8606
 Frc consts  --      0.1809                 0.2808                 0.2537
 IR Inten    --      0.5272                 6.3076                12.8742

                     19                     20                     21
                      A                      A                      A
 Frequencies --    418.7408               449.2331               450.8791
 Red. masses --      2.5533                 2.6946                 3.7589
 Frc consts  --      0.2638                 0.3204                 0.4502
 IR Inten    --      1.4697                 6.7459                 7.3824

                     22                     23                     24
                      A                      A                      A
 Frequencies --    478.2252               536.4264               605.0073
 Red. masses --      2.8022                 1.9096                 1.9290
 Frc consts  --      0.3776                 0.3237                 0.4160
 IR Inten    --     15.6317                 7.7159                36.3393

                     25                     26                     27
                      A                      A                      A
 Frequencies --    607.3605               652.2706               691.9983
 Red. masses --      1.7529                 1.5880                 1.8550
 Frc consts  --      0.3810                 0.3981                 0.5234
 IR Inten    --     18.7174               172.9305                 0.3790

                     28                     29                     30
                      A                      A                      A
 Frequencies --    717.3153               732.1586               804.9561
 Red. masses --      5.8533                 3.8705                 6.5705
 Frc consts  --      1.7745                 1.2224                 2.5084
 IR Inten    --     41.4046                15.6206                 2.0503

                     31                     32                     33
                      A                      A                      A
 Frequencies --    816.2657               889.3121               928.5645
 Red. masses --      2.7575                 1.7630                 1.5480
 Frc consts  --      1.0825                 0.8215                 0.7864
 IR Inten    --      1.1783                 9.3364                27.2566

                     34                     35                     36
                      A                      A                      A
 Frequencies --    936.6699               948.2764               975.1140
 Red. masses --      1.6619                 1.5934                 1.6896
 Frc consts  --      0.8591                 0.8442                 0.9466
 IR Inten    --     26.9891                 9.0528                32.4464

                     37                     38                     39
                      A                      A                      A
 Frequencies --   1002.5747              1009.9391              1037.1780
 Red. masses --      1.5130                 1.5834                 1.1639
 Frc consts  --      0.8960                 0.9516                 0.7377
 IR Inten    --    175.2325                60.1495                22.8911

                     40                     41                     42
                      A                      A                      A
 Frequencies --   1055.0132              1086.5700              1127.0036
 Red. masses --      1.3753                 2.5902                 1.9640
 Frc consts  --      0.9019                 1.8018                 1.4698
 IR Inten    --      1.7400                11.1417                 0.2789

                     43                     44                     45
                      A                      A                      A
 Frequencies --   1163.4672              1192.4759              1205.2834
 Red. masses --      1.9707                 2.3154                 2.2633
 Frc consts  --      1.5717                 1.9399                 1.9372
 IR Inten    --     22.7499                13.8141                 0.9234

                     46                     47                     48
                      A                      A                      A
 Frequencies --   1241.0401              1269.4431              1308.1446
 Red. masses --      2.3629                 1.3329                 1.3230
 Frc consts  --      2.1442                 1.2655                 1.3339
 IR Inten    --      6.3161                 1.3332                 2.7329

                     49                     50                     51
                      A                      A                      A
 Frequencies --   1332.5606              1339.0264              1347.4498
 Red. masses --      1.3387                 2.6340                 1.3748
 Frc consts  --      1.4006                 2.7825                 1.4707
 IR Inten    --      4.0058               234.4077                 9.7754

                     52                     53                     54
                      A                      A                      A
 Frequencies --   1373.6148              1382.9221              1389.5255
 Red. masses --      1.3179                 1.1992                 1.3372
 Frc consts  --      1.4651                 1.3513                 1.5212
 IR Inten    --      0.4783                 5.0345                11.0612

                     55                     56                     57
                      A                      A                      A
 Frequencies --   1403.6579              1434.4592              1445.1513
 Red. masses --      1.4351                 1.2623                 1.2292
 Frc consts  --      1.6659                 1.5303                 1.5125
 IR Inten    --      1.6263                 8.4062                 6.3460

                     58                     59                     60
                      A                      A                      A
 Frequencies --   1455.4869              1474.0659              1478.9684
 Red. masses --      1.4577                 2.4005                 1.1826
 Frc consts  --      1.8194                 3.0732                 1.5241
 IR Inten    --     10.1028                15.4635                 2.3793

                     61                     62                     63
                      A                      A                      A
 Frequencies --   1501.4656              1512.8328              1524.4628
 Red. masses --      1.8424                 1.1149                 1.1973
 Frc consts  --      2.4472                 1.5034                 1.6395
 IR Inten    --     25.2108                 7.1860                11.2424

                     64                     65                     66
                      A                      A                      A
 Frequencies --   1528.2768              1534.4145              1546.1429
 Red. masses --      1.0877                 1.0524                 1.0477
 Frc consts  --      1.4968                 1.4599                 1.4757
 IR Inten    --      5.5539                 8.6224                 1.5295

                     67                     68                     69
                      A                      A                      A
 Frequencies --   1730.3665              1738.7198              1747.0515
 Red. masses --      4.1679                 2.2757                 1.7037
 Frc consts  --      7.3526                 4.0535                 3.0637
 IR Inten    --      2.5450               316.9470               287.6683

                     70                     71                     72
                      A                      A                      A
 Frequencies --   1766.2155              3001.2056              3031.6925
 Red. masses --      7.0464                 1.0824                 1.0686
 Frc consts  --     12.9511                 5.7441                 5.7866
 IR Inten    --     87.9135                27.5213                34.9154

                     73                     74                     75
                      A                      A                      A
 Frequencies --   3051.8593              3054.6460              3092.0802
 Red. masses --      1.0411                 1.0389                 1.0942
 Frc consts  --      5.7130                 5.7116                 6.1639
 IR Inten    --     23.0464                23.5898                18.8318

                     76                     77                     78
                      A                      A                      A
 Frequencies --   3115.3314              3121.7683              3136.4561
 Red. masses --      1.1018                 1.0954                 1.0980
 Frc consts  --      6.3004                 6.2899                 6.3641
 IR Inten    --     33.6418                18.0168                29.6005

                     79                     80                     81
                      A                      A                      A
 Frequencies --   3148.1990              3151.5471              3157.4149
 Red. masses --      1.0606                 1.0863                 1.0900
 Frc consts  --      6.1932                 6.3571                 6.4026
 IR Inten    --     13.8209                13.6880                10.6107

                     82                     83                     84
                      A                      A                      A
 Frequencies --   3159.6001              3234.4042              3446.6405
 Red. masses --      1.1011                 1.1152                 1.0479
 Frc consts  --      6.4767                 6.8735                 7.3347
 IR Inten    --     11.1061                16.1782                18.3774

                     85                     86                     87
                      A                      A                      A
 Frequencies --   3532.3597              3563.3576              3587.2688
 Red. masses --      1.0942                 1.0750                 1.0770
 Frc consts  --      8.0439                 8.0423                 8.1655
 IR Inten    --     23.5954                16.6903                41.0870

 - Thermochemistry -
 -------------------
 Temperature   298.150 Kelvin.  Pressure   1.00000 Atm.
 Atom     1 has atomic number  6 and mass  12.00000

 Molecular mass:   199.13208 amu.
 Principal axes and moments of inertia in atomic units:
                           1         2         3
     Eigenvalues --  1854.134053569.763164269.46465
           X            0.99965  -0.02626  -0.00294
           Y            0.02626   0.99965  -0.00088
           Z            0.00297   0.00080   1.00000
 This molecule is an asymmetric top.
 Rotational symmetry number  1.
 Warning -- assumption of classical behavior for rotation
           may cause significant error
 Rotational temperatures (Kelvin)      0.04671     0.02426     0.02029
 Rotational constants (GHZ):           0.97336     0.50556     0.42271
 Zero-point vibrational energy     703235.0 (Joules/Mol)
                                  168.07720 (Kcal/Mol)
 Warning -- explicit consideration of  25 degrees of freedom as
           vibrations may cause significant error
 Vibrational temperatures:     52.52    80.09    90.02   109.94   144.62
          (Kelvin)            157.10   209.30   232.27   296.40   314.99
                              336.89   364.47   398.36   419.03   484.38
                              501.87   518.54   558.20   602.47   646.35
                              648.71   688.06   771.80   870.47   873.86
                              938.47   995.63  1032.06  1053.41  1158.15
                             1174.42  1279.52  1336.00  1347.66  1364.36
                             1402.97  1442.48  1453.08  1492.27  1517.93
                             1563.33  1621.51  1673.97  1715.71  1734.13
                             1785.58  1826.45  1882.13  1917.26  1926.56
                             1938.68  1976.33  1989.72  1999.22  2019.55
                             2063.87  2079.25  2094.12  2120.85  2127.91
                             2160.27  2176.63  2193.36  2198.85  2207.68
                             2224.55  2489.61  2501.63  2513.62  2541.19
                             4318.07  4361.93  4390.94  4394.95  4448.81
                             4482.27  4491.53  4512.66  4529.56  4534.37
                             4542.82  4545.96  4653.59  4958.95  5082.28
                             5126.88  5161.28

 Zero-point correction=                           0.267848 (Hartree/Particle)
 Thermal correction to Energy=                    0.283859
 Thermal correction to Enthalpy=                  0.284803
 Thermal correction to Gibbs Free Energy=         0.224506
 Sum of electronic and zero-point Energies=           -667.650608
 Sum of electronic and thermal Energies=              -667.634597
 Sum of electronic and thermal Enthalpies=            -667.633653
 Sum of electronic and thermal Free Energies=         -667.693950

                     E (Thermal)             CV                S
                      KCal/Mol        Cal/Mol-Kelvin    Cal/Mol-Kelvin
 Total                  178.124             58.780            126.906
 Electronic               0.000              0.000              0.000
 Translational            0.889              2.981             41.771
 Rotational               0.889              2.981             31.714
 Vibrational            176.347             52.818             53.421
 Vibration     1          0.594              1.982              5.440
 Vibration     2          0.596              1.975              4.605
 Vibration     3          0.597              1.972              4.375
 Vibration     4          0.599              1.965              3.981
 Vibration     5          0.604              1.949              3.444
 Vibration     6          0.606              1.942              3.283
 Vibration     7          0.617              1.908              2.731
 Vibration     8          0.622              1.890              2.533
 Vibration     9          0.640              1.831              2.079
 Vibration    10          0.647              1.812              1.968
 Vibration    11          0.654              1.789              1.847
 Vibration    12          0.664              1.757              1.707
 Vibration    13          0.678              1.716              1.553
 Vibration    14          0.687              1.690              1.467
 Vibration    15          0.717              1.602              1.228
 Vibration    16          0.726              1.578              1.172
 Vibration    17          0.735              1.554              1.120
 Vibration    18          0.756              1.496              1.008
 Vibration    19          0.782              1.430              0.896
 Vibration    20          0.808              1.363              0.798
 Vibration    21          0.810              1.359              0.793
 Vibration    22          0.835              1.298              0.715
 Vibration    23          0.891              1.169              0.573
 Vibration    24          0.964              1.021              0.441
 Vibration    25          0.966              1.016              0.437

 Optimization completed.
    -- Stationary point found.
 Normal termination of Gaussian 16 at Thu Dec 10 09:52:46 2020.

 ----------------------------------------------------------------------
 # B3LYP/6-311++G(d,p) empiricaldispersion=gd3bj scf=xqc pop=npa geom=c
 heck
 ----------------------------------------------------------------------

 ---------------------------------------
 CID_134178272_JID_4344_Energie_neutraal
 ---------------------------------------
 Structure from the checkpoint file:  "JID_4344.chk"
 Charge =  0 Multiplicity = 1

 SCF Done:  E(RB3LYP) =  -668.126318799     A.U. after   15 cycles
 Normal termination of Gaussian 16 at Thu Dec 10 09:57:43 2020.

 ----------------------------------------------------------------------
 # B3LYP/6-311++G(d,p) empiricaldispersion=gd3bj scf=xqc pop=npa geom=c
 heck
 ----------------------------------------------------------------------

 -------------------------------------
 CID_134178272_JID_4344_Energie_kation
 -------------------------------------
 Structure from the checkpoint file:  "JID_4344.chk"
 Charge =  1 Multiplicity = 2

 SCF Done:  E(UB3LYP) =  -667.805908700     A.U. after   29 cycles
 Normal termination of Gaussian 16 at Thu Dec 10 10:11:55 2020.
 Gaussian 16:  ES64L-G16RevA.03 25-Dec-2016

 ----------------------------------------------------------------------
 # B3LYP/6-311++G(d,p) empiricaldispersion=gd3bj scf=xqc pop=npa geom=c
 heck
 ----------------------------------------------------------------------

 ------------------------------------
 CID_134178272_JID_4344_Energie_anion
 ------------------------------------
 Structure from the checkpoint file:  "JID_4344.chk"
 Charge = -1 Multiplicity = 2

                         Standard orientation:
 ---------------------------------------------------------------------
 Center     Atomic      Atomic             Coordinates (Angstroms)
 Number     Number       Type             X           Y           Z
 ---------------------------------------------------------------------
      1          6           0        3.504499    0.195199   -0.635762
      2          6           0        2.382246    0.140572    0.410382
      3          6           0        1.805859    1.550976    0.696498
      4          6           0        1.002144    2.125600   -0.436625
      5          6           0       -0.277638    2.488873   -0.342359
      6          6           0        1.274154   -0.849702   -0.008568
      7          6           0        1.757082   -2.289433   -0.199912
      8          7           0        0.197736   -0.815548    0.989297
      9          6           0       -1.136606   -0.682435    0.825746
     10          8           0       -1.914932   -0.607916    1.780356
     11          6           0       -1.667882   -0.731031   -0.617518
     12          8           0       -1.195593   -1.504107   -1.447144
     13          7           0       -2.743044    0.052386   -0.893950
     14          7           0       -3.481155    0.877671   -0.017647
     15          1           0        3.112611    0.439373   -1.630121
     16          1           0        4.033345   -0.758528   -0.713964
     17          1           0        4.240946    0.961000   -0.368775
     18          1           0        2.821689   -0.221811    1.353212
     19          1           0        1.179988    1.521002    1.594526
     20          1           0        2.650381    2.217414    0.923169
     21          1           0        1.514136    2.241842   -1.391905
     22          1           0       -0.824113    2.900195   -1.186450
     23          1           0       -0.818755    2.395280    0.597582
     24          1           0        0.840543   -0.503629   -0.946513
     25          1           0        2.209174   -2.680459    0.720303
     26          1           0        0.903986   -2.914828   -0.471633
     27          1           0        2.498756   -2.357301   -1.000945
     28          1           0        0.467436   -0.882724    1.965473
     29          1           0       -3.176264   -0.117755   -1.793871
     30          1           0       -3.480132    0.412463    0.890128
     31          1           0       -2.967423    1.751389    0.098894
 ---------------------------------------------------------------------

 SCF Done:  E(UB3LYP) =  -668.118480040     A.U. after   33 cycles
 SCF Done:  E(UB3LYP) =  -668.118480040     a.u. after    1 cycles

 The electronic state is 2-A.
 Alpha  occ. eigenvalues --  -18.96907 -18.96750 -14.24259 -14.22625 -14.21567
 Alpha  occ. eigenvalues --  -10.14580 -10.14456 -10.09859 -10.07263 -10.06644
 Alpha  occ. eigenvalues --  -10.06086 -10.05766 -10.05537 -10.05273  -0.93535
 Alpha  occ. eigenvalues --   -0.90788  -0.86438  -0.81035  -0.71103  -0.68703
 Alpha  occ. eigenvalues --   -0.66751  -0.62461  -0.57791  -0.55252  -0.53338
 Alpha  occ. eigenvalues --   -0.48249  -0.47316  -0.44161  -0.41597  -0.39434
 Alpha  occ. eigenvalues --   -0.38757  -0.37445  -0.35717  -0.34478  -0.33105
 Alpha  occ. eigenvalues --   -0.32741  -0.32089  -0.30848  -0.29926  -0.29267
 Alpha  occ. eigenvalues --   -0.28272  -0.27515  -0.26951  -0.25861  -0.25048
 Alpha  occ. eigenvalues --   -0.23236  -0.22952  -0.21396  -0.19346  -0.17988
 Alpha  occ. eigenvalues --   -0.15859  -0.14247  -0.14036  -0.11887   0.04879
 Alpha virt. eigenvalues --    0.06574   0.08112   0.08317   0.08746   0.09798
 Alpha virt. eigenvalues --    0.10256   0.10456   0.10852   0.11179   0.11848
 Alpha virt. eigenvalues --    0.12777   0.12962   0.13745   0.13957   0.14896

  Beta  occ. eigenvalues --  -18.96753 -18.96563 -14.24199 -14.22631 -14.21495
  Beta  occ. eigenvalues --  -10.14406 -10.14277 -10.09861 -10.07243 -10.06567
  Beta  occ. eigenvalues --  -10.06069 -10.05762 -10.05504 -10.05265  -0.93205
  Beta  occ. eigenvalues --   -0.90491  -0.86298  -0.80871  -0.71018  -0.68590
  Beta  occ. eigenvalues --   -0.66663  -0.62414  -0.57705  -0.54782  -0.53228
  Beta  occ. eigenvalues --   -0.48158  -0.47148  -0.44058  -0.41488  -0.39341
  Beta  occ. eigenvalues --   -0.38664  -0.37341  -0.35479  -0.34347  -0.32995
  Beta  occ. eigenvalues --   -0.32490  -0.32008  -0.30623  -0.29561  -0.28960
  Beta  occ. eigenvalues --   -0.28108  -0.27400  -0.26873  -0.25265  -0.24941
  Beta  occ. eigenvalues --   -0.23113  -0.22853  -0.21314  -0.19173  -0.17779
  Beta  occ. eigenvalues --   -0.15577  -0.13710  -0.13481  -0.11661
  Beta virt. eigenvalues --    0.07427   0.08154   0.08615   0.08953   0.09541
  Beta virt. eigenvalues --    0.10195   0.10347   0.10639   0.11118   0.11461
  Beta virt. eigenvalues --    0.12078   0.13076   0.13179   0.13766   0.14108

 Mulliken charges and spin densities:
               1          2
     1  C    0.949637  -1.678700
     2  C   -1.620647   1.723195
     3  C    0.718988  -1.155754
     4  C   -0.752575   1.040256
     5  C   -0.076895  -0.545098
     6  C    1.029883  -1.087940
     7  C    0.280962  -0.750524
     8  N   -0.165097   0.099172
     9  C   -0.054352   0.069165
    10  O   -0.392388   0.055790
    11  C   -0.019876   0.144171
    12  O   -0.326189   0.057600
    13  N   -0.200601   0.019280
    14  N   -0.428758  -0.003738
    15  H    0.050527   0.105331
    16  H   -0.099143   0.229129
    17  H   -0.529721   0.689970
    18  H   -0.507047   0.698048
    19  H   -0.019962   0.130470
    20  H   -0.526634   0.733799
    21  H   -0.032110   0.179446
    22  H    0.075967   0.039291
    23  H    0.013232   0.128555
    24  H    0.193443  -0.003255
    25  H    0.054348   0.080066
    26  H    0.208101  -0.027445
    27  H    0.112226   0.008249
    28  H    0.276050   0.016538
    29  H    0.301747   0.000478
    30  H    0.253194   0.011194
    31  H    0.233691  -0.006739
 Sum of Mulliken charges =  -1.00000   1.00000

 Dipole moment (field-independent basis, Debye):
    X=             -3.6104    Y=             -1.0067    Z=             -2.1472  Tot=              4.3196
 Quadrupole moment (field-independent basis, Debye-Ang):
   XX=           -153.1453   YY=           -117.2406   ZZ=           -113.2773
   XY=            -13.7543   XZ=             -3.8246   YZ=             -5.5620

 Summary of Natural Population Analysis:

                                       Natural Population
                Natural  -----------------------------------------------
    Atom  No    Charge         Core      Valence    Rydberg      Total
 -----------------------------------------------------------------------
      C    1   -0.28600      0.99964     2.28008    0.00628     3.28600
      C    2   -0.10871      0.99958     2.09641    0.01273     3.10871
      C    3   -0.20924      0.99959     2.19725    0.01240     3.20924
      C    4   -0.06975      0.99955     2.05951    0.01069     3.06975
      C    5   -0.20028      0.99955     2.19378    0.00695     3.20028
      C    6   -0.01710      0.99956     2.00539    0.01215     3.01710
      C    7   -0.28638      0.99964     2.28140    0.00535     3.28638
      N    8   -0.30054      0.99966     2.79037    0.01051     3.80054
      C    9    0.32909      0.99964     1.64665    0.02462     2.67091
      O   10   -0.33003      0.99988     3.32473    0.00543     4.33003
      C   11    0.32285      0.99963     1.65484    0.02268     2.67715
      O   12   -0.31117      0.99988     3.30512    0.00617     4.31117
      N   13   -0.22616      0.99966     2.71250    0.01400     3.72616
      N   14   -0.32642      0.99977     2.81619    0.01045     3.82642
      H   15    0.09575      0.00000     0.40315    0.00110     0.40425
      H   16    0.09978      0.00000     0.39927    0.00095     0.40022
      H   17    0.10361      0.00000     0.39483    0.00156     0.39639
      H   18    0.09536      0.00000     0.40207    0.00257     0.40464
      H   19    0.10250      0.00000     0.39578    0.00172     0.39750
      H   20    0.10774      0.00000     0.38968    0.00258     0.39226
      H   21    0.08988      0.00000     0.40896    0.00115     0.41012
      H   22    0.09138      0.00000     0.40762    0.00101     0.40862
      H   23    0.08967      0.00000     0.40868    0.00165     0.41033
      H   24    0.11201      0.00000     0.38526    0.00273     0.38799
      H   25    0.09256      0.00000     0.40663    0.00081     0.40744
      H   26    0.11168      0.00000     0.38742    0.00090     0.38832
      H   27    0.09715      0.00000     0.40220    0.00065     0.40285
      H   28    0.18778      0.00000     0.30997    0.00225     0.31222
      H   29    0.18291      0.00000     0.31504    0.00205     0.31709
      H   30    0.19215      0.00000     0.30570    0.00215     0.30785
      H   31    0.16794      0.00000     0.32925    0.00280     0.33206
 =======================================================================
   * Total *   -0.00000     13.99524    39.81573    0.18903    54.00000

 Normal termination of Gaussian 16 at Thu Dec 10 10:28:08 2020.
