 Gaussian 16, Revision A.03,

 -----------------------------------------------------------
 # opt freq B3LYP/6-31G(d) empiricaldispersion=gd3bj scf=xqc
 -----------------------------------------------------------

 ------------------------------
 CID_54877029_JID_9116_neutraal
 ------------------------------
 Symbolic Z-matrix:
 Charge =  0 Multiplicity = 1

 SCF Done:  E(RB3LYP) =  -1597.23953869     A.U. after   15 cycles
 SCF Done:  E(RB3LYP) =  -1597.25007826     A.U. after   13 cycles
 SCF Done:  E(RB3LYP) =  -1597.25157174     A.U. after   12 cycles
 SCF Done:  E(RB3LYP) =  -1597.25138148     A.U. after   12 cycles
 SCF Done:  E(RB3LYP) =  -1597.25169087     A.U. after   12 cycles
 SCF Done:  E(RB3LYP) =  -1597.25185164     A.U. after   11 cycles
 SCF Done:  E(RB3LYP) =  -1597.25187472     A.U. after   11 cycles
 SCF Done:  E(RB3LYP) =  -1597.25189272     A.U. after   11 cycles
 SCF Done:  E(RB3LYP) =  -1597.25190894     A.U. after   12 cycles
 SCF Done:  E(RB3LYP) =  -1597.25192776     A.U. after   11 cycles
 SCF Done:  E(RB3LYP) =  -1597.25193933     A.U. after    8 cycles
 SCF Done:  E(RB3LYP) =  -1597.25193954     A.U. after    8 cycles
 SCF Done:  E(RB3LYP) =  -1597.25193959     A.U. after    8 cycles
 SCF Done:  E(RB3LYP) =  -1597.25193966     A.U. after    8 cycles
 SCF Done:  E(RB3LYP) =  -1597.25193967     A.U. after    7 cycles
 Optimization completed.
    -- Stationary point found.
 Normal termination of Gaussian 16 at Mon Dec 14 16:49:42 2020.

 --------------------------------------------------------------------
 #N Geom=AllCheck Guess=TCheck SCRF=Check GenChk RB3LYP/6-31G(d) Freq
 --------------------------------------------------------------------

 Structure from the checkpoint file:  "JID_9116.chk"
 ------------------------------
 CID_54877029_JID_9116_neutraal
 ------------------------------
 Charge =  0 Multiplicity = 1

 SCF Done:  E(RB3LYP) =  -1597.25193967     A.U. after    1 cycles

  Exact polarizability: 238.378  12.576 154.816  16.986  -5.870 131.769
 Approx polarizability: 331.287  31.110 275.610  35.088 -18.870 235.530

                      1                      2                      3
                      A                      A                      A
 Frequencies --     22.0856                27.5575                37.4589
 Red. masses --      6.6248                 4.7678                 6.3825
 Frc consts  --      0.0019                 0.0021                 0.0053
 IR Inten    --      0.2226                 0.4542                 1.1689

                      4                      5                      6
                      A                      A                      A
 Frequencies --     44.6793                78.9333               105.6985
 Red. masses --      7.9630                 5.8360                 4.1712
 Frc consts  --      0.0094                 0.0214                 0.0275
 IR Inten    --      0.6624                 2.4367                 1.4235

                      7                      8                      9
                      A                      A                      A
 Frequencies --    143.7295               169.4880               201.3539
 Red. masses --      5.9726                 8.0757                 5.0877
 Frc consts  --      0.0727                 0.1367                 0.1215
 IR Inten    --      7.1162                 4.8482                 0.4649

                     10                     11                     12
                      A                      A                      A
 Frequencies --    204.3450               213.9771               231.7633
 Red. masses --      3.7423                 2.5619                 1.2073
 Frc consts  --      0.0921                 0.0691                 0.0382
 IR Inten    --      0.9467                 0.9143                 0.1781

                     13                     14                     15
                      A                      A                      A
 Frequencies --    249.4440               265.8169               276.2290
 Red. masses --      1.6445                 4.0079                 3.0316
 Frc consts  --      0.0603                 0.1669                 0.1363
 IR Inten    --      0.2500                 3.6120                 1.9620

                     16                     17                     18
                      A                      A                      A
 Frequencies --    315.4753               318.0053               353.1185
 Red. masses --      3.4813                 5.9337                 5.8681
 Frc consts  --      0.2041                 0.3535                 0.4311
 IR Inten    --      0.9895                 0.7424                 1.5303

                     19                     20                     21
                      A                      A                      A
 Frequencies --    396.0746               417.4162               430.3733
 Red. masses --      3.5380                 5.2873                 6.7873
 Frc consts  --      0.3270                 0.5428                 0.7407
 IR Inten    --      3.2787                 3.3337                 3.5050

                     22                     23                     24
                      A                      A                      A
 Frequencies --    462.8770               480.2440               492.7029
 Red. masses --      4.6477                 4.9995                 3.0255
 Frc consts  --      0.5867                 0.6794                 0.4327
 IR Inten    --      1.7394                 3.5669                20.7525

                     25                     26                     27
                      A                      A                      A
 Frequencies --    529.1611               536.0956               553.4965
 Red. masses --      5.7065                 4.3011                 5.6087
 Frc consts  --      0.9414                 0.7283                 1.0124
 IR Inten    --     97.6028                17.4333                29.1528

                     28                     29                     30
                      A                      A                      A
 Frequencies --    583.4819               633.8541               634.8014
 Red. masses --      3.9685                 6.6416                 6.8471
 Frc consts  --      0.7960                 1.5722                 1.6257
 IR Inten    --     28.2915                10.3275                 9.5758

                     31                     32                     33
                      A                      A                      A
 Frequencies --    639.8953               704.7445               710.0732
 Red. masses --      6.5543                 1.3985                 2.3552
 Frc consts  --      1.5812                 0.4092                 0.6997
 IR Inten    --     45.0064               142.9754                62.7869

                     34                     35                     36
                      A                      A                      A
 Frequencies --    718.5880               750.2886               751.5122
 Red. masses --      2.2935                 3.6772                 2.9954
 Frc consts  --      0.6978                 1.2196                 0.9967
 IR Inten    --     48.7337                21.2992                32.9746

                     37                     38                     39
                      A                      A                      A
 Frequencies --    753.2991               818.3947               847.0138
 Red. masses --      2.9402                 5.3031                 1.7265
 Frc consts  --      0.9830                 2.0927                 0.7298
 IR Inten    --     12.4132                12.7150                26.1117

                     40                     41                     42
                      A                      A                      A
 Frequencies --    848.2587               859.3848               874.7281
 Red. masses --      1.3965                 3.2307                 3.1640
 Frc consts  --      0.5920                 1.4058                 1.4264
 IR Inten    --     43.9023                93.7038                85.9312

                     43                     44                     45
                      A                      A                      A
 Frequencies --    916.0451               916.1640              1004.4161
 Red. masses --      1.3491                 1.3487                 3.6208
 Frc consts  --      0.6670                 0.6670                 2.1522
 IR Inten    --      0.9147                 3.1810                 7.2238

                     46                     47                     48
                      A                      A                      A
 Frequencies --   1012.7252              1020.6438              1054.0510
 Red. masses --      1.2735                 3.0194                 1.7152
 Frc consts  --      0.7696                 1.8532                 1.1227
 IR Inten    --      0.2646                14.3114                14.5224

                     49                     50                     51
                      A                      A                      A
 Frequencies --   1086.9931              1091.0503              1102.2517
 Red. masses --      2.1524                 4.3434                 2.4004
 Frc consts  --      1.4984                 3.0463                 1.7183
 IR Inten    --     32.5041                66.6291                12.8468

                     52                     53                     54
                      A                      A                      A
 Frequencies --   1113.7055              1134.7353              1138.3830
 Red. masses --      1.3390                 1.7345                 1.6965
 Frc consts  --      0.9785                 1.3159                 1.2954
 IR Inten    --      8.7515                18.3065                24.8328

                     55                     56                     57
                      A                      A                      A
 Frequencies --   1151.5099              1163.8843              1188.9597
 Red. masses --      3.0896                 1.5486                 2.7004
 Frc consts  --      2.4138                 1.2360                 2.2491
 IR Inten    --    230.4460                16.3247                24.5721

                     58                     59                     60
                      A                      A                      A
 Frequencies --   1229.7349              1232.0948              1242.9444
 Red. masses --      1.8595                 1.7044                 1.6750
 Frc consts  --      1.6568                 1.5244                 1.5246
 IR Inten    --     27.7854                 2.4542                44.0254

                     61                     62                     63
                      A                      A                      A
 Frequencies --   1277.9655              1316.1957              1358.9845
 Red. masses --      1.4643                14.9076                 1.5580
 Frc consts  --      1.4090                15.2160                 1.6953
 IR Inten    --     41.1960               129.5448                 5.4056

                     64                     65                     66
                      A                      A                      A
 Frequencies --   1368.3085              1398.0330              1415.7072
 Red. masses --      1.6916                 1.3113                 1.6506
 Frc consts  --      1.8660                 1.5101                 1.9491
 IR Inten    --     15.1077                10.9607                 6.0607

                     67                     68                     69
                      A                      A                      A
 Frequencies --   1436.3019              1463.2746              1483.8410
 Red. masses --      1.2625                 2.1103                 1.1665
 Frc consts  --      1.5345                 2.6622                 1.5133
 IR Inten    --      8.8356                 7.4232                 2.7006

                     70                     71                     72
                      A                      A                      A
 Frequencies --   1489.1730              1494.3506              1514.3758
 Red. masses --      2.7969                 5.6339                 1.0655
 Frc consts  --      3.6545                 7.4125                 1.4397
 IR Inten    --      7.5366                 5.8594                 3.5267

                     73                     74                     75
                      A                      A                      A
 Frequencies --   1521.8415              1535.3735              1543.3025
 Red. masses --      1.0448                 1.0491                 1.0490
 Frc consts  --      1.4257                 1.4571                 1.4720
 IR Inten    --      7.9177                 9.1296                 4.3640

                     76                     77                     78
                      A                      A                      A
 Frequencies --   1597.9683              1602.9210              1672.8870
 Red. masses --      5.1737                 5.0516                 5.3247
 Frc consts  --      7.7838                 7.6472                 8.7796
 IR Inten    --     55.3047                 0.7855                52.7156

                     79                     80                     81
                      A                      A                      A
 Frequencies --   1806.0252              3053.5350              3064.3239
 Red. masses --      8.6478                 1.0384                 1.0774
 Frc consts  --     16.6189                 5.7043                 5.9609
 IR Inten    --    684.7615                15.1489                16.4470

                     82                     83                     84
                      A                      A                      A
 Frequencies --   3072.9618              3128.9368              3136.3672
 Red. masses --      1.0424                 1.1023                 1.1033
 Frc consts  --      5.7994                 6.3581                 6.3944
 IR Inten    --     25.1809                14.4664                28.9346

                     85                     86                     87
                      A                      A                      A
 Frequencies --   3148.5647              3191.2064              3219.9846
 Red. masses --      1.1033                 1.0984                 1.0892
 Frc consts  --      6.4440                 6.5905                 6.6537
 IR Inten    --     19.4076                 4.4928                 0.3890

                     88                     89                     90
                      A                      A                      A
 Frequencies --   3225.0511              3241.6502              3242.9595
 Red. masses --      1.0897                 1.0943                 1.0943
 Frc consts  --      6.6780                 6.7750                 6.7803
 IR Inten    --      8.4640                 0.7338                 1.7561

                     91                     92                     93
                      A                      A                      A
 Frequencies --   3253.1970              3273.0490              3590.6817
 Red. masses --      1.0941                 1.0973                 1.0781
 Frc consts  --      6.8225                 6.9258                 8.1899
 IR Inten    --      0.5545                 1.1124                66.2562

 - Thermochemistry -
 -------------------
 Temperature   298.150 Kelvin.  Pressure   1.00000 Atm.
 Atom     1 has atomic number  6 and mass  12.00000

 Molecular mass:   298.04459 amu.
 Principal axes and moments of inertia in atomic units:
                           1         2         3
     Eigenvalues --  2036.22419********************
           X            0.99999  -0.00385   0.00357
           Y            0.00378   0.99982   0.01871
           Z           -0.00364  -0.01869   0.99982
 This molecule is an asymmetric top.
 Rotational symmetry number  1.
 Warning -- assumption of classical behavior for rotation
           may cause significant error
 Rotational temperatures (Kelvin)      0.04254     0.00794     0.00774
 Rotational constants (GHZ):           0.88632     0.16554     0.16119
 Zero-point vibrational energy     667668.8 (Joules/Mol)
                                  159.57668 (Kcal/Mol)
 Warning -- explicit consideration of  28 degrees of freedom as
           vibrations may cause significant error
 Vibrational temperatures:     31.78    39.65    53.89    64.28   113.57
          (Kelvin)            152.08   206.79   243.86   289.70   294.01
                              307.87   333.46   358.89   382.45   397.43
                              453.90   457.54   508.06   569.86   600.57
                              619.21   665.98   690.96   708.89   761.34
                              771.32   796.36   839.50   911.97   913.34
                              920.67  1013.97  1021.64  1033.89  1079.50
                             1081.26  1083.83  1177.49  1218.66  1220.46
                             1236.46  1258.54  1317.98  1318.16  1445.13
                             1457.09  1468.48  1516.54  1563.94  1569.78
                             1585.89  1602.37  1632.63  1637.88  1656.77
                             1674.57  1710.65  1769.31  1772.71  1788.32
                             1838.71  1893.71  1955.28  1968.69  2011.46
                             2036.89  2066.52  2105.33  2134.92  2142.59
                             2150.04  2178.85  2189.59  2209.06  2220.47
                             2299.12  2306.25  2406.91  2598.47  4393.36
                             4408.88  4421.31  4501.84  4512.53  4530.08
                             4591.43  4632.84  4640.13  4664.01  4665.90
                             4680.62  4709.19  5166.19

 Zero-point correction=                           0.254302 (Hartree/Particle)
 Thermal correction to Energy=                    0.272422
 Thermal correction to Enthalpy=                  0.273366
 Thermal correction to Gibbs Free Energy=         0.206289
 Sum of electronic and zero-point Energies=          -1596.997638
 Sum of electronic and thermal Energies=             -1596.979518
 Sum of electronic and thermal Enthalpies=           -1596.978574
 Sum of electronic and thermal Free Energies=        -1597.045650

                     E (Thermal)             CV                S
                      KCal/Mol        Cal/Mol-Kelvin    Cal/Mol-Kelvin
 Total                  170.947             68.889            141.174
 Electronic               0.000              0.000              0.000
 Translational            0.889              2.981             42.973
 Rotational               0.889              2.981             33.874
 Vibrational            169.170             62.928             64.327
 Vibration     1          0.593              1.985              6.437
 Vibration     2          0.593              1.984              5.998
 Vibration     3          0.594              1.982              5.389
 Vibration     4          0.595              1.980              5.040
 Vibration     5          0.600              1.963              3.917
 Vibration     6          0.605              1.945              3.346
 Vibration     7          0.616              1.909              2.754
 Vibration     8          0.625              1.880              2.441
 Vibration     9          0.638              1.838              2.121
 Vibration    10          0.640              1.834              2.094
 Vibration    11          0.644              1.820              2.009
 Vibration    12          0.653              1.792              1.865
 Vibration    13          0.662              1.764              1.735
 Vibration    14          0.672              1.736              1.623
 Vibration    15          0.678              1.717              1.557
 Vibration    16          0.703              1.644              1.333
 Vibration    17          0.704              1.639              1.320
 Vibration    18          0.729              1.569              1.152
 Vibration    19          0.763              1.479              0.977
 Vibration    20          0.780              1.432              0.901
 Vibration    21          0.792              1.404              0.857
 Vibration    22          0.821              1.332              0.758
 Vibration    23          0.837              1.294              0.709
 Vibration    24          0.848              1.266              0.677
 Vibration    25          0.884              1.185              0.589
 Vibration    26          0.891              1.170              0.574
 Vibration    27          0.909              1.132              0.537
 Vibration    28          0.940              1.067              0.479

 Optimization completed.
    -- Stationary point found.
 Normal termination of Gaussian 16 at Mon Dec 14 17:07:46 2020.

 ----------------------------------------------------------------------
 # B3LYP/6-311++G(d,p) empiricaldispersion=gd3bj scf=xqc pop=npa geom=c
 heck
 ----------------------------------------------------------------------

 --------------------------------------
 CID_54877029_JID_9116_Energie_neutraal
 --------------------------------------
 Structure from the checkpoint file:  "JID_9116.chk"
 Charge =  0 Multiplicity = 1

 SCF Done:  E(RB3LYP) =  -1597.53089881     A.U. after   18 cycles
 Normal termination of Gaussian 16 at Mon Dec 14 17:17:10 2020.

 ----------------------------------------------------------------------
 # B3LYP/6-311++G(d,p) empiricaldispersion=gd3bj scf=xqc pop=npa geom=c
 heck
 ----------------------------------------------------------------------

 ------------------------------------
 CID_54877029_JID_9116_Energie_kation
 ------------------------------------
 Structure from the checkpoint file:  "JID_9116.chk"
 Charge =  1 Multiplicity = 2

 SCF Done:  E(UB3LYP) =  -1597.23634775     A.U. after   31 cycles
 Normal termination of Gaussian 16 at Mon Dec 14 17:41:02 2020.
 Gaussian 16:  ES64L-G16RevA.03 25-Dec-2016

 ----------------------------------------------------------------------
 # B3LYP/6-311++G(d,p) empiricaldispersion=gd3bj scf=xqc pop=npa geom=c
 heck
 ----------------------------------------------------------------------

 -----------------------------------
 CID_54877029_JID_9116_Energie_anion
 -----------------------------------
 Structure from the checkpoint file:  "JID_9116.chk"
 Charge = -1 Multiplicity = 2

                         Standard orientation:
 ---------------------------------------------------------------------
 Center     Atomic      Atomic             Coordinates (Angstroms)
 Number     Number       Type             X           Y           Z
 ---------------------------------------------------------------------
      1          6           0       -1.479364    2.556479    0.737469
      2          6           0       -1.637517    1.062335    1.030750
      3          6           0       -2.753023    0.415731    0.248092
      4          6           0       -3.139401    0.633417   -1.049180
      5          6           0       -4.208167   -0.213540   -1.469365
      6          6           0       -4.627283   -1.069807   -0.489232
      7         16           0       -3.716400   -0.852879    0.969365
      8          7           0       -0.322714    0.337539    0.945349
      9          6           0       -0.224466   -0.826672    1.838855
     10         16           0        0.244903   -0.026201   -0.620512
     11          8           0       -0.183964   -1.361486   -1.051988
     12          8           0       -0.012611    1.155270   -1.451919
     13          6           0        1.995530   -0.123326   -0.335650
     14          6           0        2.713160    1.034658   -0.223777
     15          7           0        4.048295    0.974874   -0.018480
     16          6           0        4.815284   -0.218572    0.099112
     17          8           0        6.019621   -0.142704    0.294278
     18          6           0        4.016947   -1.423997   -0.043380
     19          6           0        2.671201   -1.377236   -0.255644
     20          1           0       -1.257358    2.741813   -0.312444
     21          1           0       -0.662175    2.960684    1.342725
     22          1           0       -2.406311    3.074250    1.002468
     23          1           0       -1.878292    0.973651    2.095453
     24          1           0       -2.654929    1.356722   -1.692386
     25          1           0       -4.643521   -0.184980   -2.461953
     26          1           0       -5.413651   -1.810658   -0.534080
     27          1           0       -0.922991   -1.629209    1.574807
     28          1           0        0.794718   -1.220230    1.815527
     29          1           0       -0.426625   -0.483550    2.856873
     30          1           0        2.257549    2.015005   -0.301490
     31          1           0        4.593919    1.826410    0.056770
     32          1           0        4.554501   -2.362832    0.017800
     33          1           0        2.088279   -2.284132   -0.381068
 ---------------------------------------------------------------------

 SCF Done:  E(UB3LYP) =  -1597.54529894     A.U. after   33 cycles
 SCF Done:  E(UB3LYP) =  -1597.54529894     a.u. after    1 cycles

 The electronic state is 2-A.
 Alpha  occ. eigenvalues --  -88.94050 -88.78622 -18.99767 -18.99512 -18.94769
 Alpha  occ. eigenvalues --  -14.23786 -14.21498 -10.13563 -10.13147 -10.11041
 Alpha  occ. eigenvalues --  -10.10969 -10.10041 -10.08942 -10.08133 -10.06860
 Alpha  occ. eigenvalues --  -10.06855 -10.05724 -10.04236 -10.01684  -8.00203
 Alpha  occ. eigenvalues --   -7.87250  -5.96497  -5.96468  -5.96265  -5.83530
 Alpha  occ. eigenvalues --   -5.83169  -5.82860  -0.99821  -0.90124  -0.88954
 Alpha  occ. eigenvalues --   -0.83360  -0.81500  -0.78963  -0.69631  -0.67973
 Alpha  occ. eigenvalues --   -0.64639  -0.62790  -0.62363  -0.59533  -0.55953
 Alpha  occ. eigenvalues --   -0.52342  -0.50364  -0.48183  -0.47323  -0.44677
 Alpha  occ. eigenvalues --   -0.43176  -0.41104  -0.39380  -0.38136  -0.37053
 Alpha  occ. eigenvalues --   -0.35834  -0.34854  -0.34336  -0.33484  -0.32913
 Alpha  occ. eigenvalues --   -0.31959  -0.30874  -0.30738  -0.30428  -0.30104
 Alpha  occ. eigenvalues --   -0.29270  -0.28199  -0.27691  -0.27145  -0.26448
 Alpha  occ. eigenvalues --   -0.25347  -0.23713  -0.22787  -0.21787  -0.20776
 Alpha  occ. eigenvalues --   -0.19794  -0.18721  -0.17473  -0.16544  -0.15700
 Alpha  occ. eigenvalues --   -0.14055  -0.12586  -0.09171   0.04157
 Alpha virt. eigenvalues --    0.05876   0.06536   0.06857   0.08214   0.08736
 Alpha virt. eigenvalues --    0.09066   0.09889   0.10629   0.10819   0.11212
 Alpha virt. eigenvalues --    0.11737   0.11987   0.12165   0.12821   0.13013

  Beta  occ. eigenvalues --  -88.94044 -88.78618 -18.99770 -18.99500 -18.94764
  Beta  occ. eigenvalues --  -14.23785 -14.21140 -10.13567 -10.13171 -10.10999
  Beta  occ. eigenvalues --  -10.10932 -10.10031 -10.08937 -10.08133 -10.06846
  Beta  occ. eigenvalues --  -10.06265 -10.05840 -10.03994 -10.01421  -8.00197
  Beta  occ. eigenvalues --   -7.87247  -5.96482  -5.96462  -5.96260  -5.83529
  Beta  occ. eigenvalues --   -5.83168  -5.82848  -0.99804  -0.89997  -0.88943
  Beta  occ. eigenvalues --   -0.83340  -0.80843  -0.78923  -0.69529  -0.67603
  Beta  occ. eigenvalues --   -0.64612  -0.62352  -0.62303  -0.59335  -0.55780
  Beta  occ. eigenvalues --   -0.51853  -0.49925  -0.48082  -0.47169  -0.44535
  Beta  occ. eigenvalues --   -0.43125  -0.40987  -0.39265  -0.38093  -0.36866
  Beta  occ. eigenvalues --   -0.35778  -0.34610  -0.34292  -0.33318  -0.32783
  Beta  occ. eigenvalues --   -0.31931  -0.30832  -0.30707  -0.30216  -0.29217
  Beta  occ. eigenvalues --   -0.28889  -0.28175  -0.27640  -0.27040  -0.26416
  Beta  occ. eigenvalues --   -0.25311  -0.23508  -0.22748  -0.20931  -0.20670
  Beta  occ. eigenvalues --   -0.19636  -0.18658  -0.16542  -0.15963  -0.15177
  Beta  occ. eigenvalues --   -0.13896  -0.12470  -0.07845
  Beta virt. eigenvalues --    0.06183   0.06525   0.06976   0.08130   0.08680
  Beta virt. eigenvalues --    0.09032   0.09843   0.10570   0.10705   0.11024
  Beta virt. eigenvalues --    0.11781   0.11796   0.11938   0.12131   0.12786

 Mulliken charges and spin densities:
               1          2
     1  C   -0.297453  -0.324602
     2  C   -0.784556   0.102681
     3  C    0.149126  -0.101326
     4  C    0.531035   0.125111
     5  C   -0.649857  -0.067171
     6  C   -0.096084   0.025757
     7  S   -0.154363   0.030491
     8  N    0.397545   0.032395
     9  C   -0.262912  -0.031290
    10  S   -0.226338  -0.174450
    11  O   -0.059428   0.016849
    12  O   -0.138461  -0.023838
    13  C   -1.134075   0.012420
    14  C    0.011078   0.404678
    15  N   -0.242086   0.111154
    16  C   -0.157131  -0.004059
    17  O   -0.424832   0.002637
    18  C   -0.435678   0.251131
    19  C    0.960347   0.196183
    20  H    0.199162  -0.008028
    21  H    0.054451   0.099835
    22  H    0.025086   0.096166
    23  H   -0.031213   0.184693
    24  H    0.182823   0.017880
    25  H    0.121992   0.008517
    26  H    0.212439   0.005707
    27  H    0.167155  -0.006289
    28  H    0.166560   0.007851
    29  H    0.097189   0.056493
    30  H    0.167221  -0.016126
    31  H    0.283923  -0.003351
    32  H    0.149657  -0.015283
    33  H    0.217680  -0.012818
 Sum of Mulliken charges =  -1.00000   1.00000

 Dipole moment (field-independent basis, Debye):
    X=            -10.4601    Y=              1.4384    Z=              1.7409  Tot=             10.7011
 Quadrupole moment (field-independent basis, Debye-Ang):
   XX=           -220.7276   YY=           -136.9455   ZZ=           -140.4900
   XY=             11.0303   XZ=             -0.0745   YZ=             -3.2783

 Summary of Natural Population Analysis:

                                       Natural Population
                Natural  -----------------------------------------------
    Atom  No    Charge         Core      Valence    Rydberg      Total
 -----------------------------------------------------------------------
      C    1   -0.28625      0.99964     2.27913    0.00749     3.28625
      C    2   -0.02433      0.99952     2.00881    0.01601     3.02433
      C    3   -0.10089      0.99947     2.08672    0.01470     3.10089
      C    4   -0.12182      0.99946     2.11279    0.00958     3.12182
      C    5   -0.12267      0.99954     2.11399    0.00913     3.12267
      C    6   -0.19425      0.99955     2.18466    0.01004     3.19425
      S    7    0.20364      4.99940     2.77636    0.02059     7.79636
      N    8   -0.36554      0.99974     2.85122    0.01458     3.86554
      C    9   -0.18687      0.99963     2.17786    0.00938     3.18687
      S   10    1.11546      4.99911     1.78533    0.10010     6.88454
      O   11   -0.46555      0.99991     3.46009    0.00555     4.46555
      O   12   -0.47554      0.99990     3.46950    0.00614     4.47554
      C   13   -0.22738      0.99936     2.21114    0.01689     3.22738
      C   14    0.15647      0.99951     1.83054    0.01348     2.84353
      N   15   -0.23933      0.99967     2.73027    0.00940     3.73933
      C   16    0.31369      0.99964     1.66519    0.02148     2.68631
      O   17   -0.34687      0.99988     3.33994    0.00705     4.34687
      C   18   -0.12028      0.99952     2.11182    0.00895     3.12028
      C   19   -0.03957      0.99952     2.03063    0.00942     3.03957
      H   20    0.11464      0.00000     0.38436    0.00101     0.38536
      H   21    0.10399      0.00000     0.39489    0.00112     0.39601
      H   22    0.09675      0.00000     0.40244    0.00081     0.40325
      H   23    0.10186      0.00000     0.39593    0.00221     0.39814
      H   24    0.11741      0.00000     0.38126    0.00132     0.38259
      H   25    0.10338      0.00000     0.39568    0.00094     0.39662
      H   26    0.10576      0.00000     0.39341    0.00083     0.39424
      H   27    0.09482      0.00000     0.40380    0.00139     0.40518
      H   28    0.11206      0.00000     0.38693    0.00101     0.38794
      H   29    0.09354      0.00000     0.40557    0.00089     0.40646
      H   30    0.09443      0.00000     0.40437    0.00120     0.40557
      H   31    0.18904      0.00000     0.30924    0.00172     0.31096
      H   32    0.09658      0.00000     0.40240    0.00102     0.40342
      H   33    0.10365      0.00000     0.39536    0.00099     0.39635
 =======================================================================
   * Total *    0.00000     26.99195    50.68163    0.32642    78.00000

 Normal termination of Gaussian 16 at Mon Dec 14 18:05:14 2020.
