 Gaussian 16, Revision A.03,

 -----------------------------------------------------------
 # opt freq B3LYP/6-31G(d) empiricaldispersion=gd3bj scf=xqc
 -----------------------------------------------------------

 -------------------------------
 CID_143926320_JID_3510_neutraal
 -------------------------------
 Symbolic Z-matrix:
 Charge =  0 Multiplicity = 1

 SCF Done:  E(RB3LYP) =  -577.878080195     A.U. after   14 cycles
 SCF Done:  E(RB3LYP) =  -577.881083848     A.U. after   12 cycles
 SCF Done:  E(RB3LYP) =  -577.881581560     A.U. after   12 cycles
 SCF Done:  E(RB3LYP) =  -577.881894729     A.U. after   11 cycles
 SCF Done:  E(RB3LYP) =  -577.882073612     A.U. after   10 cycles
 SCF Done:  E(RB3LYP) =  -577.882094884     A.U. after   10 cycles
 SCF Done:  E(RB3LYP) =  -577.882120942     A.U. after    9 cycles
 SCF Done:  E(RB3LYP) =  -577.882136965     A.U. after    9 cycles
 SCF Done:  E(RB3LYP) =  -577.882147791     A.U. after    9 cycles
 SCF Done:  E(RB3LYP) =  -577.882156529     A.U. after    9 cycles
 SCF Done:  E(RB3LYP) =  -577.883446727     A.U. after    7 cycles
 SCF Done:  E(RB3LYP) =  -577.883446786     A.U. after    7 cycles
 SCF Done:  E(RB3LYP) =  -577.883446878     A.U. after    7 cycles
 SCF Done:  E(RB3LYP) =  -577.883446953     A.U. after    7 cycles
 SCF Done:  E(RB3LYP) =  -577.883447047     A.U. after    7 cycles
 SCF Done:  E(RB3LYP) =  -577.883447078     A.U. after    6 cycles
 Optimization completed.
    -- Stationary point found.
 Normal termination of Gaussian 16 at Sun Dec 13 13:03:12 2020.

 --------------------------------------------------------------------
 #N Geom=AllCheck Guess=TCheck SCRF=Check GenChk RB3LYP/6-31G(d) Freq
 --------------------------------------------------------------------

 Structure from the checkpoint file:  "JID_3510.chk"
 -------------------------------
 CID_143926320_JID_3510_neutraal
 -------------------------------
 Charge =  0 Multiplicity = 1

 SCF Done:  E(RB3LYP) =  -577.883447078     A.U. after    1 cycles

  Exact polarizability: 143.009   9.239 106.719   0.422  -4.060 105.671
 Approx polarizability: 176.878  11.064 148.247   3.396 -11.773 175.487

                      1                      2                      3
                      A                      A                      A
 Frequencies --     18.8399                39.5433                42.4050
 Red. masses --      3.2363                 2.9352                 2.4520
 Frc consts  --      0.0007                 0.0027                 0.0026
 IR Inten    --      0.0971                 0.3100                 0.5488

                      4                      5                      6
                      A                      A                      A
 Frequencies --     54.0909                65.7812                72.9584
 Red. masses --      3.6456                 1.4544                 1.9306
 Frc consts  --      0.0063                 0.0037                 0.0061
 IR Inten    --      4.3066                 0.0426                 0.1783

                      7                      8                      9
                      A                      A                      A
 Frequencies --     96.3654               113.8053               126.1804
 Red. masses --      4.0725                 1.6538                 1.6245
 Frc consts  --      0.0223                 0.0126                 0.0152
 IR Inten    --      0.9713                 0.2613                 0.0176

                     10                     11                     12
                      A                      A                      A
 Frequencies --    136.8460               137.6695               214.1295
 Red. masses --      2.6224                 1.4920                 1.0519
 Frc consts  --      0.0289                 0.0167                 0.0284
 IR Inten    --      1.3618                 0.5185                 0.0265

                     13                     14                     15
                      A                      A                      A
 Frequencies --    245.1693               251.9087               276.6730
 Red. masses --      2.5800                 2.4846                 1.1499
 Frc consts  --      0.0914                 0.0929                 0.0519
 IR Inten    --      1.1675                 1.1517                 0.9330

                     16                     17                     18
                      A                      A                      A
 Frequencies --    292.9865               324.1952               325.4401
 Red. masses --      1.3420                 2.6928                 1.0480
 Frc consts  --      0.0679                 0.1667                 0.0654
 IR Inten    --      0.2068                 1.6246                 0.1821

                     19                     20                     21
                      A                      A                      A
 Frequencies --    336.5340               351.9112               387.0764
 Red. masses --      2.8342                 2.3975                 2.7402
 Frc consts  --      0.1891                 0.1749                 0.2419
 IR Inten    --      1.2626                 0.0404                 0.2095

                     22                     23                     24
                      A                      A                      A
 Frequencies --    450.6336               490.6821               632.9911
 Red. masses --      3.6505                 3.9101                 2.9471
 Frc consts  --      0.4368                 0.5547                 0.6957
 IR Inten    --      0.7970                 1.2640                 2.5419

                     25                     26                     27
                      A                      A                      A
 Frequencies --    675.7028               706.0516               760.0365
 Red. masses --      6.2847                 4.5421                 6.5473
 Frc consts  --      1.6906                 1.3341                 2.2283
 IR Inten    --      1.7341                 8.7861                 2.8446

                     28                     29                     30
                      A                      A                      A
 Frequencies --    792.3676               821.6293               838.4155
 Red. masses --      1.2219                 2.5713                 1.0558
 Frc consts  --      0.4520                 1.0227                 0.4373
 IR Inten    --      1.6659                 0.0878                 5.9488

                     31                     32                     33
                      A                      A                      A
 Frequencies --    841.9570               935.4048               956.2588
 Red. masses --      1.0570                 1.9700                 1.6106
 Frc consts  --      0.4415                 1.0156                 0.8678
 IR Inten    --      9.2817                 2.6966                 0.1984

                     34                     35                     36
                      A                      A                      A
 Frequencies --    977.9750               992.2545              1013.1498
 Red. masses --      3.8479                 8.7805                 3.2803
 Frc consts  --      2.1684                 5.0935                 1.9839
 IR Inten    --      5.7028                18.2211                 0.3143

                     37                     38                     39
                      A                      A                      A
 Frequencies --   1020.3694              1020.6182              1040.0070
 Red. masses --      1.5769                 2.0484                 2.2575
 Frc consts  --      0.9673                 1.2571                 1.4386
 IR Inten    --      1.1163                 1.7145                 7.8117

                     40                     41                     42
                      A                      A                      A
 Frequencies --   1075.1894              1076.9448              1084.3409
 Red. masses --      1.5806                 3.1412                 1.5438
 Frc consts  --      1.0766                 2.1465                 1.0695
 IR Inten    --      1.3336                 9.1354                 4.3342

                     43                     44                     45
                      A                      A                      A
 Frequencies --   1092.7171              1155.3800              1223.5930
 Red. masses --      1.6440                 3.4402                 2.2667
 Frc consts  --      1.1565                 2.7057                 1.9995
 IR Inten    --      4.6943                80.3821                 0.9012

                     46                     47                     48
                      A                      A                      A
 Frequencies --   1238.2927              1240.5085              1260.0140
 Red. masses --      1.4594                 1.4569                 2.8407
 Frc consts  --      1.3185                 1.3209                 2.6572
 IR Inten    --      0.3788                 0.4443                 2.1896

                     49                     50                     51
                      A                      A                      A
 Frequencies --   1269.8495              1344.5498              1368.7261
 Red. masses --      3.4979                 1.2348                 2.9430
 Frc consts  --      3.3233                 1.3153                 3.2484
 IR Inten    --      1.9314                 0.4796                19.5738

                     52                     53                     54
                      A                      A                      A
 Frequencies --   1401.5499              1424.7179              1431.9664
 Red. masses --      1.5882                 1.2135                 1.1993
 Frc consts  --      1.8381                 1.4512                 1.4490
 IR Inten    --      4.8597                 3.9732                 2.0488

                     55                     56                     57
                      A                      A                      A
 Frequencies --   1441.3932              1443.8459              1452.2848
 Red. masses --      1.2961                 1.3339                 1.2559
 Frc consts  --      1.5865                 1.6384                 1.5607
 IR Inten    --      2.4008                 4.3892                 0.3898

                     58                     59                     60
                      A                      A                      A
 Frequencies --   1453.8266              1503.9968              1508.2433
 Red. masses --      1.2482                 1.0444                 1.0936
 Frc consts  --      1.5544                 1.3919                 1.4657
 IR Inten    --      1.1315                 9.4466                 6.4234

                     61                     62                     63
                      A                      A                      A
 Frequencies --   1509.9223              1515.7161              1519.5698
 Red. masses --      1.0837                 1.0447                 1.0464
 Frc consts  --      1.4557                 1.4140                 1.4237
 IR Inten    --      1.8558                 0.5047                 4.9980

                     64                     65                     66
                      A                      A                      A
 Frequencies --   1531.8190              1534.4096              1537.5712
 Red. masses --      1.0266                 1.0370                 1.0537
 Frc consts  --      1.4193                 1.4386                 1.4677
 IR Inten    --      2.0236                 2.8845                15.6683

                     67                     68                     69
                      A                      A                      A
 Frequencies --   1538.8157              1540.5782              1542.2822
 Red. masses --      1.0707                 1.0527                 1.0442
 Frc consts  --      1.4938                 1.4720                 1.4633
 IR Inten    --      1.6044                11.6136                 1.6901

                     70                     71                     72
                      A                      A                      A
 Frequencies --   1543.7959              1544.7373              1610.1300
 Red. masses --      1.0751                 1.0538                 9.5016
 Frc consts  --      1.5096                 1.4816                14.5133
 IR Inten    --      3.2322                 6.2640                58.5857

                     73                     74                     75
                      A                      A                      A
 Frequencies --   1643.1206              3048.8123              3049.6221
 Red. masses --      7.9701                 1.0375                 1.0357
 Frc consts  --     12.6780                 5.6818                 5.6752
 IR Inten    --     33.5191                16.1626                45.5616

                     76                     77                     78
                      A                      A                      A
 Frequencies --   3055.6601              3058.6235              3062.2108
 Red. masses --      1.0367                 1.0348                 1.0491
 Frc consts  --      5.7030                 5.7038                 5.7962
 IR Inten    --     12.3069                23.7717                33.1931

                     79                     80                     81
                      A                      A                      A
 Frequencies --   3063.6654              3066.2006              3095.5441
 Red. masses --      1.0384                 1.0458                 1.1029
 Frc consts  --      5.7424                 5.7930                 6.2269
 IR Inten    --     10.5366                 1.5433                 1.8784

                     82                     83                     84
                      A                      A                      A
 Frequencies --   3098.2982              3105.7270              3120.6245
 Red. masses --      1.1012                 1.1005                 1.1014
 Frc consts  --      6.2281                 6.2539                 6.3197
 IR Inten    --      7.0157                24.2287                26.9857

                     85                     86                     87
                      A                      A                      A
 Frequencies --   3120.8657              3125.4547              3126.4185
 Red. masses --      1.1015                 1.1030                 1.1023
 Frc consts  --      6.3208                 6.3482                 6.3482
 IR Inten    --     10.8531                50.9966                43.1096

                     88                     89                     90
                      A                      A                      A
 Frequencies --   3130.1467              3134.3089              3135.2660
 Red. masses --      1.1027                 1.1025                 1.1025
 Frc consts  --      6.3655                 6.3811                 6.3852
 IR Inten    --     18.4798                50.7092                27.1195

                     91                     92                     93
                      A                      A                      A
 Frequencies --   3137.1557              3140.6175              3171.8170
 Red. masses --      1.1025                 1.1019                 1.1006
 Frc consts  --      6.3932                 6.4034                 6.5235
 IR Inten    --      3.3101                50.5283                 2.3644

 - Thermochemistry -
 -------------------
 Temperature   298.150 Kelvin.  Pressure   1.00000 Atm.
 Atom     1 has atomic number  6 and mass  12.00000

 Molecular mass:   184.15756 amu.
 Principal axes and moments of inertia in atomic units:
                           1         2         3
     Eigenvalues --  1619.182353766.852774385.51417
           X            0.99992  -0.01145  -0.00613
           Y            0.01137   0.99985  -0.01337
           Z            0.00628   0.01330   0.99989
 This molecule is an asymmetric top.
 Rotational symmetry number  1.
 Warning -- assumption of classical behavior for rotation
           may cause significant error
 Rotational temperatures (Kelvin)      0.05349     0.02299     0.01975
 Rotational constants (GHZ):           1.11460     0.47911     0.41152
 Zero-point vibrational energy     768770.9 (Joules/Mol)
                                  183.74065 (Kcal/Mol)
 Warning -- explicit consideration of  23 degrees of freedom as
           vibrations may cause significant error
 Vibrational temperatures:     27.11    56.89    61.01    77.82    94.64
          (Kelvin)            104.97   138.65   163.74   181.55   196.89
                              198.08   308.08   352.74   362.44   398.07
                              421.54   466.44   468.24   484.20   506.32
                              556.92   648.36   705.98   910.73   972.19
                             1015.85  1093.52  1140.04  1182.14  1206.29
                             1211.39  1345.84  1375.84  1407.09  1427.63
                             1457.70  1468.08  1468.44  1496.34  1546.96
                             1549.48  1560.12  1572.18  1662.33  1760.48
                             1781.63  1784.82  1812.88  1827.03  1934.51
                             1969.29  2016.52  2049.85  2060.28  2073.84
                             2077.37  2089.51  2091.73  2163.92  2170.03
                             2172.44  2180.78  2186.32  2203.95  2207.67
                             2212.22  2214.01  2216.55  2219.00  2221.18
                             2222.53  2316.62  2364.08  4386.56  4387.73
                             4396.41  4400.68  4405.84  4407.93  4411.58
                             4453.80  4457.76  4468.45  4489.88  4490.23
                             4496.83  4498.22  4503.58  4509.57  4510.95
                             4513.67  4518.65  4563.54

 Zero-point correction=                           0.292809 (Hartree/Particle)
 Thermal correction to Energy=                    0.310243
 Thermal correction to Enthalpy=                  0.311187
 Thermal correction to Gibbs Free Energy=         0.245457
 Sum of electronic and zero-point Energies=           -577.590638
 Sum of electronic and thermal Energies=              -577.573204
 Sum of electronic and thermal Enthalpies=            -577.572260
 Sum of electronic and thermal Free Energies=         -577.637990

                     E (Thermal)             CV                S
                      KCal/Mol        Cal/Mol-Kelvin    Cal/Mol-Kelvin
 Total                  194.680             59.868            138.341
 Electronic               0.000              0.000              0.000
 Translational            0.889              2.981             41.538
 Rotational               0.889              2.981             31.659
 Vibrational            192.903             53.906             65.144
 Vibration     1          0.593              1.986              6.753
 Vibration     2          0.594              1.981              5.282
 Vibration     3          0.595              1.980              5.143
 Vibration     4          0.596              1.976              4.662
 Vibration     5          0.597              1.971              4.276
 Vibration     6          0.599              1.967              4.072
 Vibration     7          0.603              1.952              3.527
 Vibration     8          0.607              1.938              3.203
 Vibration     9          0.611              1.927              3.003
 Vibration    10          0.614              1.917              2.848
 Vibration    11          0.614              1.916              2.836
 Vibration    12          0.644              1.819              2.008
 Vibration    13          0.660              1.771              1.765
 Vibration    14          0.664              1.760              1.717
 Vibration    15          0.678              1.717              1.554
 Vibration    16          0.688              1.687              1.457
 Vibration    17          0.709              1.627              1.289
 Vibration    18          0.710              1.625              1.283
 Vibration    19          0.717              1.603              1.229
 Vibration    20          0.728              1.571              1.158
 Vibration    21          0.756              1.498              1.011
 Vibration    22          0.809              1.359              0.794
 Vibration    23          0.846              1.271              0.682

                           ! Non-Optimized Parameters !
 Normal termination of Gaussian 16 at Sun Dec 13 13:11:58 2020.

 ----------------------------------------------------------------------
 # B3LYP/6-311++G(d,p) empiricaldispersion=gd3bj scf=xqc pop=npa geom=c
 heck
 ----------------------------------------------------------------------

 ---------------------------------------
 CID_143926320_JID_3510_Energie_neutraal
 ---------------------------------------
 Structure from the checkpoint file:  "JID_3510.chk"
 Charge =  0 Multiplicity = 1

 SCF Done:  E(RB3LYP) =  -578.043963864     A.U. after   13 cycles
 Normal termination of Gaussian 16 at Sun Dec 13 13:15:14 2020.

 ----------------------------------------------------------------------
 # B3LYP/6-311++G(d,p) empiricaldispersion=gd3bj scf=xqc pop=npa geom=c
 heck
 ----------------------------------------------------------------------

 -------------------------------------
 CID_143926320_JID_3510_Energie_kation
 -------------------------------------
 Structure from the checkpoint file:  "JID_3510.chk"
 Charge =  1 Multiplicity = 2

 SCF Done:  E(UB3LYP) =  -577.698757521     A.U. after   23 cycles
 Normal termination of Gaussian 16 at Sun Dec 13 13:23:12 2020.
 Gaussian 16:  ES64L-G16RevA.03 25-Dec-2016

 ----------------------------------------------------------------------
 # B3LYP/6-311++G(d,p) empiricaldispersion=gd3bj scf=xqc pop=npa geom=c
 heck
 ----------------------------------------------------------------------

 ------------------------------------
 CID_143926320_JID_3510_Energie_anion
 ------------------------------------
 Structure from the checkpoint file:  "JID_3510.chk"
 Charge = -1 Multiplicity = 2

                         Standard orientation:
 ---------------------------------------------------------------------
 Center     Atomic      Atomic             Coordinates (Angstroms)
 Number     Number       Type             X           Y           Z
 ---------------------------------------------------------------------
      1          6           0       -1.995282    2.161399    0.561081
      2          6           0       -3.352683    2.049267   -0.135664
      3          6           0        3.872755    0.985719   -0.531009
      4          6           0        2.439966    0.571422   -0.874450
      5          6           0        1.674607   -0.155033    0.258864
      6          6           0        1.520005    0.748826    1.501993
      7          6           0        2.376320   -1.472043    0.658914
      8          6           0        0.303358   -0.490032   -0.257177
      9          7           0       -0.220025   -0.277453   -1.421818
     10          7           0       -1.531386   -0.780251   -1.374962
     11          6           0       -1.697761   -1.256642   -0.183427
     12          8           0       -0.578651   -1.116072    0.589809
     13          6           0       -2.906983   -1.875876    0.411347
     14          1           0       -1.938478    3.054873    1.193744
     15          1           0       -1.184217    2.213511   -0.172783
     16          1           0       -1.801583    1.293553    1.202011
     17          1           0       -4.169145    1.949806    0.589721
     18          1           0       -3.558831    2.937085   -0.744106
     19          1           0       -3.376063    1.180677   -0.801229
     20          1           0        3.910826    1.681099    0.314221
     21          1           0        4.327927    1.490992   -1.389345
     22          1           0        4.504489    0.124983   -0.287132
     23          1           0        1.862150    1.456225   -1.164620
     24          1           0        2.447485   -0.079735   -1.755587
     25          1           0        0.907949    0.260187    2.265937
     26          1           0        2.498978    0.962806    1.940556
     27          1           0        1.043899    1.698984    1.238484
     28          1           0        2.524690   -2.116663   -0.214244
     29          1           0        3.354079   -1.263831    1.102984
     30          1           0        1.782144   -2.021879    1.395144
     31          1           0       -2.685834   -2.872794    0.806953
     32          1           0       -3.291404   -1.262973    1.234354
     33          1           0       -3.675796   -1.956440   -0.358909
 ---------------------------------------------------------------------

 SCF Done:  E(UB3LYP) =  -578.031487685     A.U. after   30 cycles

 The electronic state is 2-A.
 Alpha  occ. eigenvalues --  -19.11066 -14.23783 -14.23739 -10.17424 -10.16806
 Alpha  occ. eigenvalues --  -10.11120 -10.09124 -10.07433 -10.06975 -10.06907
 Alpha  occ. eigenvalues --  -10.06599 -10.06113 -10.06078  -1.05922  -0.87967
 Alpha  occ. eigenvalues --   -0.77206  -0.71991  -0.65680  -0.64754  -0.64417
 Alpha  occ. eigenvalues --   -0.59925  -0.56236  -0.54659  -0.52016  -0.49715
 Alpha  occ. eigenvalues --   -0.46059  -0.41043  -0.40724  -0.37083  -0.36478
 Alpha  occ. eigenvalues --   -0.35196  -0.34044  -0.33839  -0.33367  -0.33202
 Alpha  occ. eigenvalues --   -0.32072  -0.31176  -0.29642  -0.29184  -0.28855
 Alpha  occ. eigenvalues --   -0.27382  -0.26194  -0.25686  -0.25236  -0.24904
 Alpha  occ. eigenvalues --   -0.24317  -0.23728  -0.23437  -0.22153  -0.18598
 Alpha  occ. eigenvalues --   -0.17288   0.04188
 Alpha virt. eigenvalues --    0.06005   0.07084   0.07827   0.07962   0.08516
 Alpha virt. eigenvalues --    0.08823   0.09663   0.10239   0.10300   0.11040
 Alpha virt. eigenvalues --    0.11248   0.11468   0.12205   0.12559   0.12871

  Beta  occ. eigenvalues --  -19.11050 -14.23777 -14.23738 -10.17421 -10.16802
  Beta  occ. eigenvalues --  -10.11118 -10.09066 -10.07427 -10.06940 -10.06880
  Beta  occ. eigenvalues --  -10.06564 -10.06097 -10.06059  -1.05903  -0.87954
  Beta  occ. eigenvalues --   -0.77191  -0.71969  -0.65653  -0.64713  -0.64358
  Beta  occ. eigenvalues --   -0.59871  -0.56198  -0.54611  -0.51958  -0.49677
  Beta  occ. eigenvalues --   -0.46022  -0.41004  -0.40692  -0.37046  -0.36450
  Beta  occ. eigenvalues --   -0.35165  -0.34018  -0.33821  -0.33326  -0.33156
  Beta  occ. eigenvalues --   -0.32015  -0.31133  -0.29607  -0.29142  -0.28824
  Beta  occ. eigenvalues --   -0.27339  -0.26163  -0.25654  -0.25217  -0.24883
  Beta  occ. eigenvalues --   -0.24300  -0.23706  -0.23411  -0.22141  -0.18591
  Beta  occ. eigenvalues --   -0.17266
  Beta virt. eigenvalues --    0.06329   0.06970   0.07664   0.08094   0.08437
  Beta virt. eigenvalues --    0.08964   0.09205   0.10014   0.10537   0.10701
  Beta virt. eigenvalues --    0.11489   0.11579   0.11852   0.12519   0.12750

 Mulliken charges and spin densities:
               1          2
     1  C   -0.412439   0.142203
     2  C    0.099594  -0.656831
     3  C    1.507355  -2.219009
     4  C   -1.846386   1.424879
     5  C   -0.653023   1.105902
     6  C    0.793809  -1.494365
     7  C    0.949260  -1.541295
     8  C   -0.962826   0.695948
     9  N    0.080076  -0.148609
    10  N   -0.057106   0.139409
    11  C   -1.186978   1.621309
    12  O    0.040981   0.058346
    13  C    2.453627  -3.076338
    14  H   -0.102601   0.238892
    15  H    0.136475   0.004646
    16  H    0.209381  -0.074172
    17  H   -0.145912   0.276788
    18  H    0.058630   0.061613
    19  H    0.111745   0.029909
    20  H   -0.218038   0.360857
    21  H   -0.046982   0.182794
    22  H   -0.228931   0.372369
    23  H    0.035994   0.162670
    24  H    0.133945   0.058933
    25  H   -0.110418   0.278889
    26  H   -0.269310   0.447667
    27  H    0.015163   0.141034
    28  H   -0.062920   0.219609
    29  H   -0.233669   0.390245
    30  H   -0.094324   0.266069
    31  H   -0.508232   0.680394
    32  H   -0.429970   0.609743
    33  H   -0.055970   0.239498
 Sum of Mulliken charges =  -1.00000   1.00000

 Dipole moment (field-independent basis, Debye):
    X=             -0.0541    Y=              1.4920    Z=             -2.1665  Tot=              2.6311
 Quadrupole moment (field-independent basis, Debye-Ang):
   XX=           -159.8314   YY=           -126.4561   ZZ=           -123.8516
   XY=             -6.5170   XZ=              0.6266   YZ=              2.5186

 Summary of Natural Population Analysis:

                                       Natural Population
                Natural  -----------------------------------------------
    Atom  No    Charge         Core      Valence    Rydberg      Total
 -----------------------------------------------------------------------
      C    1   -0.28969      0.99968     2.28500    0.00500     3.28969
      C    2   -0.28928      0.99968     2.28457    0.00503     3.28928
      C    3   -0.28775      0.99966     2.28311    0.00497     3.28775
      C    4   -0.18565      0.99961     2.17591    0.01013     3.18565
      C    5   -0.07066      0.99952     2.05817    0.01297     3.07066
      C    6   -0.28210      0.99963     2.27508    0.00739     3.28210
      C    7   -0.28197      0.99963     2.27507    0.00727     3.28197
      C    8    0.27360      0.99952     1.70438    0.02250     2.72640
      N    9   -0.16746      0.99965     2.65729    0.01052     3.66746
      N   10   -0.17038      0.99966     2.65856    0.01215     3.67038
      C   11    0.25861      0.99960     1.72179    0.02001     2.74139
      O   12   -0.24549      0.99985     3.23707    0.00857     4.24549
      C   13   -0.31314      0.99962     2.30769    0.00583     3.31314
      H   14    0.09347      0.00000     0.40563    0.00090     0.40653
      H   15    0.09897      0.00000     0.39982    0.00121     0.40103
      H   16    0.09658      0.00000     0.40193    0.00149     0.40342
      H   17    0.09372      0.00000     0.40537    0.00091     0.40628
      H   18    0.09168      0.00000     0.40754    0.00078     0.40832
      H   19    0.10347      0.00000     0.39536    0.00117     0.39653
      H   20    0.09818      0.00000     0.40066    0.00116     0.40182
      H   21    0.10006      0.00000     0.39918    0.00076     0.39994
      H   22    0.09823      0.00000     0.40060    0.00117     0.40177
      H   23    0.10277      0.00000     0.39589    0.00134     0.39723
      H   24    0.10319      0.00000     0.39551    0.00130     0.39681
      H   25    0.10655      0.00000     0.39198    0.00147     0.39345
      H   26    0.10307      0.00000     0.39579    0.00114     0.39693
      H   27    0.10277      0.00000     0.39594    0.00130     0.39723
      H   28    0.10178      0.00000     0.39712    0.00110     0.39822
      H   29    0.10368      0.00000     0.39508    0.00124     0.39632
      H   30    0.10676      0.00000     0.39185    0.00138     0.39324
      H   31    0.11488      0.00000     0.38318    0.00195     0.38512
      H   32    0.11621      0.00000     0.38157    0.00222     0.38379
      H   33    0.11534      0.00000     0.38346    0.00120     0.38466
 =======================================================================
   * Total *    0.00000     12.99531    37.84715    0.15754    51.00000

 Normal termination of Gaussian 16 at Sun Dec 13 13:33:22 2020.
