 Gaussian 16, Revision A.03,

 -----------------------------------------------------------
 # opt freq B3LYP/6-31G(d) empiricaldispersion=gd3bj scf=xqc
 -----------------------------------------------------------

 -------------------------------
 CID_116505029_JID_1240_neutraal
 -------------------------------
 Symbolic Z-matrix:
 Charge =  0 Multiplicity = 1

 SCF Done:  E(RB3LYP) =  -899.082051109     A.U. after   14 cycles
 SCF Done:  E(RB3LYP) =  -899.085066647     A.U. after   12 cycles
 SCF Done:  E(RB3LYP) =  -899.084620055     A.U. after   13 cycles
 SCF Done:  E(RB3LYP) =  -899.085368599     A.U. after   12 cycles
 SCF Done:  E(RB3LYP) =  -899.085546041     A.U. after   11 cycles
 SCF Done:  E(RB3LYP) =  -899.085593366     A.U. after   12 cycles
 SCF Done:  E(RB3LYP) =  -899.085812426     A.U. after   11 cycles
 SCF Done:  E(RB3LYP) =  -899.085948649     A.U. after   12 cycles
 SCF Done:  E(RB3LYP) =  -899.085934435     A.U. after   12 cycles
 SCF Done:  E(RB3LYP) =  -899.086504066     A.U. after   12 cycles
 SCF Done:  E(RB3LYP) =  -899.088207464     A.U. after    9 cycles
 SCF Done:  E(RB3LYP) =  -899.088216638     A.U. after   11 cycles
 SCF Done:  E(RB3LYP) =  -899.088222762     A.U. after   11 cycles
 SCF Done:  E(RB3LYP) =  -899.088230337     A.U. after   10 cycles
 SCF Done:  E(RB3LYP) =  -899.088232229     A.U. after    9 cycles
 SCF Done:  E(RB3LYP) =  -899.088232368     A.U. after    8 cycles
 Optimization completed.
    -- Stationary point found.
 Normal termination of Gaussian 16 at Tue Dec  8 19:36:52 2020.

 --------------------------------------------------------------------
 #N Geom=AllCheck Guess=TCheck SCRF=Check GenChk RB3LYP/6-31G(d) Freq
 --------------------------------------------------------------------

 Structure from the checkpoint file:  "JID_1240.chk"
 -------------------------------
 CID_116505029_JID_1240_neutraal
 -------------------------------
 Charge =  0 Multiplicity = 1

 SCF Done:  E(RB3LYP) =  -899.088232368     A.U. after    1 cycles

  Exact polarizability: 108.929   3.542  97.765  -7.634  -3.468  86.304
 Approx polarizability: 147.509   8.315 143.728 -14.257  -4.208 131.494

                      1                      2                      3
                      A                      A                      A
 Frequencies --     24.2287                45.9918                59.1133
 Red. masses --      6.0213                 5.2515                 4.6374
 Frc consts  --      0.0021                 0.0065                 0.0095
 IR Inten    --      0.5549                 0.1197                 1.2922

                      4                      5                      6
                      A                      A                      A
 Frequencies --     78.2196               131.2186               137.0578
 Red. masses --      4.1399                 2.9683                 3.2474
 Frc consts  --      0.0149                 0.0301                 0.0359
 IR Inten    --      0.6030                 0.9433                 0.3033

                      7                      8                      9
                      A                      A                      A
 Frequencies --    186.2554               214.1436               261.2759
 Red. masses --      2.1142                 5.5830                 1.4124
 Frc consts  --      0.0432                 0.1508                 0.0568
 IR Inten    --      1.0232                 2.9866                 0.3466

                     10                     11                     12
                      A                      A                      A
 Frequencies --    280.4169               324.1183               357.3621
 Red. masses --      2.1581                 3.2868                 3.0626
 Frc consts  --      0.1000                 0.2034                 0.2304
 IR Inten    --      0.3999                 0.3652                 2.0603

                     13                     14                     15
                      A                      A                      A
 Frequencies --    361.5502               408.4943               501.1375
 Red. masses --      4.9159                 2.1644                 3.0789
 Frc consts  --      0.3786                 0.2128                 0.4556
 IR Inten    --      3.4383                 2.6289                 1.1703

                     16                     17                     18
                      A                      A                      A
 Frequencies --    523.6631               553.2266               566.4256
 Red. masses --      2.1312                 2.7001                 1.1433
 Frc consts  --      0.3443                 0.4869                 0.2161
 IR Inten    --      8.9843                77.5598                98.8567

                     19                     20                     21
                      A                      A                      A
 Frequencies --    633.8638               677.4793               695.7123
 Red. masses --      3.8859                 2.8891                 2.0650
 Frc consts  --      0.9199                 0.7813                 0.5889
 IR Inten    --      4.2618                22.7289                55.6261

                     22                     23                     24
                      A                      A                      A
 Frequencies --    734.7133               764.5085               793.5727
 Red. masses --      2.1624                 1.4425                 1.8114
 Frc consts  --      0.6877                 0.4967                 0.6721
 IR Inten    --     60.2788                13.4389                 1.8466

                     25                     26                     27
                      A                      A                      A
 Frequencies --    859.6102               901.7529               946.2692
 Red. masses --      2.5690                 2.2502                 2.1320
 Frc consts  --      1.1184                 1.0781                 1.1248
 IR Inten    --     11.4544                 2.1221                 4.4413

                     28                     29                     30
                      A                      A                      A
 Frequencies --    990.6433               992.2889              1036.5503
 Red. masses --      2.0113                 1.9499                 1.8326
 Frc consts  --      1.1630                 1.1312                 1.1601
 IR Inten    --      8.6720                11.9194                 8.6225

                     31                     32                     33
                      A                      A                      A
 Frequencies --   1072.1952              1083.4418              1101.9639
 Red. masses --      1.5524                 2.1359                 2.4862
 Frc consts  --      1.0515                 1.4772                 1.7788
 IR Inten    --      1.4888                16.8393                44.9123

                     34                     35                     36
                      A                      A                      A
 Frequencies --   1116.8684              1174.5877              1186.6193
 Red. masses --      2.4943                 1.2111                 1.8623
 Frc consts  --      1.8331                 0.9845                 1.5450
 IR Inten    --     27.3750                57.6636               255.8112

                     37                     38                     39
                      A                      A                      A
 Frequencies --   1238.8244              1267.9506              1293.7342
 Red. masses --      1.2338                 1.2570                 1.3953
 Frc consts  --      1.1157                 1.1907                 1.3760
 IR Inten    --      8.3848                 4.7124                12.7668

                     40                     41                     42
                      A                      A                      A
 Frequencies --   1295.3365              1315.8525              1339.5235
 Red. masses --      1.2308                 1.2854                 1.2935
 Frc consts  --      1.2167                 1.3113                 1.3674
 IR Inten    --     14.0973                30.1414                19.7417

                     43                     44                     45
                      A                      A                      A
 Frequencies --   1351.2844              1370.8008              1420.3854
 Red. masses --      1.4398                 1.3119                 1.5436
 Frc consts  --      1.5490                 1.4525                 1.8348
 IR Inten    --      8.7606                12.3475                14.1921

                     46                     47                     48
                      A                      A                      A
 Frequencies --   1428.5073              1440.0212              1475.9148
 Red. masses --      1.8748                 1.2238                 1.1568
 Frc consts  --      2.2541                 1.4952                 1.4847
 IR Inten    --     67.4358                 6.3592                45.9899

                     49                     50                     51
                      A                      A                      A
 Frequencies --   1492.5339              1503.8051              1506.5824
 Red. masses --      1.1471                 1.1222                 1.0861
 Frc consts  --      1.5055                 1.4952                 1.4524
 IR Inten    --     12.3523                11.7990                 9.4958

                     52                     53                     54
                      A                      A                      A
 Frequencies --   1516.8535              1524.7391              1531.1035
 Red. masses --      1.0876                 1.0498                 1.0464
 Frc consts  --      1.4743                 1.4380                 1.4453
 IR Inten    --      8.7190                 4.9205                 2.8008

                     55                     56                     57
                      A                      A                      A
 Frequencies --   1814.0726              3036.4563              3050.2635
 Red. masses --      8.8842                 1.0680                 1.0374
 Frc consts  --     17.2257                 5.8015                 5.6866
 IR Inten    --    225.0259                18.9237                20.7234

                     58                     59                     60
                      A                      A                      A
 Frequencies --   3071.6059              3074.3880              3076.0688
 Red. masses --      1.0674                 1.0603                 1.0612
 Frc consts  --      5.9335                 5.9045                 5.9162
 IR Inten    --      3.5350                18.9942                14.3173

                     61                     62                     63
                      A                      A                      A
 Frequencies --   3089.2659              3105.5829              3108.9248
 Red. masses --      1.0846                 1.0977                 1.1007
 Frc consts  --      6.0989                 6.2377                 6.2684
 IR Inten    --     20.3358                17.1900                29.0937

                     64                     65                     66
                      A                      A                      A
 Frequencies --   3116.5351              3121.6951              3139.7391
 Red. masses --      1.1025                 1.1025                 1.1034
 Frc consts  --      6.3092                 6.3301                 6.4088
 IR Inten    --     14.0228                18.8058                39.0468

                     67                     68                     69
                      A                      A                      A
 Frequencies --   3149.4374              3663.5110              3669.8286
 Red. masses --      1.0943                 1.0653                 1.0638
 Frc consts  --      6.3955                 8.4241                 8.4415
 IR Inten    --      7.4358               119.1247                14.0014

 - Thermochemistry -
 -------------------
 Temperature   298.150 Kelvin.  Pressure   1.00000 Atm.
 Atom     1 has atomic number  6 and mass  12.00000

 Molecular mass:   178.06637 amu.
 Principal axes and moments of inertia in atomic units:
                           1         2         3
     Eigenvalues --  1374.463593238.116113852.11260
           X            0.99947   0.03088  -0.01054
           Y           -0.03119   0.99907  -0.02969
           Z            0.00961   0.03000   0.99950
 This molecule is an asymmetric top.
 Rotational symmetry number  1.
 Warning -- assumption of classical behavior for rotation
           may cause significant error
 Rotational temperatures (Kelvin)      0.06302     0.02675     0.02248
 Rotational constants (GHZ):           1.31305     0.55734     0.46851
 Zero-point vibrational energy     558522.5 (Joules/Mol)
                                  133.49008 (Kcal/Mol)
 Warning -- explicit consideration of  18 degrees of freedom as
           vibrations may cause significant error
 Vibrational temperatures:     34.86    66.17    85.05   112.54   188.79
          (Kelvin)            197.20   267.98   308.10   375.92   403.46
                              466.33   514.16   520.19   587.73   721.03
                              753.43   795.97   814.96   911.99   974.74
                             1000.97  1057.09  1099.96  1141.77  1236.79
                             1297.42  1361.47  1425.31  1427.68  1491.36
                             1542.65  1558.83  1585.48  1606.92  1689.97
                             1707.28  1782.39  1824.30  1861.40  1863.70
                             1893.22  1927.28  1944.20  1972.28  2043.62
                             2055.30  2071.87  2123.51  2147.42  2163.64
                             2167.64  2182.41  2193.76  2202.92  2610.05
                             4368.78  4388.65  4419.36  4423.36  4425.78
                             4444.76  4468.24  4473.05  4484.00  4491.42
                             4517.38  4531.34  5270.98  5280.06

 Zero-point correction=                           0.212730 (Hartree/Particle)
 Thermal correction to Energy=                    0.225659
 Thermal correction to Enthalpy=                  0.226603
 Thermal correction to Gibbs Free Energy=         0.171744
 Sum of electronic and zero-point Energies=           -898.875502
 Sum of electronic and thermal Energies=              -898.862573
 Sum of electronic and thermal Enthalpies=            -898.861629
 Sum of electronic and thermal Free Energies=         -898.916488

                     E (Thermal)             CV                S
                      KCal/Mol        Cal/Mol-Kelvin    Cal/Mol-Kelvin
 Total                  141.603             46.683            115.460
 Electronic               0.000              0.000              0.000
 Translational            0.889              2.981             41.438
 Rotational               0.889              2.981             31.217
 Vibrational            139.826             40.721             42.805
 Vibration     1          0.593              1.985              6.253
 Vibration     2          0.595              1.979              4.983
 Vibration     3          0.596              1.974              4.487
 Vibration     4          0.600              1.964              3.935
 Vibration     5          0.612              1.922              2.928
 Vibration     6          0.614              1.916              2.845
 Vibration     7          0.632              1.859              2.265
 Vibration     8          0.644              1.819              2.008
 Vibration     9          0.669              1.744              1.653
 Vibration    10          0.680              1.710              1.531
 Vibration    11          0.709              1.627              1.289
 Vibration    12          0.733              1.560              1.134
 Vibration    13          0.736              1.551              1.115
 Vibration    14          0.773              1.452              0.932
 Vibration    15          0.857              1.247              0.655
 Vibration    16          0.879              1.198              0.602
 Vibration    17          0.909              1.133              0.538
 Vibration    18          0.922              1.104              0.511

 Optimization completed.
    -- Stationary point found.
 Normal termination of Gaussian 16 at Tue Dec  8 19:42:08 2020.

 ----------------------------------------------------------------------
 # B3LYP/6-311++G(d,p) empiricaldispersion=gd3bj scf=xqc pop=npa geom=c
 heck
 ----------------------------------------------------------------------

 ---------------------------------------
 CID_116505029_JID_1240_Energie_neutraal
 ---------------------------------------
 Structure from the checkpoint file:  "JID_1240.chk"
 Charge =  0 Multiplicity = 1

 SCF Done:  E(RB3LYP) =  -899.281832749     A.U. after   14 cycles
 Normal termination of Gaussian 16 at Tue Dec  8 19:44:03 2020.

 ----------------------------------------------------------------------
 # B3LYP/6-311++G(d,p) empiricaldispersion=gd3bj scf=xqc pop=npa geom=c
 heck
 ----------------------------------------------------------------------

 -------------------------------------
 CID_116505029_JID_1240_Energie_kation
 -------------------------------------
 Structure from the checkpoint file:  "JID_1240.chk"
 Charge =  1 Multiplicity = 2

 SCF Done:  E(UB3LYP) =  -898.971022775     A.U. after   20 cycles
 Normal termination of Gaussian 16 at Tue Dec  8 19:48:04 2020.
 Gaussian 16:  ES64L-G16RevA.03 25-Dec-2016

 ----------------------------------------------------------------------
 # B3LYP/6-311++G(d,p) empiricaldispersion=gd3bj scf=xqc pop=npa geom=c
 heck
 ----------------------------------------------------------------------

 ------------------------------------
 CID_116505029_JID_1240_Energie_anion
 ------------------------------------
 Structure from the checkpoint file:  "JID_1240.chk"
 Charge = -1 Multiplicity = 2

                         Standard orientation:
 ---------------------------------------------------------------------
 Center     Atomic      Atomic             Coordinates (Angstroms)
 Number     Number       Type             X           Y           Z
 ---------------------------------------------------------------------
      1          6           0       -2.547521   -1.949171    0.401589
      2          6           0       -2.532665   -0.507436    0.902773
      3         16           0       -2.540310    0.769502   -0.419564
      4          6           0       -0.935498    0.510667   -1.282061
      5          6           0        0.239747    1.341878   -0.758048
      6          6           0        0.718675    1.026351    0.665752
      7          6           0        1.144536   -0.446431    0.861291
      8          6           0        2.267144   -0.830920   -0.069363
      9          8           0        3.199295   -0.109286   -0.376685
     10          8           0        2.144123   -2.085275   -0.552076
     11          8           0        1.768647    1.899564    1.047486
     12          1           0       -3.409173   -2.125409   -0.249037
     13          1           0       -2.601625   -2.644281    1.248437
     14          1           0       -1.643570   -2.194750   -0.166382
     15          1           0       -3.447521   -0.293358    1.465214
     16          1           0       -1.696751   -0.333302    1.586888
     17          1           0       -0.704511   -0.559272   -1.296362
     18          1           0       -1.137251    0.792686   -2.320010
     19          1           0        1.086353    1.211804   -1.447355
     20          1           0       -0.023743    2.404086   -0.781099
     21          1           0       -0.099831    1.229520    1.363353
     22          1           0        1.518550   -0.553314    1.886885
     23          1           0        0.313708   -1.143648    0.738807
     24          1           0        2.921446   -2.238442   -1.123675
     25          1           0        2.545854    1.625997    0.525949
 ---------------------------------------------------------------------

 SCF Done:  E(UB3LYP) =  -899.271728214     A.U. after   32 cycles

 The electronic state is 2-A.
 Alpha  occ. eigenvalues --  -88.74257 -19.06999 -19.02279 -19.01955 -10.21322
 Alpha  occ. eigenvalues --  -10.13346 -10.10635 -10.10605 -10.08818 -10.07789
 Alpha  occ. eigenvalues --  -10.06900  -7.82869  -5.79268  -5.78893  -5.78242
 Alpha  occ. eigenvalues --   -1.01414  -0.93280  -0.92008  -0.72741  -0.69416
 Alpha  occ. eigenvalues --   -0.66571  -0.60935  -0.56710  -0.52791  -0.49717
 Alpha  occ. eigenvalues --   -0.47271  -0.41456  -0.41295  -0.39036  -0.37266
 Alpha  occ. eigenvalues --   -0.36507  -0.35766  -0.35030  -0.33089  -0.32170
 Alpha  occ. eigenvalues --   -0.31061  -0.29712  -0.29627  -0.28687  -0.27230
 Alpha  occ. eigenvalues --   -0.25988  -0.24877  -0.23453  -0.23024  -0.20798
 Alpha  occ. eigenvalues --   -0.18868  -0.18113  -0.13242   0.04447
 Alpha virt. eigenvalues --    0.06532   0.07328   0.08025   0.08788   0.09301
 Alpha virt. eigenvalues --    0.10243   0.10553   0.11048   0.11465   0.12395
 Alpha virt. eigenvalues --    0.12972   0.13304   0.13788   0.14560   0.15222

  Beta  occ. eigenvalues --  -88.74255 -19.06916 -19.02251 -19.01950 -10.21298
  Beta  occ. eigenvalues --  -10.13342 -10.10616 -10.10588 -10.08781 -10.07780
  Beta  occ. eigenvalues --  -10.06858  -7.82868  -5.79267  -5.78889  -5.78240
  Beta  occ. eigenvalues --   -1.01306  -0.93231  -0.91949  -0.72715  -0.69370
  Beta  occ. eigenvalues --   -0.66510  -0.60883  -0.56643  -0.52694  -0.49618
  Beta  occ. eigenvalues --   -0.47213  -0.41403  -0.41230  -0.38994  -0.37228
  Beta  occ. eigenvalues --   -0.36468  -0.35683  -0.34992  -0.33049  -0.32123
  Beta  occ. eigenvalues --   -0.31009  -0.29649  -0.29572  -0.28647  -0.27197
  Beta  occ. eigenvalues --   -0.25955  -0.24846  -0.23426  -0.22925  -0.20769
  Beta  occ. eigenvalues --   -0.18800  -0.18097  -0.13230
  Beta virt. eigenvalues --    0.06971   0.07515   0.08003   0.08629   0.09168
  Beta virt. eigenvalues --    0.10044   0.10376   0.11005   0.11183   0.11606
  Beta virt. eigenvalues --    0.12600   0.13107   0.13674   0.13894   0.14857

 Mulliken charges and spin densities:
               1          2
     1  C    0.819085  -1.418181
     2  C   -0.507360   0.212022
     3  S    0.054532  -0.014372
     4  C    0.068494  -0.239031
     5  C   -0.347975   0.119928
     6  C   -0.540480   0.074365
     7  C    1.037594  -1.346518
     8  C    0.016876  -0.068494
     9  O   -0.287969   0.024354
    10  O   -0.163523   0.070028
    11  O   -0.202827   0.027797
    12  H   -0.030364   0.165650
    13  H   -0.480210   0.621051
    14  H   -0.322037   0.479679
    15  H   -0.240705   0.460491
    16  H    0.005997   0.151230
    17  H    0.145939  -0.033770
    18  H    0.053826   0.208214
    19  H   -0.007588   0.141172
    20  H    0.083132   0.081098
    21  H    0.200093  -0.021759
    22  H   -0.541727   0.779597
    23  H    0.696405  -0.542759
    24  H   -0.799104   1.104123
    25  H    0.289895  -0.035914
 Sum of Mulliken charges =  -1.00000   1.00000

 Dipole moment (field-independent basis, Debye):
    X=             -2.7517    Y=              5.8143    Z=             -0.5264  Tot=              6.4541
 Quadrupole moment (field-independent basis, Debye-Ang):
   XX=           -138.3480   YY=           -125.3777   ZZ=           -109.0228
   XY=              5.6403   XZ=              7.7714   YZ=             -4.2709

 Summary of Natural Population Analysis:

                                       Natural Population
                Natural  -----------------------------------------------
    Atom  No    Charge         Core      Valence    Rydberg      Total
 -----------------------------------------------------------------------
      C    1   -0.29220      0.99965     2.28589    0.00665     3.29220
      C    2   -0.25250      0.99961     2.24201    0.01089     3.25250
      S    3    0.07833      4.99963     2.90537    0.01668     7.92167
      C    4   -0.25602      0.99958     2.24577    0.01068     3.25602
      C    5   -0.20989      0.99959     2.19956    0.01074     3.20989
      C    6    0.06482      0.99956     1.92124    0.01438     2.93518
      C    7   -0.25743      0.99956     2.24742    0.01046     3.25743
      C    8    0.41408      0.99971     1.56081    0.02540     2.58592
      O    9   -0.32416      0.99986     3.31787    0.00642     4.32416
      O   10   -0.33587      0.99988     3.32873    0.00727     4.33587
      O   11   -0.37692      0.99990     3.37093    0.00610     4.37692
      H   12    0.10030      0.00000     0.39825    0.00145     0.39970
      H   13    0.10491      0.00000     0.39295    0.00214     0.39509
      H   14    0.09967      0.00000     0.39885    0.00148     0.40033
      H   15    0.10499      0.00000     0.39385    0.00117     0.39501
      H   16    0.09820      0.00000     0.39988    0.00191     0.40180
      H   17    0.10722      0.00000     0.39114    0.00164     0.39278
      H   18    0.10731      0.00000     0.39179    0.00090     0.39269
      H   19    0.10299      0.00000     0.39573    0.00128     0.39701
      H   20    0.10422      0.00000     0.39454    0.00124     0.39578
      H   21    0.09055      0.00000     0.40737    0.00208     0.40945
      H   22    0.12378      0.00000     0.37459    0.00163     0.37622
      H   23    0.11502      0.00000     0.38279    0.00219     0.38498
      H   24    0.24923      0.00000     0.20736    0.04341     0.25077
      H   25    0.23936      0.00000     0.25774    0.00290     0.26064
 =======================================================================
   * Total *   -0.00000     14.99652    32.81242    0.19106    48.00000

 Normal termination of Gaussian 16 at Tue Dec  8 19:53:46 2020.
