 Gaussian 16, Revision A.03,

 -----------------------------------------------------------
 # opt freq B3LYP/6-31G(d) empiricaldispersion=gd3bj scf=xqc
 -----------------------------------------------------------

 ------------------------------
 CID_82560403_JID_9822_neutraal
 ------------------------------
 Symbolic Z-matrix:
 Charge =  0 Multiplicity = 1

 SCF Done:  E(RB3LYP) =  -818.954214182     A.U. after   14 cycles
 SCF Done:  E(RB3LYP) =  -818.958246503     A.U. after   13 cycles
 SCF Done:  E(RB3LYP) =  -818.959590980     A.U. after   12 cycles
 SCF Done:  E(RB3LYP) =  -818.960143377     A.U. after   12 cycles
 SCF Done:  E(RB3LYP) =  -818.960550042     A.U. after   12 cycles
 SCF Done:  E(RB3LYP) =  -818.960795309     A.U. after   12 cycles
 SCF Done:  E(RB3LYP) =  -818.960958595     A.U. after   12 cycles
 SCF Done:  E(RB3LYP) =  -818.961075497     A.U. after   12 cycles
 SCF Done:  E(RB3LYP) =  -818.961094709     A.U. after   12 cycles
 SCF Done:  E(RB3LYP) =  -818.961142639     A.U. after   12 cycles
 SCF Done:  E(RB3LYP) =  -818.961313696     A.U. after    9 cycles
 SCF Done:  E(RB3LYP) =  -818.961313935     A.U. after    9 cycles
 SCF Done:  E(RB3LYP) =  -818.961314305     A.U. after    8 cycles
 SCF Done:  E(RB3LYP) =  -818.961314292     A.U. after    8 cycles
 SCF Done:  E(RB3LYP) =  -818.961314256     A.U. after    7 cycles
 Optimization completed.
    -- Stationary point found.
 Normal termination of Gaussian 16 at Sat Dec 12 10:21:44 2020.

 --------------------------------------------------------------------
 #N Geom=AllCheck Guess=TCheck SCRF=Check GenChk RB3LYP/6-31G(d) Freq
 --------------------------------------------------------------------

 Structure from the checkpoint file:  "JID_9822.chk"
 ------------------------------
 CID_82560403_JID_9822_neutraal
 ------------------------------
 Charge =  0 Multiplicity = 1

 SCF Done:  E(RB3LYP) =  -818.961314256     A.U. after    1 cycles

  Exact polarizability: 207.571  36.065 128.279   2.225  -8.672 143.124
 Approx polarizability: 338.642  72.560 200.943  -2.995 -20.641 275.770

                      1                      2                      3
                      A                      A                      A
 Frequencies --     23.0419                32.9979                44.9619
 Red. masses --      5.4489                 4.8704                 5.2322
 Frc consts  --      0.0017                 0.0031                 0.0062
 IR Inten    --      0.2809                 0.9267                 2.2427

                      4                      5                      6
                      A                      A                      A
 Frequencies --     60.2433                97.3917               119.3216
 Red. masses --      5.7448                 5.0515                 5.1014
 Frc consts  --      0.0123                 0.0282                 0.0428
 IR Inten    --      2.0200                 0.7857                 2.2846

                      7                      8                      9
                      A                      A                      A
 Frequencies --    191.3432               217.4446               236.7247
 Red. masses --      5.3236                 4.6510                 4.1280
 Frc consts  --      0.1148                 0.1296                 0.1363
 IR Inten    --      1.9381                 0.3874                 1.3546

                     10                     11                     12
                      A                      A                      A
 Frequencies --    277.7318               300.1193               351.6482
 Red. masses --      5.6218                 3.2307                 3.1279
 Frc consts  --      0.2555                 0.1714                 0.2279
 IR Inten    --      0.5103                 2.2415                 4.4818

                     13                     14                     15
                      A                      A                      A
 Frequencies --    362.8236               365.5247               409.9629
 Red. masses --      1.1990                 4.7537                 3.3291
 Frc consts  --      0.0930                 0.3742                 0.3297
 IR Inten    --    131.8843                10.3189                 3.9665

                     16                     17                     18
                      A                      A                      A
 Frequencies --    437.1431               449.3228               460.3833
 Red. masses --      4.8081                 3.1254                 3.3644
 Frc consts  --      0.5413                 0.3718                 0.4201
 IR Inten    --      4.2105                 8.4146                 2.4054

                     19                     20                     21
                      A                      A                      A
 Frequencies --    536.5752               541.7944               569.3170
 Red. masses --      6.9000                 4.4387                 4.6186
 Frc consts  --      1.1705                 0.7677                 0.8820
 IR Inten    --      1.0550                 1.0440                 0.3195

                     22                     23                     24
                      A                      A                      A
 Frequencies --    620.2138               633.3049               645.5074
 Red. masses --      4.6275                 7.1121                 4.8174
 Frc consts  --      1.0488                 1.6806                 1.1827
 IR Inten    --      3.9016                 3.3718                 1.3695

                     25                     26                     27
                      A                      A                      A
 Frequencies --    699.2754               719.9470               729.0838
 Red. masses --      2.9279                 1.4983                 2.0848
 Frc consts  --      0.8435                 0.4575                 0.6529
 IR Inten    --      1.1611                48.0956                24.5189

                     28                     29                     30
                      A                      A                      A
 Frequencies --    733.7594               741.9543               763.1619
 Red. masses --      4.3075                 4.4969                 4.8290
 Frc consts  --      1.3664                 1.4585                 1.6571
 IR Inten    --      6.8295                 1.1232                 7.1706

                     31                     32                     33
                      A                      A                      A
 Frequencies --    772.6655               806.2728               830.2712
 Red. masses --      2.6770                 1.6675                 1.7957
 Frc consts  --      0.9416                 0.6387                 0.7293
 IR Inten    --     29.2548                14.2648                18.5350

                     34                     35                     36
                      A                      A                      A
 Frequencies --    844.1745               862.5808               894.6131
 Red. masses --      1.3084                 1.5485                 1.4029
 Frc consts  --      0.5494                 0.6788                 0.6615
 IR Inten    --      5.8847                24.9731                 0.8081

                     37                     38                     39
                      A                      A                      A
 Frequencies --    931.8120               948.4220               953.3558
 Red. masses --      4.9141                 1.3809                 2.4108
 Frc consts  --      2.5139                 0.7319                 1.2910
 IR Inten    --      4.4351                 1.0140                 5.3902

                     40                     41                     42
                      A                      A                      A
 Frequencies --    970.9809               971.8613               995.7556
 Red. masses --      1.2638                 1.4440                 1.3587
 Frc consts  --      0.7020                 0.8036                 0.7938
 IR Inten    --      0.2780                 3.4532                 0.5505

                     43                     44                     45
                      A                      A                      A
 Frequencies --    998.9192              1021.6514              1037.6556
 Red. masses --      2.3298                 6.1204                 5.5927
 Frc consts  --      1.3697                 3.7639                 3.5479
 IR Inten    --      3.4587                 3.4427                15.7650

                     46                     47                     48
                      A                      A                      A
 Frequencies --   1059.1071              1086.8335              1113.5662
 Red. masses --      5.3006                 2.1374                 1.5754
 Frc consts  --      3.5031                 1.4875                 1.1510
 IR Inten    --      1.5533                 4.7201                 5.6055

                     49                     50                     51
                      A                      A                      A
 Frequencies --   1114.6187              1144.8746              1165.5944
 Red. masses --      1.3268                 1.5470                 1.8113
 Frc consts  --      0.9712                 1.1947                 1.4499
 IR Inten    --      6.4411                10.8874                 3.3054

                     52                     53                     54
                      A                      A                      A
 Frequencies --   1197.4039              1205.4977              1208.4919
 Red. masses --      1.1526                 1.8884                 1.8317
 Frc consts  --      0.9736                 1.6169                 1.5762
 IR Inten    --     19.8620                36.1075                 0.5483

                     55                     56                     57
                      A                      A                      A
 Frequencies --   1227.6340              1235.8482              1277.9921
 Red. masses --      1.3293                 1.4520                 3.0868
 Frc consts  --      1.1803                 1.3066                 2.9704
 IR Inten    --    110.2739                 0.4430                13.6148

                     58                     59                     60
                      A                      A                      A
 Frequencies --   1304.7618              1315.3655              1329.0871
 Red. masses --      5.1283                 3.1285                 3.9631
 Frc consts  --      5.1439                 3.1892                 4.1247
 IR Inten    --      8.3214                15.6781                83.9397

                     61                     62                     63
                      A                      A                      A
 Frequencies --   1352.3401              1369.5772              1373.2260
 Red. masses --      1.7203                 1.8557                 1.3540
 Frc consts  --      1.8536                 2.0509                 1.5044
 IR Inten    --     21.9955                 1.0047                 4.0195

                     64                     65                     66
                      A                      A                      A
 Frequencies --   1398.1417              1412.7376              1452.1008
 Red. masses --      2.2709                 2.3515                 2.3274
 Frc consts  --      2.6154                 2.7651                 2.8915
 IR Inten    --     15.0632                 7.5697                27.1841

                     67                     68                     69
                      A                      A                      A
 Frequencies --   1459.7857              1506.6584              1515.0527
 Red. masses --      2.5204                 2.4842                 2.6294
 Frc consts  --      3.1644                 3.3225                 3.5561
 IR Inten    --     26.6071                52.9600                34.7505

                     70                     71                     72
                      A                      A                      A
 Frequencies --   1528.8430              1534.3405              1559.9096
 Red. masses --      1.4083                 2.7124                 2.4614
 Frc consts  --      1.9394                 3.7622                 3.5288
 IR Inten    --     26.0892                25.2158                 2.9927

                     73                     74                     75
                      A                      A                      A
 Frequencies --   1577.0652              1624.9531              1656.6155
 Red. masses --      5.7872                 5.1457                 5.8064
 Frc consts  --      8.4805                 8.0052                 9.3885
 IR Inten    --      0.7892                10.9293                 1.4147

                     76                     77                     78
                      A                      A                      A
 Frequencies --   1667.6615              1671.9188              3080.9114
 Red. masses --      5.7598                 5.8866                 1.0589
 Frc consts  --      9.4379                 9.6950                 5.9217
 IR Inten    --      9.2619                71.2012                23.8999

                     79                     80                     81
                      A                      A                      A
 Frequencies --   3121.4109              3165.4974              3174.8190
 Red. masses --      1.1067                 1.0894                 1.0900
 Frc consts  --      6.3530                 6.4314                 6.4730
 IR Inten    --     11.5428                23.7448                15.6839

                     82                     83                     84
                      A                      A                      A
 Frequencies --   3185.9816              3189.5770              3204.6359
 Red. masses --      1.0902                 1.0866                 1.0929
 Frc consts  --      6.5201                 6.5134                 6.6126
 IR Inten    --      8.7692                 4.4557                11.6989

                     85                     86                     87
                      A                      A                      A
 Frequencies --   3209.9576              3221.7813              3227.1331
 Red. masses --      1.0907                 1.0944                 1.0958
 Frc consts  --      6.6217                 6.6930                 6.7236
 IR Inten    --     13.3009                 8.0063                 5.2489

                     88                     89                     90
                      A                      A                      A
 Frequencies --   3259.5831              3285.5722              3742.9727
 Red. masses --      1.0912                 1.1040                 1.0659
 Frc consts  --      6.8309                 7.0219                 8.7985
 IR Inten    --      8.7244                 5.5317                38.1485

 - Thermochemistry -
 -------------------
 Temperature   298.150 Kelvin.  Pressure   1.00000 Atm.
 Atom     1 has atomic number  6 and mass  12.00000

 Molecular mass:   251.10586 amu.
 Principal axes and moments of inertia in atomic units:
                           1         2         3
     Eigenvalues --  3087.840514779.785956310.80523
           X            0.99945   0.03219   0.00742
           Y           -0.03219   0.99948   0.00049
           Z           -0.00740  -0.00073   0.99997
 This molecule is an asymmetric top.
 Rotational symmetry number  1.
 Warning -- assumption of classical behavior for rotation
           may cause significant error
 Rotational temperatures (Kelvin)      0.02805     0.01812     0.01372
 Rotational constants (GHZ):           0.58447     0.37758     0.28598
 Zero-point vibrational energy     669492.8 (Joules/Mol)
                                  160.01262 (Kcal/Mol)
 Warning -- explicit consideration of  22 degrees of freedom as
           vibrations may cause significant error
 Vibrational temperatures:     33.15    47.48    64.69    86.68   140.12
          (Kelvin)            171.68   275.30   312.85   340.59   399.59
                              431.80   505.94   522.02   525.91   589.85
                              628.95   646.48   662.39   772.01   779.52
                              819.12   892.35   911.18   928.74  1006.10
                             1035.84  1048.99  1055.72  1067.51  1098.02
                             1111.69  1160.05  1194.58  1214.58  1241.06
                             1287.15  1340.67  1364.57  1371.67  1397.02
                             1398.29  1432.67  1437.22  1469.93  1492.95
                             1523.82  1563.71  1602.17  1603.69  1647.22
                             1677.03  1722.80  1734.44  1738.75  1766.29
                             1778.11  1838.75  1877.26  1892.52  1912.26
                             1945.72  1970.52  1975.77  2011.61  2032.61
                             2089.25  2100.31  2167.75  2179.82  2199.66
                             2207.57  2244.36  2269.05  2337.95  2383.50
                             2399.39  2405.52  4432.74  4491.01  4554.44
                             4567.86  4583.92  4589.09  4610.76  4618.41
                             4635.42  4643.12  4689.81  4727.21  5385.30

 Zero-point correction=                           0.254996 (Hartree/Particle)
 Thermal correction to Energy=                    0.270052
 Thermal correction to Enthalpy=                  0.270997
 Thermal correction to Gibbs Free Energy=         0.210907
 Sum of electronic and zero-point Energies=           -818.706318
 Sum of electronic and thermal Energies=              -818.691262
 Sum of electronic and thermal Enthalpies=            -818.690318
 Sum of electronic and thermal Free Energies=         -818.750407

                     E (Thermal)             CV                S
                      KCal/Mol        Cal/Mol-Kelvin    Cal/Mol-Kelvin
 Total                  169.460             59.410            126.469
 Electronic               0.000              0.000              0.000
 Translational            0.889              2.981             42.462
 Rotational               0.889              2.981             32.899
 Vibrational            167.683             53.448             51.108
 Vibration     1          0.593              1.985              6.353
 Vibration     2          0.594              1.983              5.641
 Vibration     3          0.595              1.979              5.028
 Vibration     4          0.597              1.973              4.449
 Vibration     5          0.603              1.951              3.506
 Vibration     6          0.609              1.933              3.111
 Vibration     7          0.634              1.852              2.215
 Vibration     8          0.646              1.814              1.980
 Vibration     9          0.656              1.785              1.827
 Vibration    10          0.679              1.715              1.548
 Vibration    11          0.693              1.673              1.416
 Vibration    12          0.728              1.572              1.159
 Vibration    13          0.737              1.549              1.110
 Vibration    14          0.739              1.543              1.099
 Vibration    15          0.774              1.449              0.927
 Vibration    16          0.797              1.389              0.836
 Vibration    17          0.808              1.362              0.798
 Vibration    18          0.818              1.338              0.765
 Vibration    19          0.892              1.169              0.573
 Vibration    20          0.897              1.158              0.561
 Vibration    21          0.925              1.098              0.506
 Vibration    22          0.980              0.989              0.416

 Optimization completed.
    -- Stationary point found.
 Normal termination of Gaussian 16 at Sat Dec 12 10:39:23 2020.

 ----------------------------------------------------------------------
 # B3LYP/6-311++G(d,p) empiricaldispersion=gd3bj scf=xqc pop=npa geom=c
 heck
 ----------------------------------------------------------------------

 --------------------------------------
 CID_82560403_JID_9822_Energie_neutraal
 --------------------------------------
 Structure from the checkpoint file:  "JID_9822.chk"
 Charge =  0 Multiplicity = 1

 SCF Done:  E(RB3LYP) =  -819.180640364     A.U. after   16 cycles
 Normal termination of Gaussian 16 at Sat Dec 12 10:45:21 2020.

 ----------------------------------------------------------------------
 # B3LYP/6-311++G(d,p) empiricaldispersion=gd3bj scf=xqc pop=npa geom=c
 heck
 ----------------------------------------------------------------------

 ------------------------------------
 CID_82560403_JID_9822_Energie_kation
 ------------------------------------
 Structure from the checkpoint file:  "JID_9822.chk"
 Charge =  1 Multiplicity = 2

 SCF Done:  E(UB3LYP) =  -818.892375290     A.U. after   24 cycles
 Normal termination of Gaussian 16 at Sat Dec 12 10:57:44 2020.
 Gaussian 16:  ES64L-G16RevA.03 25-Dec-2016

 ----------------------------------------------------------------------
 # B3LYP/6-311++G(d,p) empiricaldispersion=gd3bj scf=xqc pop=npa geom=c
 heck
 ----------------------------------------------------------------------

 -----------------------------------
 CID_82560403_JID_9822_Energie_anion
 -----------------------------------
 Structure from the checkpoint file:  "JID_9822.chk"
 Charge = -1 Multiplicity = 2

                         Standard orientation:
 ---------------------------------------------------------------------
 Center     Atomic      Atomic             Coordinates (Angstroms)
 Number     Number       Type             X           Y           Z
 ---------------------------------------------------------------------
      1          6           0       -1.147956    2.414673   -1.347110
      2          6           0       -0.018523    2.234619   -0.548384
      3          6           0       -0.120994    1.499460    0.635684
      4          6           0       -1.352058    0.964895    1.013148
      5          6           0       -2.470478    1.115128    0.189839
      6          6           0       -2.373483    1.854485   -0.991625
      7          8           0       -3.673690    0.543654    0.491349
      8          6           0        1.113892    1.199192    1.460178
      9          7           0        2.121099    0.470924    0.678390
     10          6           0        3.379552    0.948465    0.365728
     11          6           0        3.883641    0.091493   -0.581094
     12          7           0        2.968111   -0.890566   -0.876101
     13          6           0        1.918425   -0.646075   -0.107905
     14          6           0        0.656270   -1.396809   -0.123933
     15          6           0        0.043866   -1.848485    1.052149
     16          7           0       -1.158328   -2.431038    1.098244
     17          6           0       -1.792583   -2.615310   -0.067281
     18          6           0       -1.252841   -2.254935   -1.303164
     19          6           0       -0.008507   -1.635110   -1.331923
     20          1           0       -1.070820    2.984546   -2.268665
     21          1           0        0.942943    2.635637   -0.855918
     22          1           0       -1.431348    0.371428    1.920100
     23          1           0       -3.251489    1.962972   -1.619553
     24          1           0       -3.553296   -0.049352    1.250049
     25          1           0        1.596357    2.119838    1.800676
     26          1           0        0.847435    0.624236    2.351352
     27          1           0        3.780365    1.829712    0.844109
     28          1           0        4.852174    0.120999   -1.061163
     29          1           0        0.550111   -1.721239    2.007698
     30          1           0       -2.775991   -3.078181   -0.009659
     31          1           0       -1.807599   -2.440103   -2.217514
     32          1           0        0.445164   -1.309092   -2.261875
 ---------------------------------------------------------------------

 SCF Done:  E(UB3LYP) =  -819.175994337     A.U. after   33 cycles
 SCF Done:  E(UB3LYP) =  -819.175994337     a.u. after    1 cycles

 The electronic state is 2-A.
 Alpha  occ. eigenvalues --  -19.05273 -14.25519 -14.17740 -14.17708 -10.12780
 Alpha  occ. eigenvalues --  -10.11391 -10.11166 -10.08418 -10.08409 -10.07363
 Alpha  occ. eigenvalues --  -10.07224 -10.07196 -10.07051 -10.06415 -10.06098
 Alpha  occ. eigenvalues --  -10.05942 -10.05818 -10.05725 -10.04980  -0.96231
 Alpha  occ. eigenvalues --   -0.90491  -0.81619  -0.77904  -0.74573  -0.69091
 Alpha  occ. eigenvalues --   -0.66681  -0.65157  -0.63519  -0.61448  -0.59233
 Alpha  occ. eigenvalues --   -0.52201  -0.51711  -0.50987  -0.49308  -0.48284
 Alpha  occ. eigenvalues --   -0.45371  -0.43521  -0.40922  -0.40071  -0.39126
 Alpha  occ. eigenvalues --   -0.37560  -0.36108  -0.34983  -0.34071  -0.32809
 Alpha  occ. eigenvalues --   -0.32388  -0.32169  -0.31057  -0.30244  -0.29988
 Alpha  occ. eigenvalues --   -0.29186  -0.28244  -0.27513  -0.27345  -0.25502
 Alpha  occ. eigenvalues --   -0.24471  -0.24165  -0.23004  -0.17281  -0.16815
 Alpha  occ. eigenvalues --   -0.15969  -0.15852  -0.14119  -0.13641  -0.12314
 Alpha  occ. eigenvalues --   -0.10771   0.04747
 Alpha virt. eigenvalues --    0.06659   0.07810   0.08305   0.08524   0.08886
 Alpha virt. eigenvalues --    0.09005   0.09528   0.09790   0.10345   0.10681
 Alpha virt. eigenvalues --    0.11083   0.11640   0.12519   0.12965   0.13292

  Beta  occ. eigenvalues --  -19.05269 -14.25461 -14.17667 -14.17546 -10.12768
  Beta  occ. eigenvalues --  -10.11380 -10.11167 -10.08461 -10.08374 -10.07259
  Beta  occ. eigenvalues --  -10.07232 -10.07210 -10.06825 -10.06396 -10.06014
  Beta  occ. eigenvalues --  -10.05925 -10.05807 -10.05695 -10.04708  -0.96216
  Beta  occ. eigenvalues --   -0.90411  -0.81279  -0.77807  -0.74473  -0.68734
  Beta  occ. eigenvalues --   -0.66512  -0.64944  -0.63449  -0.61296  -0.59133
  Beta  occ. eigenvalues --   -0.52166  -0.51433  -0.50774  -0.49122  -0.48171
  Beta  occ. eigenvalues --   -0.45304  -0.43430  -0.40834  -0.40003  -0.38953
  Beta  occ. eigenvalues --   -0.37481  -0.35948  -0.34825  -0.33983  -0.32741
  Beta  occ. eigenvalues --   -0.32312  -0.32078  -0.30950  -0.30116  -0.29894
  Beta  occ. eigenvalues --   -0.29124  -0.28173  -0.27321  -0.26679  -0.25424
  Beta  occ. eigenvalues --   -0.24359  -0.24058  -0.22830  -0.16656  -0.16298
  Beta  occ. eigenvalues --   -0.15588  -0.15402  -0.13814  -0.13284  -0.11974
  Beta  occ. eigenvalues --   -0.10433
  Beta virt. eigenvalues --    0.07399   0.08031   0.08306   0.08768   0.08921
  Beta virt. eigenvalues --    0.09018   0.09433   0.09754   0.10130   0.10464
  Beta virt. eigenvalues --    0.10751   0.11128   0.11925   0.12674   0.12908

 Mulliken charges and spin densities:
               1          2
     1  C   -0.281137  -0.054606
     2  C   -0.776109   0.343538
     3  C    0.383876   0.364769
     4  C    0.493226  -0.191873
     5  C   -0.261369  -0.180030
     6  C    0.131623  -0.083147
     7  O   -0.209215   0.007736
     8  C   -0.085432  -0.790857
     9  N    0.201684   0.015723
    10  C    0.079946  -0.206956
    11  C    0.454750  -0.445298
    12  N   -0.066010   0.023911
    13  C   -0.202472  -0.168439
    14  C    1.356811   0.057725
    15  C   -0.968719  -0.143629
    16  N   -0.080552   0.083667
    17  C   -0.542964   0.207370
    18  C    0.010251  -0.078341
    19  C   -0.804544   0.269090
    20  H    0.139492   0.013030
    21  H   -0.010902   0.182194
    22  H    0.172406   0.001873
    23  H    0.143521   0.009177
    24  H    0.235291   0.032202
    25  H   -0.636153   0.841434
    26  H    0.073109   0.087391
    27  H   -0.616782   0.763812
    28  H    0.107453   0.040926
    29  H    0.138743   0.003214
    30  H    0.123308  -0.007460
    31  H    0.125406   0.020873
    32  H    0.171463  -0.019017
 Sum of Mulliken charges =  -1.00000   1.00000

 Dipole moment (field-independent basis, Debye):
    X=             -3.3121    Y=             -0.4787    Z=             -0.9576  Tot=              3.4808
 Quadrupole moment (field-independent basis, Debye-Ang):
   XX=           -156.5863   YY=           -158.0393   ZZ=           -126.3706
   XY=             -5.9197   XZ=             -0.7590   YZ=             -7.3896

 Summary of Natural Population Analysis:

                                       Natural Population
                Natural  -----------------------------------------------
    Atom  No    Charge         Core      Valence    Rydberg      Total
 -----------------------------------------------------------------------
      C    1   -0.09666      0.99958     2.08715    0.00993     3.09666
      C    2   -0.11180      0.99950     2.10217    0.01012     3.11180
      C    3   -0.00297      0.99950     1.99271    0.01076     3.00297
      C    4   -0.12942      0.99946     2.11813    0.01182     3.12942
      C    5    0.16223      0.99938     1.82600    0.01239     2.83777
      C    6   -0.11624      0.99952     2.10800    0.00872     3.11624
      O    7   -0.34140      0.99987     3.33531    0.00623     4.34140
      C    8   -0.08684      0.99957     2.07440    0.01288     3.08684
      N    9   -0.19918      0.99962     2.68883    0.01074     3.69918
      C   10   -0.03397      0.99955     2.02174    0.01268     3.03397
      C   11   -0.04356      0.99958     2.02923    0.01474     3.04356
      N   12   -0.24846      0.99970     2.74072    0.00804     3.74846
      C   13    0.19194      0.99956     1.78929    0.01921     2.80806
      C   14   -0.04836      0.99947     2.03845    0.01045     3.04836
      C   15    0.02414      0.99955     1.96250    0.01382     2.97586
      N   16   -0.22820      0.99971     2.71493    0.01356     3.72820
      C   17    0.05799      0.99960     1.92790    0.01450     2.94201
      C   18   -0.13876      0.99956     2.13139    0.00781     3.13876
      C   19   -0.01592      0.99953     2.00812    0.00827     3.01592
      H   20    0.09646      0.00000     0.40280    0.00074     0.40354
      H   21    0.10374      0.00000     0.39509    0.00118     0.39626
      H   22    0.10114      0.00000     0.39715    0.00171     0.39886
      H   23    0.10045      0.00000     0.39861    0.00093     0.39955
      H   24    0.23562      0.00000     0.26176    0.00262     0.26438
      H   25    0.11141      0.00000     0.38474    0.00385     0.38859
      H   26    0.09878      0.00000     0.39999    0.00123     0.40122
      H   27    0.10369      0.00000     0.39484    0.00147     0.39631
      H   28    0.09274      0.00000     0.40630    0.00096     0.40726
      H   29    0.08414      0.00000     0.41423    0.00163     0.41586
      H   30    0.08007      0.00000     0.41873    0.00119     0.41993
      H   31    0.09691      0.00000     0.40204    0.00105     0.40309
      H   32    0.10030      0.00000     0.39856    0.00115     0.39970
 =======================================================================
   * Total *   -0.00000     18.99181    46.77181    0.23637    66.00000

 Normal termination of Gaussian 16 at Sat Dec 12 11:15:31 2020.
