 Gaussian 16, Revision A.03,

 -----------------------------------------------------------
 # opt freq B3LYP/6-31G(d) empiricaldispersion=gd3bj scf=xqc
 -----------------------------------------------------------

 --------------------------------
 CID_137736925_JID_10159_neutraal
 --------------------------------
 Symbolic Z-matrix:
 Charge =  0 Multiplicity = 1

 SCF Done:  E(RB3LYP) =  -1198.71297724     A.U. after   15 cycles
 SCF Done:  E(RB3LYP) =  -1198.71804810     A.U. after   12 cycles
 SCF Done:  E(RB3LYP) =  -1198.71906789     A.U. after   12 cycles
 SCF Done:  E(RB3LYP) =  -1198.71935557     A.U. after   12 cycles
 SCF Done:  E(RB3LYP) =  -1198.71947287     A.U. after   12 cycles
 SCF Done:  E(RB3LYP) =  -1198.71952411     A.U. after   12 cycles
 SCF Done:  E(RB3LYP) =  -1198.71956319     A.U. after   12 cycles
 SCF Done:  E(RB3LYP) =  -1198.71957885     A.U. after   11 cycles
 SCF Done:  E(RB3LYP) =  -1198.71958260     A.U. after    9 cycles
 SCF Done:  E(RB3LYP) =  -1198.71958363     A.U. after    8 cycles
 SCF Done:  E(RB3LYP) =  -1198.71958382     A.U. after    7 cycles
 SCF Done:  E(RB3LYP) =  -1198.71958398     A.U. after    7 cycles
 SCF Done:  E(RB3LYP) =  -1198.71958410     A.U. after    8 cycles
 SCF Done:  E(RB3LYP) =  -1198.71958416     A.U. after    7 cycles
 SCF Done:  E(RB3LYP) =  -1198.71958420     A.U. after    7 cycles
 Optimization completed.
    -- Stationary point found.
 Normal termination of Gaussian 16 at Sat Dec 12 14:57:23 2020.

 --------------------------------------------------------------------
 #N Geom=AllCheck Guess=TCheck SCRF=Check GenChk RB3LYP/6-31G(d) Freq
 --------------------------------------------------------------------

 Structure from the checkpoint file:  "JID_10159.chk"
 --------------------------------
 CID_137736925_JID_10159_neutraal
 --------------------------------
 Charge =  0 Multiplicity = 1

 SCF Done:  E(RB3LYP) =  -1198.71958420     A.U. after    1 cycles

  Exact polarizability: 423.913   5.099 189.195  -0.004   0.006  67.231
 Approx polarizability: 581.250   2.581 378.972  -0.009   0.008 110.830

                      1                      2                      3
                      A                      A                      A
 Frequencies --     23.7410                32.2538                45.2767
 Red. masses --      5.3156                 6.8522                 4.0715
 Frc consts  --      0.0018                 0.0042                 0.0049
 IR Inten    --      0.8481                 0.4968                 0.4854

                      4                      5                      6
                      A                      A                      A
 Frequencies --     64.4919                90.8525               153.4057
 Red. masses --      6.7834                 6.7570                 6.1047
 Frc consts  --      0.0166                 0.0329                 0.0846
 IR Inten    --      0.7854                 0.2336                 0.0561

                      7                      8                      9
                      A                      A                      A
 Frequencies --    180.3176               196.0218               199.8161
 Red. masses --      6.3471                 5.9564                 9.4660
 Frc consts  --      0.1216                 0.1348                 0.2227
 IR Inten    --      0.7085                 1.7260                 0.3827

                     10                     11                     12
                      A                      A                      A
 Frequencies --    284.1062               309.0011               372.7058
 Red. masses --      6.2950                 5.8441                 6.1173
 Frc consts  --      0.2994                 0.3288                 0.5007
 IR Inten    --      0.7435                 3.8521                 0.0008

                     13                     14                     15
                      A                      A                      A
 Frequencies --    409.1209               416.4593               427.5104
 Red. masses --      3.0192                 9.3161                 7.3299
 Frc consts  --      0.2977                 0.9520                 0.7893
 IR Inten    --      0.0022                 0.6211                 8.1683

                     16                     17                     18
                      A                      A                      A
 Frequencies --    440.3325               468.3172               513.0200
 Red. masses --      3.3045                 5.1133                 4.0319
 Frc consts  --      0.3775                 0.6607                 0.6252
 IR Inten    --      2.4700                 0.0402                 2.5509

                     19                     20                     21
                      A                      A                      A
 Frequencies --    513.8433               564.7662               599.7490
 Red. masses --      8.8164                 3.5648                 7.8360
 Frc consts  --      1.3715                 0.6699                 1.6607
 IR Inten    --      0.2270                 3.1014                 0.3018

                     22                     23                     24
                      A                      A                      A
 Frequencies --    630.4067               631.3170               646.3491
 Red. masses --      2.9674                 4.8207                 7.3269
 Frc consts  --      0.6948                 1.1320                 1.8035
 IR Inten    --     17.1903                 0.8521                 3.7207

                     25                     26                     27
                      A                      A                      A
 Frequencies --    693.3449               696.2838               721.5128
 Red. masses --      9.0484                 2.4775                 7.0693
 Frc consts  --      2.5628                 0.7077                 2.1683
 IR Inten    --     23.7106                 3.7298                 1.3062

                     28                     29                     30
                      A                      A                      A
 Frequencies --    732.2858               735.6766               739.1883
 Red. masses --      7.4271                 2.2840                 2.4088
 Frc consts  --      2.3465                 0.7283                 0.7755
 IR Inten    --      2.4378                 2.7359                25.5646

                     31                     32                     33
                      A                      A                      A
 Frequencies --    772.2871               774.2604               833.1580
 Red. masses --      1.6983                 3.1122                 1.4549
 Frc consts  --      0.5968                 1.0992                 0.5950
 IR Inten    --     27.5998                25.4172                19.6697

                     34                     35                     36
                      A                      A                      A
 Frequencies --    848.6838               862.0469               868.5656
 Red. masses --      1.2653                 1.7432                 1.3772
 Frc consts  --      0.5370                 0.7632                 0.6122
 IR Inten    --      0.6599                24.6420                 2.1778

                     37                     38                     39
                      A                      A                      A
 Frequencies --    877.9947               933.7351               942.3475
 Red. masses --      6.4680                 5.4556                 1.3524
 Frc consts  --      2.9377                 2.8025                 0.7076
 IR Inten    --      0.4437                59.0681                 1.5386

                     40                     41                     42
                      A                      A                      A
 Frequencies --    956.4333               976.1387               978.4291
 Red. masses --      8.5310                 1.3412                 8.2085
 Frc consts  --      4.5979                 0.7530                 4.6299
 IR Inten    --     33.5489                 1.4442                47.2768

                     43                     44                     45
                      A                      A                      A
 Frequencies --    982.9976               984.7558              1040.2484
 Red. masses --      1.2575                 1.3013                 2.9106
 Frc consts  --      0.7159                 0.7435                 1.8557
 IR Inten    --      0.0016                 0.0224                 2.8469

                     46                     47                     48
                      A                      A                      A
 Frequencies --   1049.1369              1089.2661              1094.3128
 Red. masses --      2.1339                 4.9351                 2.5653
 Frc consts  --      1.3838                 3.4500                 1.8100
 IR Inten    --      4.3995                10.9259                16.9666

                     49                     50                     51
                      A                      A                      A
 Frequencies --   1108.6351              1140.9708              1153.7964
 Red. masses --      4.0840                 6.3674                 1.4796
 Frc consts  --      2.9574                 4.8838                 1.1605
 IR Inten    --     58.4940                71.0842                16.6448

                     52                     53                     54
                      A                      A                      A
 Frequencies --   1155.6603              1195.2284              1219.7964
 Red. masses --      1.4339                 1.1664                 1.1581
 Frc consts  --      1.1283                 0.9818                 1.0153
 IR Inten    --      0.9986                 1.7706                 8.8431

                     55                     56                     57
                      A                      A                      A
 Frequencies --   1249.6624              1265.3789              1288.6311
 Red. masses --      1.3210                 3.8856                 2.0269
 Frc consts  --      1.2155                 3.6656                 1.9830
 IR Inten    --     14.6041                43.0458                11.0488

                     58                     59                     60
                      A                      A                      A
 Frequencies --   1319.1791              1329.5173              1348.4678
 Red. masses --      3.0063                 2.8483                 2.4062
 Frc consts  --      3.0824                 2.9663                 2.5779
 IR Inten    --     20.1500                 5.0426                 7.6288

                     61                     62                     63
                      A                      A                      A
 Frequencies --   1355.1203              1365.0801              1369.0715
 Red. masses --      1.6601                 4.5300                 5.1469
 Frc consts  --      1.7961                 4.9735                 5.6839
 IR Inten    --      9.3540                 2.0633                20.1271

                     64                     65                     66
                      A                      A                      A
 Frequencies --   1464.8365              1481.5830              1506.7727
 Red. masses --      3.1876                 2.5155                 2.5506
 Frc consts  --      4.0299                 3.2533                 3.4118
 IR Inten    --     15.3855                19.9357                 4.3775

                     67                     68                     69
                      A                      A                      A
 Frequencies --   1541.4811              1566.3441              1579.7085
 Red. masses --      2.9534                 6.0800                 6.2007
 Frc consts  --      4.1348                 8.7888                 9.1169
 IR Inten    --     59.3019                43.6161                20.1478

                     70                     71                     72
                      A                      A                      A
 Frequencies --   1611.3477              1616.4280              1635.4924
 Red. masses --      5.9921                 5.5336                 6.7024
 Frc consts  --      9.1665                 8.5186                10.5627
 IR Inten    --      0.0348                 4.0021                 1.6935

                     73                     74                     75
                      A                      A                      A
 Frequencies --   1658.5402              1673.4314              3192.0260
 Red. masses --      6.4635                 5.6777                 1.0858
 Frc consts  --     10.4753                 9.3677                 6.5183
 IR Inten    --      2.5792                16.4764                 1.4112

                     76                     77                     78
                      A                      A                      A
 Frequencies --   3192.3508              3194.0061              3204.0713
 Red. masses --      1.0892                 1.0893                 1.0897
 Frc consts  --      6.5398                 6.5472                 6.5912
 IR Inten    --     29.0066                 0.7011                10.0410

                     79                     80                     81
                      A                      A                      A
 Frequencies --   3214.7245              3222.7287              3232.5329
 Red. masses --      1.0945                 1.0957                 1.0922
 Frc consts  --      6.6645                 6.7051                 6.7243
 IR Inten    --     25.2676                18.6670                 2.5722

                     82                     83                     84
                      A                      A                      A
 Frequencies --   3233.9247              3300.3853              3319.4443
 Red. masses --      1.0928                 1.0985                 1.0999
 Frc consts  --      6.7335                 7.0498                 7.1407
 IR Inten    --      1.0348                 1.3694                 2.7845

 - Thermochemistry -
 -------------------
 Temperature   298.150 Kelvin.  Pressure   1.00000 Atm.
 Atom     1 has atomic number  6 and mass  12.00000

 Molecular mass:   278.05138 amu.
 Principal axes and moments of inertia in atomic units:
                           1         2         3
     Eigenvalues --  1177.01181********************
           X            1.00000   0.00179  -0.00000
           Y           -0.00179   1.00000   0.00002
           Z            0.00000  -0.00002   1.00000
 This molecule is an asymmetric top.
 Rotational symmetry number  1.
 Warning -- assumption of classical behavior for rotation
           may cause significant error
 Rotational temperatures (Kelvin)      0.07359     0.00535     0.00499
 Rotational constants (GHZ):           1.53332     0.11152     0.10396
 Zero-point vibrational energy     585587.8 (Joules/Mol)
                                  139.95883 (Kcal/Mol)
 Warning -- explicit consideration of  21 degrees of freedom as
           vibrations may cause significant error
 Vibrational temperatures:     34.16    46.41    65.14    92.79   130.72
          (Kelvin)            220.72   259.44   282.03   287.49   408.77
                              444.58   536.24   588.63   599.19   615.09
                              633.54   673.80   738.12   739.31   812.57
                              862.91   907.01   908.32   929.95   997.57
                             1001.80  1038.10  1053.60  1058.47  1063.53
                             1111.15  1113.99  1198.73  1221.07  1240.29
                             1249.67  1263.24  1343.44  1355.83  1376.09
                             1404.45  1407.74  1414.31  1416.84  1496.69
                             1509.47  1567.21  1574.47  1595.08  1641.60
                             1660.06  1662.74  1719.67  1755.01  1797.99
                             1820.60  1854.05  1898.00  1912.88  1940.14
                             1949.72  1964.05  1969.79  2107.57  2131.67
                             2167.91  2217.85  2253.62  2272.85  2318.37
                             2325.68  2353.11  2386.27  2407.69  4592.61
                             4593.08  4595.46  4609.94  4625.27  4636.79
                             4650.89  4652.90  4748.52  4775.94

 Zero-point correction=                           0.223039 (Hartree/Particle)
 Thermal correction to Energy=                    0.237955
 Thermal correction to Enthalpy=                  0.238899
 Thermal correction to Gibbs Free Energy=         0.178372
 Sum of electronic and zero-point Energies=          -1198.496546
 Sum of electronic and thermal Energies=             -1198.481629
 Sum of electronic and thermal Enthalpies=           -1198.480685
 Sum of electronic and thermal Free Energies=        -1198.541212

                     E (Thermal)             CV                S
                      KCal/Mol        Cal/Mol-Kelvin    Cal/Mol-Kelvin
 Total                  149.319             59.022            127.390
 Electronic               0.000              0.000              0.000
 Translational            0.889              2.981             42.766
 Rotational               0.889              2.981             34.158
 Vibrational            147.542             53.061             50.466
 Vibration     1          0.593              1.985              6.294
 Vibration     2          0.594              1.983              5.686
 Vibration     3          0.595              1.979              5.014
 Vibration     4          0.597              1.971              4.315
 Vibration     5          0.602              1.956              3.642
 Vibration     6          0.619              1.899              2.630
 Vibration     7          0.629              1.866              2.325
 Vibration     8          0.636              1.845              2.170
 Vibration     9          0.638              1.840              2.135
 Vibration    10          0.683              1.703              1.509
 Vibration    11          0.698              1.657              1.368
 Vibration    12          0.744              1.528              1.069
 Vibration    13          0.773              1.450              0.930
 Vibration    14          0.780              1.434              0.904
 Vibration    15          0.789              1.410              0.867
 Vibration    16          0.800              1.382              0.826
 Vibration    17          0.826              1.320              0.742
 Vibration    18          0.868              1.221              0.626
 Vibration    19          0.869              1.219              0.624
 Vibration    20          0.921              1.107              0.514
 Vibration    21          0.958              1.032              0.450

                           ! Non-Optimized Parameters !
 Normal termination of Gaussian 16 at Sat Dec 12 15:09:49 2020.

 ----------------------------------------------------------------------
 # B3LYP/6-311++G(d,p) empiricaldispersion=gd3bj scf=xqc pop=npa geom=c
 heck
 ----------------------------------------------------------------------

 ----------------------------------------
 CID_137736925_JID_10159_Energie_neutraal
 ----------------------------------------
 Structure from the checkpoint file:  "JID_10159.chk"
 Charge =  0 Multiplicity = 1

 SCF Done:  E(RB3LYP) =  -1198.94415093     A.U. after   16 cycles
 Normal termination of Gaussian 16 at Sat Dec 12 15:15:39 2020.

 ----------------------------------------------------------------------
 # B3LYP/6-311++G(d,p) empiricaldispersion=gd3bj scf=xqc pop=npa geom=c
 heck
 ----------------------------------------------------------------------

 --------------------------------------
 CID_137736925_JID_10159_Energie_kation
 --------------------------------------
 Structure from the checkpoint file:  "JID_10159.chk"
 Charge =  1 Multiplicity = 2

 SCF Done:  E(UB3LYP) =  -1198.66869648     A.U. after   26 cycles
 Normal termination of Gaussian 16 at Sat Dec 12 15:29:28 2020.
 Gaussian 16:  ES64L-G16RevA.03 25-Dec-2016

 ----------------------------------------------------------------------
 # B3LYP/6-311++G(d,p) empiricaldispersion=gd3bj scf=xqc pop=npa geom=c
 heck
 ----------------------------------------------------------------------

 -------------------------------------
 CID_137736925_JID_10159_Energie_anion
 -------------------------------------
 Structure from the checkpoint file:  "JID_10159.chk"
 Charge = -1 Multiplicity = 2

                         Standard orientation:
 ---------------------------------------------------------------------
 Center     Atomic      Atomic             Coordinates (Angstroms)
 Number     Number       Type             X           Y           Z
 ---------------------------------------------------------------------
      1          6           0        5.815867    1.241172   -0.000484
      2          6           0        6.111863   -0.132748    0.000044
      3          6           0        5.096753   -1.086067    0.000403
      4          6           0        3.775506   -0.638020    0.000237
      5          6           0        3.462725    0.744852   -0.000295
      6          6           0        4.500596    1.687606   -0.000663
      7          7           0        2.114398    1.044362   -0.000443
      8          6           0        1.378930   -0.027613   -0.000035
      9         16           0        2.292228   -1.567759    0.000625
     10          6           0       -0.083878   -0.014140   -0.000014
     11          6           0       -0.754659    1.222438    0.000717
     12          6           0       -2.139215    1.271082    0.000741
     13          6           0       -2.902519    0.090322    0.000021
     14          6           0       -2.233108   -1.142371   -0.000703
     15          6           0       -0.845165   -1.192398   -0.000730
     16          6           0       -4.364107    0.125698    0.000002
     17          6           0       -5.221534    1.188174    0.000287
     18          8           0       -6.504709    0.707220    0.000097
     19          6           0       -6.355819   -0.643183   -0.000281
     20          7           0       -5.129578   -1.048197   -0.000340
     21          1           0        6.627832    1.962201   -0.000763
     22          1           0        7.147793   -0.458636    0.000169
     23          1           0        5.329340   -2.146171    0.000808
     24          1           0        4.255758    2.744623   -0.001078
     25          1           0       -0.164652    2.131763    0.001267
     26          1           0       -2.635223    2.237584    0.001389
     27          1           0       -2.818576   -2.054661   -0.001285
     28          1           0       -0.352146   -2.160465   -0.001369
     29          1           0       -5.114126    2.260134    0.000555
     30          1           0       -7.261143   -1.231969   -0.000472
 ---------------------------------------------------------------------

 SCF Done:  E(UB3LYP) =  -1198.97437738     A.U. after   21 cycles

 The electronic state is 2-A.
 Alpha  occ. eigenvalues --  -88.74354 -19.09937 -14.21358 -14.16680 -10.16107
 Alpha  occ. eigenvalues --  -10.11141 -10.09607 -10.09576 -10.08614 -10.08461
 Alpha  occ. eigenvalues --  -10.06891 -10.06524 -10.06075 -10.05689 -10.04876
 Alpha  occ. eigenvalues --  -10.04762 -10.04680 -10.04393 -10.04258 -10.04206
 Alpha  occ. eigenvalues --   -7.83034  -5.79333  -5.78998  -5.78583  -1.03428
 Alpha  occ. eigenvalues --   -0.83178  -0.82511  -0.73942  -0.72903  -0.67935
 Alpha  occ. eigenvalues --   -0.67345  -0.64023  -0.62477  -0.61791  -0.59934
 Alpha  occ. eigenvalues --   -0.53964  -0.51327  -0.50008  -0.48453  -0.47826
 Alpha  occ. eigenvalues --   -0.46744  -0.44124  -0.43165  -0.38259  -0.37584
 Alpha  occ. eigenvalues --   -0.37288  -0.36528  -0.36143  -0.34899  -0.33051
 Alpha  occ. eigenvalues --   -0.32348  -0.31694  -0.30206  -0.30049  -0.29503
 Alpha  occ. eigenvalues --   -0.28253  -0.27824  -0.26186  -0.25449  -0.23785
 Alpha  occ. eigenvalues --   -0.23659  -0.22350  -0.21707  -0.21448  -0.19494
 Alpha  occ. eigenvalues --   -0.18375  -0.17561  -0.14426  -0.13655  -0.13445
 Alpha  occ. eigenvalues --   -0.11974  -0.09463   0.01892
 Alpha virt. eigenvalues --    0.07307   0.07358   0.07849   0.08674   0.08944
 Alpha virt. eigenvalues --    0.09348   0.09773   0.10291   0.10548   0.11178
 Alpha virt. eigenvalues --    0.11563   0.12403   0.12662   0.13418   0.13560

  Beta  occ. eigenvalues --  -88.74328 -19.09848 -14.21334 -14.16450 -10.16149
  Beta  occ. eigenvalues --  -10.10895 -10.09614 -10.09338 -10.08570 -10.08480
  Beta  occ. eigenvalues --  -10.06888 -10.06574 -10.05952 -10.05574 -10.04789
  Beta  occ. eigenvalues --  -10.04581 -10.04554 -10.04434 -10.04129 -10.04121
  Beta  occ. eigenvalues --   -7.83011  -5.79323  -5.78990  -5.78493  -1.03274
  Beta  occ. eigenvalues --   -0.82792  -0.82452  -0.73704  -0.72659  -0.67626
  Beta  occ. eigenvalues --   -0.67157  -0.63683  -0.62251  -0.61570  -0.59726
  Beta  occ. eigenvalues --   -0.53627  -0.51169  -0.49803  -0.48356  -0.47590
  Beta  occ. eigenvalues --   -0.46632  -0.43934  -0.43028  -0.38133  -0.37187
  Beta  occ. eigenvalues --   -0.37146  -0.36369  -0.35968  -0.34778  -0.32968
  Beta  occ. eigenvalues --   -0.32224  -0.31590  -0.29955  -0.29469  -0.29450
  Beta  occ. eigenvalues --   -0.28092  -0.27714  -0.25424  -0.25354  -0.23476
  Beta  occ. eigenvalues --   -0.23067  -0.22258  -0.21359  -0.21210  -0.19440
  Beta  occ. eigenvalues --   -0.17824  -0.16660  -0.14153  -0.12786  -0.12712
  Beta  occ. eigenvalues --   -0.11378  -0.08315
  Beta virt. eigenvalues --    0.06590   0.07288   0.07347   0.08458   0.08634
  Beta virt. eigenvalues --    0.08928   0.09614   0.09764   0.10530   0.11045
  Beta virt. eigenvalues --    0.11145   0.11873   0.12382   0.12650   0.13594

 Mulliken charges and spin densities:
               1          2
     1  C   -0.305558  -0.039093
     2  C   -0.181265   0.101553
     3  C   -0.328157  -0.007705
     4  C    1.071766   0.041128
     5  C   -0.115898  -0.024867
     6  C   -0.485852   0.089319
     7  N    0.168308   0.111006
     8  C   -0.201228   0.128128
     9  S   -0.748290   0.040857
    10  C    0.726180   0.027308
    11  C   -0.853885   0.101805
    12  C   -1.267996   0.003901
    13  C    1.309925   0.165082
    14  C   -0.476879  -0.001874
    15  C   -0.486207   0.147942
    16  C   -0.430648  -0.036372
    17  C    0.018408   0.181114
    18  O   -0.080309   0.011260
    19  C    0.331548  -0.021887
    20  N   -0.048538   0.015727
    21  H    0.128486   0.002528
    22  H    0.119078  -0.007411
    23  H    0.144545  -0.001055
    24  H    0.140932  -0.006019
    25  H    0.198907  -0.003861
    26  H    0.023810  -0.000623
    27  H    0.177882   0.002156
    28  H    0.079659  -0.008176
    29  H    0.178186  -0.013644
    30  H    0.193090   0.001772
 Sum of Mulliken charges =  -1.00000   1.00000

 Dipole moment (field-independent basis, Debye):
    X=             -1.2316    Y=             -0.1567    Z=              0.0006  Tot=              1.2416
 Quadrupole moment (field-independent basis, Debye-Ang):
   XX=           -188.4247   YY=           -129.5585   ZZ=           -134.8740
   XY=             -3.4173   XZ=              0.0017   YZ=              0.0033

 Summary of Natural Population Analysis:

                                       Natural Population
                Natural  -----------------------------------------------
    Atom  No    Charge         Core      Valence    Rydberg      Total
 -----------------------------------------------------------------------
      C    1   -0.12565      0.99958     2.11676    0.00931     3.12565
      C    2   -0.09162      0.99958     2.08235    0.00969     3.09162
      C    3   -0.11662      0.99951     2.10719    0.00992     3.11662
      C    4   -0.09424      0.99940     2.08486    0.00998     3.09424
      C    5    0.05610      0.99944     1.93136    0.01310     2.94390
      C    6   -0.07996      0.99952     2.07144    0.00899     3.07996
      N    7   -0.21854      0.99962     2.70750    0.01141     3.71854
      C    8    0.10813      0.99955     1.87554    0.01678     2.89187
      S    9    0.15795      4.99946     2.82344    0.01915     7.84205
      C   10   -0.03428      0.99936     2.02443    0.01049     3.03428
      C   11   -0.05821      0.99944     2.04978    0.00898     3.05821
      C   12   -0.10569      0.99956     2.09801    0.00812     3.10569
      C   13    0.00142      0.99952     1.98998    0.00908     2.99858
      C   14   -0.09926      0.99946     2.09102    0.00879     3.09926
      C   15   -0.06707      0.99958     2.05871    0.00878     3.06707
      C   16    0.03890      0.99940     1.94904    0.01266     2.96110
      C   17    0.08614      0.99949     1.90052    0.01385     2.91386
      O   18   -0.23085      0.99988     3.22335    0.00762     4.23085
      C   19    0.15858      0.99967     1.82140    0.02035     2.84142
      N   20   -0.24230      0.99971     2.73242    0.01017     3.74230
      H   21    0.09349      0.00000     0.40547    0.00103     0.40651
      H   22    0.09162      0.00000     0.40736    0.00103     0.40838
      H   23    0.09695      0.00000     0.40145    0.00160     0.40305
      H   24    0.09965      0.00000     0.39882    0.00153     0.40035
      H   25    0.10779      0.00000     0.39147    0.00074     0.39221
      H   26    0.09107      0.00000     0.40745    0.00147     0.40893
      H   27    0.10327      0.00000     0.39497    0.00176     0.39673
      H   28    0.09514      0.00000     0.40375    0.00112     0.40486
      H   29    0.09350      0.00000     0.40560    0.00090     0.40650
      H   30    0.08465      0.00000     0.41439    0.00097     0.41535
 =======================================================================
   * Total *    0.00007     23.99074    47.76981    0.23939    71.99993

 Normal termination of Gaussian 16 at Sat Dec 12 15:40:38 2020.
