 Gaussian 16, Revision A.03,

 -----------------------------------------------------------
 # opt freq B3LYP/6-31G(d) empiricaldispersion=gd3bj scf=xqc
 -----------------------------------------------------------

 -----------------------------
 CID_22082044_JID_526_neutraal
 -----------------------------
 Symbolic Z-matrix:
 Charge =  0 Multiplicity = 1

 SCF Done:  E(RB3LYP) =  -427.841501493     A.U. after   14 cycles
 SCF Done:  E(RB3LYP) =  -427.843397907     A.U. after   11 cycles
 SCF Done:  E(RB3LYP) =  -427.843550899     A.U. after   10 cycles
 SCF Done:  E(RB3LYP) =  -427.843573813     A.U. after   10 cycles
 SCF Done:  E(RB3LYP) =  -427.843578780     A.U. after    8 cycles
 SCF Done:  E(RB3LYP) =  -427.843580287     A.U. after    8 cycles
 SCF Done:  E(RB3LYP) =  -427.843580492     A.U. after    7 cycles
 SCF Done:  E(RB3LYP) =  -427.843580535     A.U. after    7 cycles
 Optimization completed.
    -- Stationary point found.

 1\1\GINC-NODE373\FOpt\RB3LYP\6-31G(d)\C9H16O1\VSC10255\08-Dec-2020\0\\
 # opt freq B3LYP/6-31G(d) empiricaldispersion=gd3bj scf=xqc\\CID_22082
 044_JID_526_neutraal\\0,1\C,0.8996682231,0.0917797693,0.083631395\C,1.
 5040434073,0.7480617314,1.3282316671\C,1.7197414625,2.2572856105,1.204
 0307606\C,2.663589932,2.7006741005,0.071959454\C,2.5620311034,4.200298
 798,-0.0809112845\C,1.5592141892,4.9072521848,0.4404134724\C,0.4047927
 775,4.2542973912,1.1561861051\O,0.4290669673,2.8389717244,1.0171596471
 \C,-0.9436036604,4.7229088076,0.6160829805\C,4.114876454,2.2719810948,

 Normal termination of Gaussian 16 at Tue Dec  8 12:09:19 2020.

 --------------------------------------------------------------------
 #N Geom=AllCheck Guess=TCheck SCRF=Check GenChk RB3LYP/6-31G(d) Freq
 --------------------------------------------------------------------

 Structure from the checkpoint file:  "JID_526.chk"
 -----------------------------
 CID_22082044_JID_526_neutraal
 -----------------------------
 Charge =  0 Multiplicity = 1

 SCF Done:  E(RB3LYP) =  -427.843580535     A.U. after    1 cycles

  Exact polarizability: 113.973   3.801  96.245  -3.302  -3.512  76.018
 Approx polarizability: 150.470   8.928 129.626  -9.112  -6.402 114.797

                      1                      2                      3
                      A                      A                      A
 Frequencies --     65.0261                79.5583               128.0300
 Red. masses --      2.7237                 2.3713                 2.8102
 Frc consts  --      0.0068                 0.0088                 0.0271
 IR Inten    --      0.0252                 0.2252                 1.3019

                      4                      5                      6
                      A                      A                      A
 Frequencies --    192.7564               207.2135               236.1131
 Red. masses --      2.1448                 1.3758                 1.1533
 Frc consts  --      0.0470                 0.0348                 0.0379
 IR Inten    --      0.1911                 0.8189                 0.1798

                      7                      8                      9
                      A                      A                      A
 Frequencies --    248.0028               277.3637               304.4259
 Red. masses --      1.1096                 2.5032                 1.9769
 Frc consts  --      0.0402                 0.1135                 0.1079
 IR Inten    --      0.0732                 0.8572                 0.1984

                     10                     11                     12
                      A                      A                      A
 Frequencies --    315.9628               407.3287               415.3145
 Red. masses --      2.4974                 2.2819                 2.8698
 Frc consts  --      0.1469                 0.2231                 0.2916
 IR Inten    --      0.4097                 0.9839                 2.1165

                     13                     14                     15
                      A                      A                      A
 Frequencies --    447.9994               514.2278               590.4558
 Red. masses --      3.8319                 3.9168                 2.9844
 Frc consts  --      0.4531                 0.6102                 0.6130
 IR Inten    --      0.5974                 2.9179                 1.0215

                     16                     17                     18
                      A                      A                      A
 Frequencies --    594.7412               722.0760               782.5766
 Red. masses --      3.4261                 1.6457                 1.3239
 Frc consts  --      0.7140                 0.5055                 0.4777
 IR Inten    --      1.6814                18.0725                 2.4540

                     19                     20                     21
                      A                      A                      A
 Frequencies --    782.9976               840.9034               858.5903
 Red. masses --      2.6147                 2.4412                 1.9329
 Frc consts  --      0.9445                 1.0171                 0.8395
 IR Inten    --     10.8658                 0.9861                 3.7903

                     22                     23                     24
                      A                      A                      A
 Frequencies --    919.1080               938.3653               967.0972
 Red. masses --      2.2071                 2.0437                 1.5843
 Frc consts  --      1.0985                 1.0602                 0.8730
 IR Inten    --      7.4005                 5.4586                 2.0063

                     25                     26                     27
                      A                      A                      A
 Frequencies --    990.2640              1014.5426              1033.8226
 Red. masses --      1.2430                 1.9230                 1.3911
 Frc consts  --      0.7181                 1.1662                 0.8760
 IR Inten    --      0.6442                20.6825                 4.0730

                     28                     29                     30
                      A                      A                      A
 Frequencies --   1076.0716              1096.9446              1110.1719
 Red. masses --      2.1038                 2.1690                 2.3503
 Frc consts  --      1.4353                 1.5377                 1.7067
 IR Inten    --     20.7981                16.1002                44.9437

                     31                     32                     33
                      A                      A                      A
 Frequencies --   1122.6817              1142.3087              1160.7548
 Red. masses --      1.8499                 2.3221                 1.8495
 Frc consts  --      1.3738                 1.7853                 1.4682
 IR Inten    --      1.2380                 2.4324                33.6602

                     34                     35                     36
                      A                      A                      A
 Frequencies --   1177.0259              1204.8090              1232.5232
 Red. masses --      2.3098                 1.9329                 1.2779
 Frc consts  --      1.8854                 1.6531                 1.1438
 IR Inten    --     23.5791                20.0048                13.4637

                     37                     38                     39
                      A                      A                      A
 Frequencies --   1307.4217              1323.1205              1334.8442
 Red. masses --      1.4272                 1.1956                 1.3116
 Frc consts  --      1.4373                 1.2333                 1.3769
 IR Inten    --      1.9230                 0.4189                15.9645

                     40                     41                     42
                      A                      A                      A
 Frequencies --   1354.5480              1361.9605              1394.7660
 Red. masses --      1.2363                 1.4126                 1.6214
 Frc consts  --      1.3365                 1.5438                 1.8584
 IR Inten    --     20.5552                 8.4947                 1.6032

                     43                     44                     45
                      A                      A                      A
 Frequencies --   1405.6762              1420.7781              1430.7411
 Red. masses --      1.3180                 1.5637                 1.3903
 Frc consts  --      1.5343                 1.8598                 1.6767
 IR Inten    --      1.9534                17.3164                 1.9807

                     46                     47                     48
                      A                      A                      A
 Frequencies --   1432.1602              1442.8157              1446.0903
 Red. masses --      1.2810                 1.3034                 1.3340
 Frc consts  --      1.5480                 1.5986                 1.6436
 IR Inten    --      5.0742                13.3565                 5.6244

                     49                     50                     51
                      A                      A                      A
 Frequencies --   1510.1508              1515.3840              1529.0723
 Red. masses --      1.0757                 1.0521                 1.0529
 Frc consts  --      1.4453                 1.4235                 1.4505
 IR Inten    --      4.1506                 3.2167                 5.6421

                     52                     53                     54
                      A                      A                      A
 Frequencies --   1529.1455              1531.1227              1533.3173
 Red. masses --      1.0562                 1.0420                 1.0453
 Frc consts  --      1.4551                 1.4392                 1.4479
 IR Inten    --      3.1590                 1.8918                 5.9621

                     55                     56                     57
                      A                      A                      A
 Frequencies --   1541.6417              1738.2121              2931.8266
 Red. masses --      1.0596                 7.3853                 1.0813
 Frc consts  --      1.4838                13.1469                 5.4760
 IR Inten    --      5.4973                 2.4415                62.0343

                     58                     59                     60
                      A                      A                      A
 Frequencies --   2961.6897              3026.9654              3045.8332
 Red. masses --      1.0824                 1.0816                 1.0370
 Frc consts  --      5.5938                 5.8390                 5.6680
 IR Inten    --     48.5201                17.9471                21.8183

                     61                     62                     63
                      A                      A                      A
 Frequencies --   3054.9905              3056.6491              3058.9118
 Red. masses --      1.0579                 1.0392                 1.0344
 Frc consts  --      5.8173                 5.7208                 5.7028
 IR Inten    --     48.9028                21.6259                20.4983

                     64                     65                     66
                      A                      A                      A
 Frequencies --   3086.4960              3109.8071              3116.0183
 Red. masses --      1.1026                 1.1020                 1.1017
 Frc consts  --      6.1885                 6.2793                 6.3025
 IR Inten    --     17.3351                27.0428                60.4500

                     67                     68                     69
                      A                      A                      A
 Frequencies --   3122.8519              3131.7373              3139.2228
 Red. masses --      1.1015                 1.1026                 1.1038
 Frc consts  --      6.3290                 6.3714                 6.4089
 IR Inten    --     24.4688                24.5594                24.3059

                     70                     71                     72
                      A                      A                      A
 Frequencies --   3139.6580              3149.5853              3177.2223
 Red. masses --      1.1018                 1.0852                 1.0963
 Frc consts  --      6.3989                 6.3425                 6.5207
 IR Inten    --     26.7368                15.9465                35.6642

 - Thermochemistry -
 -------------------
 Temperature   298.150 Kelvin.  Pressure   1.00000 Atm.
 Atom     1 has atomic number  6 and mass  12.00000

 Molecular mass:   140.12012 amu.
 Principal axes and moments of inertia in atomic units:
                           1         2         3
     Eigenvalues --  1028.852931595.430492330.29486
           X            0.99989   0.01452  -0.00036
           Y           -0.01451   0.99983   0.01104
           Z            0.00052  -0.01103   0.99994
 This molecule is an asymmetric top.
 Rotational symmetry number  1.
 Warning -- assumption of classical behavior for rotation
           may cause significant error
 Rotational temperatures (Kelvin)      0.08418     0.05429     0.03717
 Rotational constants (GHZ):           1.75413     1.13119     0.77447
 Zero-point vibrational energy     619609.3 (Joules/Mol)
                                  148.09018 (Kcal/Mol)
 Warning -- explicit consideration of  16 degrees of freedom as
           vibrations may cause significant error
 Vibrational temperatures:     93.56   114.47   184.21   277.33   298.13
          (Kelvin)            339.71   356.82   399.06   438.00   454.60
                              586.06   597.54   644.57   739.86   849.53
                              855.70  1038.91  1125.95  1126.56  1209.87
                             1235.32  1322.39  1350.10  1391.44  1424.77
                             1459.70  1487.44  1548.23  1578.26  1597.29
                             1615.29  1643.53  1670.07  1693.48  1733.45
                             1773.33  1881.09  1903.68  1920.54  1948.89
                             1959.56  2006.76  2022.45  2044.18  2058.52
                             2060.56  2075.89  2080.60  2172.77  2180.30
                             2199.99  2200.10  2202.94  2206.10  2218.08
                             2500.90  4218.24  4261.21  4355.13  4382.27
                             4395.45  4397.84  4401.09  4440.78  4474.32
                             4483.26  4493.09  4505.87  4516.64  4517.27
                             4531.55  4571.31

 Zero-point correction=                           0.235997 (Hartree/Particle)
 Thermal correction to Energy=                    0.246840
 Thermal correction to Enthalpy=                  0.247784
 Thermal correction to Gibbs Free Energy=         0.200076
 Sum of electronic and zero-point Energies=           -427.607584
 Sum of electronic and thermal Energies=              -427.596741
 Sum of electronic and thermal Enthalpies=            -427.595797
 Sum of electronic and thermal Free Energies=         -427.643504

                     E (Thermal)             CV                S
                      KCal/Mol        Cal/Mol-Kelvin    Cal/Mol-Kelvin
 Total                  154.894             41.418            100.409
 Electronic               0.000              0.000              0.000
 Translational            0.889              2.981             40.724
 Rotational               0.889              2.981             29.727
 Vibrational            153.117             35.456             29.959
 Vibration     1          0.597              1.971              4.299
 Vibration     2          0.600              1.963              3.902
 Vibration     3          0.611              1.925              2.975
 Vibration     4          0.635              1.850              2.201
 Vibration     5          0.641              1.830              2.068
 Vibration     6          0.655              1.785              1.832
 Vibration     7          0.662              1.766              1.745
 Vibration     8          0.678              1.715              1.550
 Vibration     9          0.695              1.665              1.392
 Vibration    10          0.703              1.643              1.331
 Vibration    11          0.772              1.454              0.936
 Vibration    12          0.779              1.437              0.908
 Vibration    13          0.807              1.365              0.802
 Vibration    14          0.869              1.218              0.623
 Vibration    15          0.948              1.052              0.466
 Vibration    16          0.952              1.043              0.459

 Optimization completed.
    -- Stationary point found.

 1\1\GINC-NODE373\Freq\RB3LYP\6-31G(d)\C9H16O1\VSC10255\08-Dec-2020\0\\
 #N Geom=AllCheck Guess=TCheck SCRF=Check GenChk RB3LYP/6-31G(d) Freq\\
 CID_22082044_JID_526_neutraal\\0,1\C,0.8996682231,0.0917797693,0.08363
 1395\C,1.5040434073,0.7480617314,1.3282316671\C,1.7197414625,2.2572856
 105,1.2040307606\C,2.663589932,2.7006741005,0.071959454\C,2.5620311034
 ,4.200298798,-0.0809112845\C,1.5592141892,4.9072521848,0.4404134724\C,
 0.4047927775,4.2542973912,1.1561861051\O,0.4290669673,2.8389717244,1.0
 171596471\C,-0.9436036604,4.7229088076,0.6160829805\C,4.114876454,2.27

 Normal termination of Gaussian 16 at Tue Dec  8 12:14:17 2020.

 ----------------------------------------------------------------------
 # B3LYP/6-311++G(d,p) empiricaldispersion=gd3bj scf=xqc pop=npa geom=c
 heck
 ----------------------------------------------------------------------

 -------------------------------------
 CID_22082044_JID_526_Energie_neutraal
 -------------------------------------
 Structure from the checkpoint file:  "JID_526.chk"
 Charge =  0 Multiplicity = 1

 SCF Done:  E(RB3LYP) =  -427.964546702     A.U. after   13 cycles
 Normal termination of Gaussian 16 at Tue Dec  8 12:16:14 2020.

 ----------------------------------------------------------------------
 # B3LYP/6-311++G(d,p) empiricaldispersion=gd3bj scf=xqc pop=npa geom=c
 heck
 ----------------------------------------------------------------------

 -----------------------------------
 CID_22082044_JID_526_Energie_kation
 -----------------------------------
 Structure from the checkpoint file:  "JID_526.chk"
 Charge =  1 Multiplicity = 2

 SCF Done:  E(UB3LYP) =  -427.639465868     A.U. after   23 cycles
 Normal termination of Gaussian 16 at Tue Dec  8 12:22:55 2020.
 Gaussian 16:  ES64L-G16RevA.03 25-Dec-2016

 ----------------------------------
 CID_22082044_JID_526_Energie_anion
 ----------------------------------
 Structure from the checkpoint file:  "JID_526.chk"
 Charge = -1 Multiplicity = 2

                         Standard orientation:
 ---------------------------------------------------------------------
 Center     Atomic      Atomic             Coordinates (Angstroms)
 Number     Number       Type             X           Y           Z
 ---------------------------------------------------------------------
      1          6           0        2.056097   -1.826019   -0.771842
      2          6           0        1.762657   -1.191600    0.590659
      3          6           0        0.596060   -0.202281    0.587936
      4          6           0        0.759098    1.011710   -0.344090
      5          6           0       -0.564175    1.735838   -0.428617
      6          6           0       -1.712099    1.177655   -0.044031
      7          6           0       -1.789861   -0.250381    0.431403
      8          8           0       -0.566793   -0.945088    0.220334
      9          6           0       -2.872168   -1.039947   -0.299814
     10          6           0        1.872906    1.956595    0.127731
     11          1           0        1.148920   -2.274694   -1.186792
     12          1           0        2.815594   -2.609685   -0.677819
     13          1           0        2.430593   -1.090679   -1.492735
     14          1           0        1.512526   -1.979077    1.311550
     15          1           0        2.656203   -0.685956    0.976557
     16          1           0        0.461969    0.183487    1.614290
     17          1           0        1.020256    0.645366   -1.347226
     18          1           0       -0.548151    2.761523   -0.795882
     19          1           0       -2.646721    1.735142   -0.070978
     20          1           0       -2.020283   -0.252993    1.514345
     21          1           0       -2.879923   -2.076767    0.050076
     22          1           0       -3.859495   -0.600927   -0.120523
     23          1           0       -2.674479   -1.034882   -1.376303
     24          1           0        2.852340    1.467841    0.108313
     25          1           0        1.929376    2.841077   -0.516960
     26          1           0        1.684527    2.302502    1.151394
 ---------------------------------------------------------------------

 SCF Done:  E(UB3LYP) =  -427.946443756     A.U. after   32 cycles

 The electronic state is 2-A.
 Alpha  occ. eigenvalues --  -19.01318 -10.11795 -10.11091 -10.06893 -10.06043
 Alpha  occ. eigenvalues --  -10.05998 -10.05800 -10.05656 -10.05390 -10.05146
 Alpha  occ. eigenvalues --   -0.93148  -0.71077  -0.69576  -0.64638  -0.61546
 Alpha  occ. eigenvalues --   -0.56725  -0.53048  -0.50075  -0.47490  -0.42421
 Alpha  occ. eigenvalues --   -0.39907  -0.37496  -0.34529  -0.34041  -0.32876
 Alpha  occ. eigenvalues --   -0.32210  -0.29788  -0.28802  -0.28465  -0.27550
 Alpha  occ. eigenvalues --   -0.26407  -0.25869  -0.24831  -0.24635  -0.23152
 Alpha  occ. eigenvalues --   -0.22285  -0.19842  -0.14946  -0.14328   0.04838
 Alpha virt. eigenvalues --    0.06966   0.07498   0.08161   0.09016   0.09540
 Alpha virt. eigenvalues --    0.10083   0.10704   0.11099   0.11342   0.11998
 Alpha virt. eigenvalues --    0.12161   0.12980   0.14110   0.14204   0.14709

  Beta  occ. eigenvalues --  -19.01308 -10.11785 -10.11082 -10.06889 -10.06016
  Beta  occ. eigenvalues --  -10.05980 -10.05767 -10.05627 -10.05348 -10.05122
  Beta  occ. eigenvalues --   -0.93134  -0.71042  -0.69522  -0.64596  -0.61490
  Beta  occ. eigenvalues --   -0.56672  -0.52969  -0.50016  -0.47428  -0.42376
  Beta  occ. eigenvalues --   -0.39858  -0.37451  -0.34483  -0.33983  -0.32842
  Beta  occ. eigenvalues --   -0.32170  -0.29742  -0.28763  -0.28425  -0.27508
  Beta  occ. eigenvalues --   -0.26353  -0.25832  -0.24797  -0.24594  -0.23109
  Beta  occ. eigenvalues --   -0.22247  -0.19801  -0.14915  -0.14221
  Beta virt. eigenvalues --    0.07093   0.07998   0.08297   0.08584   0.09598
  Beta virt. eigenvalues --    0.10330   0.10523   0.11177   0.11412   0.11626
  Beta virt. eigenvalues --    0.12552   0.12664   0.13369   0.14339   0.14480

 Mulliken charges and spin densities:
               1          2
     1  C    0.157375  -0.724722
     2  C    1.004324  -1.434135
     3  C   -1.040478   0.719607
     4  C   -0.897539   1.480105
     5  C   -0.150120  -0.066495
     6  C    1.121037  -1.266406
     7  C   -0.602682   0.641460
     8  O   -0.032287   0.027988
     9  C    0.485826  -1.106652
    10  C    1.994480  -2.761529
    11  H    0.192312  -0.028931
    12  H   -0.335626   0.473839
    13  H   -0.125866   0.262942
    14  H   -0.126717   0.293198
    15  H   -0.051063   0.186498
    16  H   -0.169555   0.350443
    17  H    0.079226   0.080147
    18  H   -0.568137   0.755555
    19  H   -0.628222   0.809497
    20  H   -0.097352   0.242388
    21  H   -0.138127   0.281170
    22  H   -0.256438   0.399875
    23  H   -0.007089   0.150896
    24  H   -0.340664   0.479608
    25  H   -0.241904   0.376429
    26  H   -0.224712   0.377224
 Sum of Mulliken charges =  -1.00000   1.00000

 Dipole moment (field-independent basis, Debye):
    X=             -0.1823    Y=             -2.3197    Z=             -0.3697  Tot=              2.3561
 Quadrupole moment (field-independent basis, Debye-Ang):
   XX=           -127.0236   YY=           -113.0654   ZZ=            -91.4974
   XY=              1.8855   XZ=              0.3264   YZ=              0.9211

 Summary of Natural Population Analysis:

                                       Natural Population
                Natural  -----------------------------------------------
    Atom  No    Charge         Core      Valence    Rydberg      Total
 -----------------------------------------------------------------------
      C    1   -0.28935      0.99966     2.28410    0.00559     3.28935
      C    2   -0.19545      0.99961     2.18633    0.00951     3.19545
      C    3    0.07564      0.99953     1.91073    0.01410     2.92436
      C    4   -0.14153      0.99956     2.13086    0.01111     3.14153
      C    5   -0.08329      0.99951     2.07222    0.01156     3.08329
      C    6   -0.10401      0.99950     2.09397    0.01054     3.10401
      C    7    0.05365      0.99954     1.93229    0.01452     2.94635
      O    8   -0.30981      0.99987     3.29982    0.01012     4.30981
      C    9   -0.28515      0.99964     2.27956    0.00595     3.28515
      C   10   -0.28264      0.99965     2.27691    0.00608     3.28264
      H   11    0.10330      0.00000     0.39544    0.00126     0.39670
      H   12    0.09757      0.00000     0.40149    0.00094     0.40243
      H   13    0.09563      0.00000     0.40331    0.00105     0.40437
      H   14    0.09859      0.00000     0.40010    0.00131     0.40141
      H   15    0.09923      0.00000     0.39950    0.00127     0.40077
      H   16    0.08080      0.00000     0.41705    0.00215     0.41920
      H   17    0.10293      0.00000     0.39500    0.00207     0.39707
      H   18    0.09809      0.00000     0.40066    0.00126     0.40191
      H   19    0.10085      0.00000     0.39746    0.00168     0.39915
      H   20    0.08251      0.00000     0.41569    0.00180     0.41749
      H   21    0.10161      0.00000     0.39720    0.00119     0.39839
      H   22    0.09980      0.00000     0.39883    0.00137     0.40020
      H   23    0.10048      0.00000     0.39839    0.00113     0.39952
      H   24    0.10128      0.00000     0.39714    0.00158     0.39872
      H   25    0.10044      0.00000     0.39823    0.00133     0.39956
      H   26    0.09882      0.00000     0.39979    0.00139     0.40118
 =======================================================================
   * Total *   -0.00000      9.99607    28.88209    0.12184    39.00000

 Normal termination of Gaussian 16 at Tue Dec  8 12:29:35 2020.
