 Gaussian 16, Revision A.03,

 -----------------------------------------------------------
 # opt freq B3LYP/6-31G(d) empiricaldispersion=gd3bj scf=xqc
 -----------------------------------------------------------

 -------------------------------
 CID_23642774_JID_10613_neutraal
 -------------------------------
 Symbolic Z-matrix:
 Charge =  0 Multiplicity = 1

 SCF Done:  E(RB3LYP) =  -1319.86696928     A.U. after   15 cycles
 SCF Done:  E(RB3LYP) =  -1319.87504349     A.U. after   13 cycles
 SCF Done:  E(RB3LYP) =  -1319.87624144     A.U. after   12 cycles
 SCF Done:  E(RB3LYP) =  -1319.87627411     A.U. after   13 cycles
 SCF Done:  E(RB3LYP) =  -1319.87717718     A.U. after   12 cycles
 SCF Done:  E(RB3LYP) =  -1319.87795959     A.U. after   13 cycles
 SCF Done:  E(RB3LYP) =  -1319.87037125     A.U. after   15 cycles
 SCF Done:  E(RB3LYP) =  -1319.87676348     A.U. after   13 cycles
 SCF Done:  E(RB3LYP) =  -1319.87823782     A.U. after   11 cycles
 SCF Done:  E(RB3LYP) =  -1319.87875528     A.U. after   11 cycles
 SCF Done:  E(RB3LYP) =  -1319.88061340     A.U. after    9 cycles
 SCF Done:  E(RB3LYP) =  -1319.88061346     A.U. after    7 cycles
 SCF Done:  E(RB3LYP) =  -1319.88061352     A.U. after    7 cycles
 SCF Done:  E(RB3LYP) =  -1319.88061353     A.U. after    7 cycles
 Optimization completed.
    -- Stationary point found.
 Normal termination of Gaussian 16 at Sun Dec 13 17:04:07 2020.

 --------------------------------------------------------------------
 #N Geom=AllCheck Guess=TCheck SCRF=Check GenChk RB3LYP/6-31G(d) Freq
 --------------------------------------------------------------------

 Structure from the checkpoint file:  "JID_10613.chk"
 -------------------------------
 CID_23642774_JID_10613_neutraal
 -------------------------------
 Charge =  0 Multiplicity = 1

 SCF Done:  E(RB3LYP) =  -1319.88061353     A.U. after    1 cycles

  Exact polarizability: 185.643   4.701 185.259  15.025   3.075 135.291
 Approx polarizability: 268.860   7.571 286.487  22.313   5.855 215.577

                      1                      2                      3
                      A                      A                      A
 Frequencies --     16.2428                27.7177                41.6588
 Red. masses --      4.8459                 4.6498                 4.6967
 Frc consts  --      0.0008                 0.0021                 0.0048
 IR Inten    --      0.7510                 0.5136                 0.3668

                      4                      5                      6
                      A                      A                      A
 Frequencies --     56.6804                62.2285                66.1856
 Red. masses --      3.8660                 4.6480                 4.0487
 Frc consts  --      0.0073                 0.0106                 0.0104
 IR Inten    --      0.4368                 0.4642                 0.1596

                      7                      8                      9
                      A                      A                      A
 Frequencies --     79.6055                80.6802               109.6449
 Red. masses --      4.9918                 4.2531                 4.5451
 Frc consts  --      0.0186                 0.0163                 0.0322
 IR Inten    --      1.1809                 2.6432                 1.1921

                     10                     11                     12
                      A                      A                      A
 Frequencies --    123.8642               164.5589               178.9303
 Red. masses --      4.7889                 5.3224                 4.3065
 Frc consts  --      0.0433                 0.0849                 0.0812
 IR Inten    --      0.8229                 3.8029                 3.5988

                     13                     14                     15
                      A                      A                      A
 Frequencies --    197.7894               219.3284               250.8843
 Red. masses --      3.5359                 1.5915                 2.8786
 Frc consts  --      0.0815                 0.0451                 0.1068
 IR Inten    --      5.1388                 3.6011                 0.7942

                     16                     17                     18
                      A                      A                      A
 Frequencies --    258.2136               272.2573               293.3219
 Red. masses --      3.7556                 1.1183                 2.8738
 Frc consts  --      0.1475                 0.0488                 0.1457
 IR Inten    --      0.2246                 0.1531                 0.8092

                     19                     20                     21
                      A                      A                      A
 Frequencies --    317.4736               347.2047               365.9072
 Red. masses --      2.3415                 3.2196                 2.1813
 Frc consts  --      0.1390                 0.2287                 0.1721
 IR Inten    --      6.0413                 0.9742                 0.8780

                     22                     23                     24
                      A                      A                      A
 Frequencies --    376.6382               412.4625               420.5092
 Red. masses --      3.6558                 3.2816                 3.0413
 Frc consts  --      0.3055                 0.3289                 0.3169
 IR Inten    --      9.6899                 3.8757                 0.0529

                     25                     26                     27
                      A                      A                      A
 Frequencies --    436.0780               451.4386               494.5895
 Red. masses --      4.0537                 4.2867                 4.5164
 Frc consts  --      0.4542                 0.5147                 0.6509
 IR Inten    --      7.6492                10.4409                15.7379

                     28                     29                     30
                      A                      A                      A
 Frequencies --    505.3142               513.4605               567.2962
 Red. masses --      6.1928                 4.2711                 2.8603
 Frc consts  --      0.9317                 0.6635                 0.5424
 IR Inten    --     24.9663                 6.1695                18.1241

                     31                     32                     33
                      A                      A                      A
 Frequencies --    605.3498               637.7014               641.2087
 Red. masses --      3.3952                 6.2540                 4.7015
 Frc consts  --      0.7330                 1.4984                 1.1389
 IR Inten    --      1.3289                 1.1528                22.5157

                     34                     35                     36
                      A                      A                      A
 Frequencies --    671.7060               715.4256               719.4453
 Red. masses --      6.9476                 4.7007                 2.0007
 Frc consts  --      1.8469                 1.4176                 0.6102
 IR Inten    --     53.2235                 3.0286                30.1198

                     37                     38                     39
                      A                      A                      A
 Frequencies --    765.6714               783.8618               796.9818
 Red. masses --      1.7206                 3.0223                 2.5267
 Frc consts  --      0.5943                 1.0941                 0.9456
 IR Inten    --     29.3712                 0.3922                 4.4664

                     40                     41                     42
                      A                      A                      A
 Frequencies --    806.7650               827.3311               862.0612
 Red. masses --      1.7067                 2.5729                 2.4992
 Frc consts  --      0.6545                 1.0376                 1.0943
 IR Inten    --      8.8422                86.1825                39.5007

                     43                     44                     45
                      A                      A                      A
 Frequencies --    869.7853               890.8792               917.4550
 Red. masses --      1.2527                 2.5279                 1.8483
 Frc consts  --      0.5584                 1.1821                 0.9166
 IR Inten    --      0.9659               186.2722                60.0515

                     46                     47                     48
                      A                      A                      A
 Frequencies --    938.0966               945.3971               950.3031
 Red. masses --      1.4998                 2.3905                 2.4295
 Frc consts  --      0.7776                 1.2588                 1.2927
 IR Inten    --      9.3172                 3.1951                 4.9009

                     49                     50                     51
                      A                      A                      A
 Frequencies --    975.8527               981.4602              1003.4155
 Red. masses --      1.3779                 1.5673                 1.2976
 Frc consts  --      0.7731                 0.8895                 0.7697
 IR Inten    --      1.4031                 7.3007                 5.1651

                     52                     53                     54
                      A                      A                      A
 Frequencies --   1014.0489              1022.3050              1052.7597
 Red. masses --      2.2799                 6.0668                 3.7792
 Frc consts  --      1.3813                 3.7357                 2.4678
 IR Inten    --     20.9526                 0.7473                40.4159

                     55                     56                     57
                      A                      A                      A
 Frequencies --   1060.5599              1073.2079              1122.8421
 Red. masses --      2.1883                 1.8923                 1.9827
 Frc consts  --      1.4502                 1.2841                 1.4728
 IR Inten    --      1.0941                43.9556                34.0910

                     58                     59                     60
                      A                      A                      A
 Frequencies --   1130.3366              1132.5775              1144.6698
 Red. masses --      2.5229                 2.1065                 2.1334
 Frc consts  --      1.8991                 1.5920                 1.6469
 IR Inten    --     89.4620                15.6379                59.2429

                     61                     62                     63
                      A                      A                      A
 Frequencies --   1163.9069              1172.9793              1192.0439
 Red. masses --      1.6468                 1.8741                 1.0987
 Frc consts  --      1.3144                 1.5192                 0.9198
 IR Inten    --     50.6420                18.2453                 0.4905

                     64                     65                     66
                      A                      A                      A
 Frequencies --   1210.8404              1211.5164              1217.5002
 Red. masses --      1.2974                 1.6901                 1.1806
 Frc consts  --      1.1207                 1.4616                 1.0311
 IR Inten    --      7.1967                 2.3626                 0.8360

                     67                     68                     69
                      A                      A                      A
 Frequencies --   1237.0183              1280.8961              1285.8940
 Red. masses --      2.3859                 1.4483                 1.4111
 Frc consts  --      2.1510                 1.4000                 1.3747
 IR Inten    --      0.1745                27.0694                 9.2892

                     70                     71                     72
                      A                      A                      A
 Frequencies --   1307.5314              1341.6891              1342.9102
 Red. masses --      2.7297                 1.6994                 2.7350
 Frc consts  --      2.7496                 1.8024                 2.9060
 IR Inten    --    201.6524                15.8408               264.3346

                     73                     74                     75
                      A                      A                      A
 Frequencies --   1347.5971              1361.2571              1370.2990
 Red. masses --      1.6027                 2.0034                 1.7166
 Frc consts  --      1.7148                 2.1873                 1.8991
 IR Inten    --     11.6833                 1.9182                 2.6076

                     76                     77                     78
                      A                      A                      A
 Frequencies --   1387.7582              1407.1358              1421.5069
 Red. masses --      1.3734                 1.2097                 1.3401
 Frc consts  --      1.5584                 1.4113                 1.5954
 IR Inten    --      0.6187                12.0436                15.0251

                     79                     80                     81
                      A                      A                      A
 Frequencies --   1429.0430              1446.4506              1447.5657
 Red. masses --      1.4743                 1.2838                 1.2634
 Frc consts  --      1.7738                 1.5826                 1.5598
 IR Inten    --      5.7078                 4.7340                17.8179

                     82                     83                     84
                      A                      A                      A
 Frequencies --   1466.5988              1502.1387              1505.4162
 Red. masses --      1.1014                 2.0855                 1.1017
 Frc consts  --      1.3958                 2.7726                 1.4711
 IR Inten    --     20.1227                 5.5831                 6.5492

                     85                     86                     87
                      A                      A                      A
 Frequencies --   1516.5200              1519.1394              1521.3357
 Red. masses --      1.0441                 1.0466                 1.0827
 Frc consts  --      1.4148                 1.4231                 1.4764
 IR Inten    --      9.7051                 5.3964                 4.5014

                     88                     89                     90
                      A                      A                      A
 Frequencies --   1522.6094              1530.5615              1536.3239
 Red. masses --      1.1244                 1.0529                 1.0643
 Frc consts  --      1.5359                 1.4532                 1.4800
 IR Inten    --      4.2032                 3.0451                10.0256

                     91                     92                     93
                      A                      A                      A
 Frequencies --   1549.5357              1646.2159              1667.1695
 Red. masses --      2.2143                 5.4241                 5.5545
 Frc consts  --      3.1325                 8.6606                 9.0961
 IR Inten    --      7.4563                 0.7545                 2.1513

                     94                     95                     96
                      A                      A                      A
 Frequencies --   1821.7661              3049.1718              3056.7731
 Red. masses --     10.8360                 1.0670                 1.0653
 Frc consts  --     21.1888                 5.8448                 5.8646
 IR Inten    --    241.7833                13.0278                29.5948

                     97                     98                     99
                      A                      A                      A
 Frequencies --   3064.8831              3067.5310              3103.6535
 Red. masses --      1.0366                 1.0375                 1.0596
 Frc consts  --      5.7371                 5.7521                 6.0139
 IR Inten    --      9.7839                12.6038                26.1451

                    100                    101                    102
                      A                      A                      A
 Frequencies --   3105.6841              3109.9369              3115.3099
 Red. masses --      1.0904                 1.0946                 1.0607
 Frc consts  --      6.1966                 6.2377                 6.0654
 IR Inten    --      3.5837                16.4404                 0.8788

                    103                    104                    105
                      A                      A                      A
 Frequencies --   3123.8256              3134.7505              3138.1497
 Red. masses --      1.0969                 1.0996                 1.0995
 Frc consts  --      6.3068                 6.3663                 6.3796
 IR Inten    --     11.4516                27.2188                28.6997

                    106                    107                    108
                      A                      A                      A
 Frequencies --   3146.4824              3156.3106              3167.7807
 Red. masses --      1.1048                 1.1032                 1.1086
 Frc consts  --      6.4444                 6.4755                 6.5543
 IR Inten    --      2.3248                10.9176                16.8234

                    109                    110                    111
                      A                      A                      A
 Frequencies --   3169.1437              3183.6117              3194.0520
 Red. masses --      1.0869                 1.0868                 1.0918
 Frc consts  --      6.4317                 6.4900                 6.5625
 IR Inten    --     10.1033                 2.1151                33.2584

                    112                    113                    114
                      A                      A                      A
 Frequencies --   3197.5362              3206.7046              3222.3828
 Red. masses --      1.1061                 1.0963                 1.0931
 Frc consts  --      6.6628                 6.6418                 6.6873
 IR Inten    --      0.3514                27.1733                 1.4561

 - Thermochemistry -
 -------------------
 Temperature   298.150 Kelvin.  Pressure   1.00000 Atm.
 Atom     1 has atomic number  6 and mass  12.00000

 Molecular mass:   300.10315 amu.
 Principal axes and moments of inertia in atomic units:
                           1         2         3
     Eigenvalues --  4315.826506873.312589023.83945
           X            0.99984  -0.01797   0.00144
           Y            0.01796   0.99980   0.00909
           Z           -0.00160  -0.00906   0.99996
 This molecule is an asymmetric top.
 Rotational symmetry number  1.
 Warning -- assumption of classical behavior for rotation
           may cause significant error
 Rotational temperatures (Kelvin)      0.02007     0.01260     0.00960
 Rotational constants (GHZ):           0.41817     0.26257     0.20000
 Zero-point vibrational energy     869505.5 (Joules/Mol)
                                  207.81681 (Kcal/Mol)
 Warning -- explicit consideration of  31 degrees of freedom as
           vibrations may cause significant error
 Vibrational temperatures:     23.37    39.88    59.94    81.55    89.53
          (Kelvin)             95.23   114.53   116.08   157.75   178.21
                              236.76   257.44   284.57   315.56   360.97
                              371.51   391.72   422.02   456.77   499.55
                              526.46   541.90   593.44   605.02   627.42
                              649.52   711.60   727.03   738.76   816.21
                              870.96   917.51   922.56   966.44  1029.34
                             1035.12  1101.63  1127.80  1146.68  1160.75
                             1190.34  1240.31  1251.43  1281.78  1320.01
                             1349.71  1360.22  1367.27  1404.03  1412.10
                             1443.69  1458.99  1470.87  1514.69  1525.91
                             1544.11  1615.52  1626.30  1629.53  1646.92
                             1674.60  1687.66  1715.09  1742.13  1743.10
                             1751.71  1779.79  1842.92  1850.11  1881.25
                             1930.39  1932.15  1938.89  1958.55  1971.55
                             1996.67  2024.55  2045.23  2056.07  2081.12
                             2082.72  2110.11  2161.24  2165.96  2181.93
                             2185.70  2188.86  2190.70  2202.14  2210.43
                             2229.44  2368.54  2398.69  2621.12  4387.08
                             4398.01  4409.68  4413.49  4465.47  4468.39
                             4474.51  4482.24  4494.49  4510.21  4515.10
                             4527.09  4541.23  4557.73  4559.69  4580.51
                             4595.53  4600.54  4613.73  4636.29

 Zero-point correction=                           0.331177 (Hartree/Particle)
 Thermal correction to Energy=                    0.351785
 Thermal correction to Enthalpy=                  0.352729
 Thermal correction to Gibbs Free Energy=         0.279494
 Sum of electronic and zero-point Energies=          -1319.549436
 Sum of electronic and thermal Energies=             -1319.528829
 Sum of electronic and thermal Enthalpies=           -1319.527885
 Sum of electronic and thermal Free Energies=        -1319.601119

                     E (Thermal)             CV                S
                      KCal/Mol        Cal/Mol-Kelvin    Cal/Mol-Kelvin
 Total                  220.748             76.542            154.135
 Electronic               0.000              0.000              0.000
 Translational            0.889              2.981             42.994
 Rotational               0.889              2.981             33.948
 Vibrational            218.971             70.580             77.194
 Vibration     1          0.593              1.986              7.047
 Vibration     2          0.593              1.984              5.986
 Vibration     3          0.594              1.981              5.179
 Vibration     4          0.596              1.975              4.570
 Vibration     5          0.597              1.972              4.385
 Vibration     6          0.598              1.970              4.264
 Vibration     7          0.600              1.963              3.901
 Vibration     8          0.600              1.962              3.874
 Vibration     9          0.606              1.941              3.275
 Vibration    10          0.610              1.929              3.039
 Vibration    11          0.623              1.886              2.497
 Vibration    12          0.629              1.868              2.340
 Vibration    13          0.637              1.843              2.154
 Vibration    14          0.647              1.812              1.965
 Vibration    15          0.663              1.761              1.724
 Vibration    16          0.667              1.749              1.674
 Vibration    17          0.675              1.724              1.582
 Vibration    18          0.688              1.686              1.455
 Vibration    19          0.704              1.640              1.323
 Vibration    20          0.725              1.581              1.179
 Vibration    21          0.739              1.542              1.097
 Vibration    22          0.747              1.520              1.053
 Vibration    23          0.776              1.443              0.918
 Vibration    24          0.783              1.426              0.890
 Vibration    25          0.797              1.392              0.839
 Vibration    26          0.810              1.358              0.791
 Vibration    27          0.850              1.262              0.672
 Vibration    28          0.861              1.238              0.645
 Vibration    29          0.869              1.220              0.625
 Vibration    30          0.923              1.102              0.509
 Vibration    31          0.964              1.020              0.441

                           ! Non-Optimized Parameters !
 Normal termination of Gaussian 16 at Sun Dec 13 17:26:03 2020.

 ----------------------------------------------------------------------
 # B3LYP/6-311++G(d,p) empiricaldispersion=gd3bj scf=xqc pop=npa geom=c
 heck
 ----------------------------------------------------------------------

 ---------------------------------------
 CID_23642774_JID_10613_Energie_neutraal
 ---------------------------------------
 Structure from the checkpoint file:  "JID_10613.chk"
 Charge =  0 Multiplicity = 1

 SCF Done:  E(RB3LYP) =  -1320.16771943     A.U. after   16 cycles
 Normal termination of Gaussian 16 at Sun Dec 13 17:35:28 2020.

 ----------------------------------------------------------------------
 # B3LYP/6-311++G(d,p) empiricaldispersion=gd3bj scf=xqc pop=npa geom=c
 heck
 ----------------------------------------------------------------------

 -------------------------------------
 CID_23642774_JID_10613_Energie_kation
 -------------------------------------
 Structure from the checkpoint file:  "JID_10613.chk"
 Charge =  1 Multiplicity = 2

 SCF Done:  E(UB3LYP) =  -1319.84955838     A.U. after   33 cycles
 SCF Done:  E(UB3LYP) =  -1319.84955838     a.u. after    1 cycles
 Normal termination of Gaussian 16 at Sun Dec 13 18:02:03 2020.
 Gaussian 16:  ES64L-G16RevA.03 25-Dec-2016

 ----------------------------------------------------------------------
 # B3LYP/6-311++G(d,p) empiricaldispersion=gd3bj scf=xqc pop=npa geom=c
 heck
 ----------------------------------------------------------------------

 ------------------------------------
 CID_23642774_JID_10613_Energie_anion
 ------------------------------------
 Structure from the checkpoint file:  "JID_10613.chk"
 Charge = -1 Multiplicity = 2

                         Standard orientation:
 ---------------------------------------------------------------------
 Center     Atomic      Atomic             Coordinates (Angstroms)
 Number     Number       Type             X           Y           Z
 ---------------------------------------------------------------------
      1          6           0       -0.456594    2.593966    1.716285
      2          6           0       -1.616375    3.131116    0.893708
      3          8           0       -2.285123    2.046708    0.196784
      4          6           0       -1.716281    1.632540   -0.938920
      5          8           0       -0.807598    2.186476   -1.518017
      6          6           0       -2.357202    0.349148   -1.435713
      7         16           0       -2.166978   -1.036356   -0.266763
      8          8           0       -3.153143   -0.926907    0.802510
      9          8           0       -2.066993   -2.277769   -1.036222
     10          8           0       -0.700681   -0.589183    0.276427
     11          6           0        0.161677   -1.534202    1.014297
     12          6           0       -0.589417   -2.241801    2.132313
     13          6           0        0.878720   -2.478666    0.053660
     14          6           0        1.563919   -1.762694   -1.125910
     15          6           0        2.486941   -0.648419   -0.685658
     16          6           0        2.125452    0.692394   -0.863232
     17          6           0        2.952095    1.720295   -0.406063
     18          6           0        4.154016    1.422421    0.236798
     19          6           0        4.526801    0.088481    0.414499
     20          6           0        3.698815   -0.935960   -0.043732
     21          1           0       -0.804443    1.815900    2.402308
     22          1           0       -0.014003    3.406296    2.303552
     23          1           0        0.318812    2.171279    1.072006
     24          1           0       -2.397335    3.562350    1.522323
     25          1           0       -1.287255    3.869093    0.158948
     26          1           0       -3.437081    0.460118   -1.564298
     27          1           0       -1.885222    0.046285   -2.369415
     28          1           0        0.887402   -0.836566    1.438398
     29          1           0       -1.309583   -2.965054    1.738725
     30          1           0        0.131766   -2.783830    2.753399
     31          1           0       -1.125173   -1.525289    2.759717
     32          1           0        1.631973   -3.011654    0.648955
     33          1           0        0.175466   -3.224515   -0.327969
     34          1           0        2.120845   -2.512151   -1.701660
     35          1           0        0.794414   -1.362546   -1.792876
     36          1           0        1.190323    0.937611   -1.355843
     37          1           0        2.652147    2.753618   -0.558043
     38          1           0        4.798633    2.221473    0.592355
     39          1           0        5.464855   -0.154127    0.906668
     40          1           0        3.997991   -1.972922    0.095102
 ---------------------------------------------------------------------

 SCF Done:  E(UB3LYP) =  -1320.15826426     A.U. after   33 cycles
 SCF Done:  E(UB3LYP) =  -1320.15826426     a.u. after    1 cycles

 The electronic state is 2-A.
 Alpha  occ. eigenvalues --  -88.98782 -19.08007 -19.07190 -19.03808 -19.03561
 Alpha  occ. eigenvalues --  -19.01258 -10.20317 -10.15452 -10.13555 -10.13346
 Alpha  occ. eigenvalues --  -10.08606 -10.08377 -10.08290 -10.08071 -10.07979
 Alpha  occ. eigenvalues --  -10.07819 -10.07754 -10.07728 -10.07127 -10.06740
 Alpha  occ. eigenvalues --   -8.04916  -6.01285  -6.01087  -6.00975  -1.05872
 Alpha  occ. eigenvalues --   -1.01455  -0.95364  -0.92936  -0.92715  -0.76540
 Alpha  occ. eigenvalues --   -0.73313  -0.70914  -0.68010  -0.66623  -0.64991
 Alpha  occ. eigenvalues --   -0.62805  -0.58987  -0.56502  -0.54993  -0.51085
 Alpha  occ. eigenvalues --   -0.50121  -0.48428  -0.46381  -0.43891  -0.43472
 Alpha  occ. eigenvalues --   -0.41663  -0.41031  -0.40166  -0.39702  -0.38760
 Alpha  occ. eigenvalues --   -0.37356  -0.36566  -0.36366  -0.35253  -0.35061
 Alpha  occ. eigenvalues --   -0.34505  -0.34099  -0.33053  -0.32323  -0.30637
 Alpha  occ. eigenvalues --   -0.30423  -0.30126  -0.29522  -0.28822  -0.28650
 Alpha  occ. eigenvalues --   -0.27905  -0.27251  -0.26370  -0.25379  -0.25051
 Alpha  occ. eigenvalues --   -0.24849  -0.24559  -0.24014  -0.23322  -0.22830
 Alpha  occ. eigenvalues --   -0.21310  -0.20357  -0.18876  -0.15948  -0.15258
 Alpha  occ. eigenvalues --    0.04132
 Alpha virt. eigenvalues --    0.05812   0.06448   0.06862   0.07223   0.07788
 Alpha virt. eigenvalues --    0.08010   0.08124   0.08668   0.09268   0.09694
 Alpha virt. eigenvalues --    0.10103   0.10475   0.10786   0.11406   0.11493

  Beta  occ. eigenvalues --  -88.98746 -19.07993 -19.07167 -19.03783 -19.03546
  Beta  occ. eigenvalues --  -19.01093 -10.20095 -10.15448 -10.13546 -10.13328
  Beta  occ. eigenvalues --  -10.08607 -10.08364 -10.08285 -10.08055 -10.07966
  Beta  occ. eigenvalues --  -10.07809 -10.07738 -10.07719 -10.07121 -10.06709
  Beta  occ. eigenvalues --   -8.04873  -6.01253  -6.01059  -6.00911  -1.05796
  Beta  occ. eigenvalues --   -1.01265  -0.95318  -0.92856  -0.92497  -0.76521
  Beta  occ. eigenvalues --   -0.73232  -0.70783  -0.67974  -0.66564  -0.64965
  Beta  occ. eigenvalues --   -0.62779  -0.58894  -0.56403  -0.54954  -0.51048
  Beta  occ. eigenvalues --   -0.49998  -0.48336  -0.46274  -0.43791  -0.43362
  Beta  occ. eigenvalues --   -0.41600  -0.40950  -0.40017  -0.39639  -0.38606
  Beta  occ. eigenvalues --   -0.37266  -0.36437  -0.36241  -0.35174  -0.35016
  Beta  occ. eigenvalues --   -0.34475  -0.34031  -0.33027  -0.32280  -0.30537
  Beta  occ. eigenvalues --   -0.30274  -0.30085  -0.29240  -0.28772  -0.28590
  Beta  occ. eigenvalues --   -0.27856  -0.27204  -0.26344  -0.25329  -0.24992
  Beta  occ. eigenvalues --   -0.24812  -0.24507  -0.23977  -0.23290  -0.22763
  Beta  occ. eigenvalues --   -0.20915  -0.20339  -0.18729  -0.15933  -0.15247
  Beta virt. eigenvalues --    0.06324   0.06927   0.07180   0.07475   0.07767
  Beta virt. eigenvalues --    0.08034   0.08215   0.08521   0.09016   0.09455
  Beta virt. eigenvalues --    0.09932   0.10240   0.10787   0.11026   0.11527

 Mulliken charges and spin densities:
               1          2
     1  C   -0.234498  -0.235493
     2  C    0.029528  -0.150152
     3  O    0.098776   0.005174
     4  C   -0.136355   0.076876
     5  O   -0.229611   0.054728
     6  C   -0.746180   0.060537
     7  S    0.244697  -0.201753
     8  O   -0.091195   0.032755
     9  O   -0.068373   0.007080
    10  O    0.099159  -0.001190
    11  C   -1.017209   0.781063
    12  C    0.070721  -0.631374
    13  C    0.419556  -0.931526
    14  C    0.368985  -0.779979
    15  C    0.118024   0.514715
    16  C   -0.454051   0.545042
    17  C   -0.501718   0.245843
    18  C    0.730314  -1.132211
    19  C    0.487630  -0.770319
    20  C   -0.371907  -0.081647
    21  H    0.133314   0.027373
    22  H   -0.613779   0.763720
    23  H    0.747474  -0.577715
    24  H   -0.106359   0.273680
    25  H    0.109472   0.062884
    26  H    0.256781   0.006020
    27  H    0.258471   0.013679
    28  H    0.080452   0.115882
    29  H    0.142676   0.091219
    30  H   -0.149662   0.304235
    31  H    0.094340   0.083861
    32  H   -0.099847   0.266675
    33  H    0.209048   0.008775
    34  H   -0.021988   0.217406
    35  H    0.143294   0.001772
    36  H    0.290123  -0.043006
    37  H   -0.097187   0.290829
    38  H   -0.236408   0.391072
    39  H   -0.553291   0.738328
    40  H   -0.403218   0.555141
 Sum of Mulliken charges =  -1.00000   1.00000

 Dipole moment (field-independent basis, Debye):
    X=             -5.4821    Y=             -0.9333    Z=             -3.4833  Tot=              6.5618
 Quadrupole moment (field-independent basis, Debye-Ang):
   XX=           -205.0147   YY=           -184.6820   ZZ=           -160.3963
   XY=             -2.6561   XZ=             -0.8673   YZ=             -3.6202

 Summary of Natural Population Analysis:

                                       Natural Population
                Natural  -----------------------------------------------
    Atom  No    Charge         Core      Valence    Rydberg      Total
 -----------------------------------------------------------------------
      C    1   -0.30046      0.99966     2.29556    0.00524     3.30046
      C    2   -0.01560      0.99958     2.00447    0.01155     3.01560
      O    3   -0.27958      0.99986     3.27068    0.00904     4.27958
      C    4    0.42725      0.99970     1.54808    0.02497     2.57275
      O    5   -0.29404      0.99987     3.28851    0.00566     4.29404
      C    6   -0.32422      0.99953     2.31434    0.01036     3.32422
      S    7    1.13704      4.99934     1.76262    0.10100     6.86296
      O    8   -0.44823      0.99990     3.44259    0.00574     4.44823
      O    9   -0.45874      0.99990     3.45336    0.00547     4.45874
      O   10   -0.38227      0.99990     3.37094    0.01142     4.38227
      C   11    0.06469      0.99953     1.92308    0.01269     2.93531
      C   12   -0.30236      0.99964     2.29675    0.00598     3.30236
      C   13   -0.20021      0.99959     2.19192    0.00870     3.20021
      C   14   -0.19663      0.99960     2.18741    0.00962     3.19663
      C   15   -0.02084      0.99950     2.01051    0.01082     3.02084
      C   16   -0.10418      0.99950     2.09523    0.00944     3.10418
      C   17   -0.09915      0.99956     2.08936    0.01023     3.09915
      C   18   -0.10615      0.99956     2.09652    0.01007     3.10615
      C   19   -0.09955      0.99956     2.08971    0.01028     3.09955
      C   20   -0.10415      0.99950     2.09436    0.01028     3.10415
      H   21    0.10151      0.00000     0.39738    0.00111     0.39849
      H   22    0.10303      0.00000     0.39530    0.00168     0.39697
      H   23    0.10913      0.00000     0.38925    0.00162     0.39087
      H   24    0.08924      0.00000     0.40963    0.00113     0.41076
      H   25    0.09480      0.00000     0.40400    0.00120     0.40520
      H   26    0.12375      0.00000     0.37530    0.00095     0.37625
      H   27    0.12265      0.00000     0.37636    0.00099     0.37735
      H   28    0.10195      0.00000     0.39550    0.00256     0.39805
      H   29    0.10468      0.00000     0.39424    0.00107     0.39532
      H   30    0.10646      0.00000     0.39265    0.00089     0.39354
      H   31    0.11040      0.00000     0.38865    0.00095     0.38960
      H   32    0.10367      0.00000     0.39500    0.00133     0.39633
      H   33    0.10925      0.00000     0.38967    0.00108     0.39075
      H   34    0.10353      0.00000     0.39561    0.00086     0.39647
      H   35    0.10253      0.00000     0.39570    0.00177     0.39747
      H   36    0.11407      0.00000     0.38378    0.00214     0.38593
      H   37    0.10318      0.00000     0.39585    0.00097     0.39682
      H   38    0.10101      0.00000     0.39796    0.00104     0.39899
      H   39    0.10164      0.00000     0.39692    0.00144     0.39836
      H   40    0.10089      0.00000     0.39753    0.00158     0.39911
 =======================================================================
   * Total *   -0.00000     23.99277    55.69230    0.31492    80.00000

 Normal termination of Gaussian 16 at Sun Dec 13 18:28:47 2020.
