 Gaussian 16, Revision A.03,

 -----------------------------------------------------------
 # opt freq B3LYP/6-31G(d) empiricaldispersion=gd3bj scf=xqc
 -----------------------------------------------------------

 -----------------------------
 CID_13949663_JID_230_neutraal
 -----------------------------
 Symbolic Z-matrix:
 Charge =  0 Multiplicity = 1

 SCF Done:  E(RB3LYP) =  -445.066331254     A.U. after   13 cycles
 SCF Done:  E(RB3LYP) =  -445.068271465     A.U. after   11 cycles
 SCF Done:  E(RB3LYP) =  -445.068709014     A.U. after   12 cycles
 SCF Done:  E(RB3LYP) =  -445.068523792     A.U. after   11 cycles
 SCF Done:  E(RB3LYP) =  -445.068892516     A.U. after   11 cycles
 SCF Done:  E(RB3LYP) =  -445.068923968     A.U. after   10 cycles
 SCF Done:  E(RB3LYP) =  -445.068930454     A.U. after   10 cycles
 SCF Done:  E(RB3LYP) =  -445.068936901     A.U. after    9 cycles
 SCF Done:  E(RB3LYP) =  -445.068938558     A.U. after    8 cycles
 SCF Done:  E(RB3LYP) =  -445.068939407     A.U. after    8 cycles
 SCF Done:  E(RB3LYP) =  -445.068939660     A.U. after    7 cycles
 Optimization completed.
    -- Stationary point found.
 Normal termination of Gaussian 16 at Tue Dec  8 10:21:46 2020.

 --------------------------------------------------------------------
 #N Geom=AllCheck Guess=TCheck SCRF=Check GenChk RB3LYP/6-31G(d) Freq
 --------------------------------------------------------------------

 Structure from the checkpoint file:  "JID_230.chk"
 -----------------------------
 CID_13949663_JID_230_neutraal
 -----------------------------
 Charge =  0 Multiplicity = 1

 SCF Done:  E(RB3LYP) =  -445.068939660     A.U. after    1 cycles

  Exact polarizability: 115.987   7.034  85.573  -0.257  -3.749  81.779
 Approx polarizability: 150.028  12.289 121.080   2.158  -4.912 124.712

                      1                      2                      3
                      A                      A                      A
 Frequencies --     49.2768                88.4470               104.7280
 Red. masses --      3.1099                 3.0859                 2.6506
 Frc consts  --      0.0044                 0.0142                 0.0171
 IR Inten    --      0.3435                 1.2215                 1.7712

                      4                      5                      6
                      A                      A                      A
 Frequencies --    144.6626               182.9325               221.5029
 Red. masses --      3.7875                 2.7728                 1.1487
 Frc consts  --      0.0467                 0.0547                 0.0332
 IR Inten    --      0.9848                 2.5039                 0.4286

                      7                      8                      9
                      A                      A                      A
 Frequencies --    226.5848               245.8334               273.2065
 Red. masses --      1.4056                 1.1741                 1.9876
 Frc consts  --      0.0425                 0.0418                 0.0874
 IR Inten    --     19.2064                24.4435                10.5169

                     10                     11                     12
                      A                      A                      A
 Frequencies --    304.4031               322.5478               337.6460
 Red. masses --      2.0544                 3.1174                 2.3935
 Frc consts  --      0.1122                 0.1911                 0.1608
 IR Inten    --      4.2495                34.7009                 3.5611

                     13                     14                     15
                      A                      A                      A
 Frequencies --    384.3087               423.9972               444.7764
 Red. masses --      2.5065                 1.7078                 1.6246
 Frc consts  --      0.2181                 0.1809                 0.1894
 IR Inten    --      6.0899                35.4411                31.2703

                     16                     17                     18
                      A                      A                      A
 Frequencies --    458.0542               479.0748               504.7206
 Red. masses --      2.4125                 2.1875                 2.1115
 Frc consts  --      0.2982                 0.2958                 0.3169
 IR Inten    --      8.6114                12.0296                31.0170

                     19                     20                     21
                      A                      A                      A
 Frequencies --    639.9409               750.4986               802.0161
 Red. masses --      1.7410                 3.2316                 2.2014
 Frc consts  --      0.4201                 1.0724                 0.8343
 IR Inten    --     15.8516                 0.9287                46.9422

                     22                     23                     24
                      A                      A                      A
 Frequencies --    848.1974               896.3584               923.4706
 Red. masses --      2.1030                 2.0638                 1.8328
 Frc consts  --      0.8914                 0.9770                 0.9209
 IR Inten    --     11.8598                43.8451                 4.3036

                     25                     26                     27
                      A                      A                      A
 Frequencies --    927.9446               942.1067               945.9734
 Red. masses --      1.6544                 1.3618                 1.2062
 Frc consts  --      0.8393                 0.7122                 0.6359
 IR Inten    --     60.4453                45.9107                 1.3957

                     28                     29                     30
                      A                      A                      A
 Frequencies --    969.2621               984.5181              1050.6481
 Red. masses --      1.7980                 1.6003                 1.1408
 Frc consts  --      0.9953                 0.9139                 0.7419
 IR Inten    --     27.6277                14.9840                17.6240

                     31                     32                     33
                      A                      A                      A
 Frequencies --   1057.2403              1071.7893              1074.1610
 Red. masses --      2.2270                 2.1123                 1.3876
 Frc consts  --      1.4666                 1.4297                 0.9433
 IR Inten    --     39.6012                13.3169                 2.0060

                     34                     35                     36
                      A                      A                      A
 Frequencies --   1106.9543              1150.8212              1183.6948
 Red. masses --      1.9503                 2.0588                 2.4515
 Frc consts  --      1.4081                 1.6065                 2.0238
 IR Inten    --     12.0629                36.8335                 4.0882

                     37                     38                     39
                      A                      A                      A
 Frequencies --   1207.2312              1249.5437              1256.3161
 Red. masses --      1.7046                 1.2826                 1.5784
 Frc consts  --      1.4637                 1.1799                 1.4678
 IR Inten    --      1.3492                32.7831                 0.5354

                     40                     41                     42
                      A                      A                      A
 Frequencies --   1281.8033              1332.2478              1341.0060
 Red. masses --      1.3033                 1.2501                 1.3917
 Frc consts  --      1.2616                 1.3073                 1.4746
 IR Inten    --      9.0316                 1.4239                 0.2473

                     43                     44                     45
                      A                      A                      A
 Frequencies --   1357.9314              1369.3814              1390.2759
 Red. masses --      1.4492                 1.4512                 1.3431
 Frc consts  --      1.5744                 1.6033                 1.5295
 IR Inten    --     15.7546                 4.0917                 2.1255

                     46                     47                     48
                      A                      A                      A
 Frequencies --   1392.2427              1426.4338              1438.7337
 Red. masses --      1.3425                 1.2557                 1.2939
 Frc consts  --      1.5332                 1.5054                 1.5780
 IR Inten    --      2.1824                 5.0230                 4.8156

                     49                     50                     51
                      A                      A                      A
 Frequencies --   1451.6497              1453.7585              1471.5382
 Red. masses --      1.2451                 1.2177                 1.1767
 Frc consts  --      1.5459                 1.5162                 1.5013
 IR Inten    --     26.0368                23.0619                 1.1534

                     52                     53                     54
                      A                      A                      A
 Frequencies --   1515.9744              1517.7230              1522.4789
 Red. masses --      1.1167                 1.0499                 1.0487
 Frc consts  --      1.5121                 1.4249                 1.4322
 IR Inten    --     13.1258                 3.2480                 1.5499

                     55                     56                     57
                      A                      A                      A
 Frequencies --   1536.8299              1545.2640              1693.2692
 Red. masses --      1.0513                 1.0528                 1.0938
 Frc consts  --      1.4630                 1.4811                 1.8478
 IR Inten    --      4.0908                10.6999                16.1789

                     58                     59                     60
                      A                      A                      A
 Frequencies --   1716.5698              2993.5334              3027.9072
 Red. masses --      4.1961                 1.0812                 1.0841
 Frc consts  --      7.2849                 5.7084                 5.8560
 IR Inten    --      8.0910                22.3521                30.4099

                     61                     62                     63
                      A                      A                      A
 Frequencies --   3042.5156              3048.0553              3061.9573
 Red. masses --      1.0388                 1.0398                 1.0623
 Frc consts  --      5.6659                 5.6917                 5.8683
 IR Inten    --     21.5068                38.8684                11.0731

                     64                     65                     66
                      A                      A                      A
 Frequencies --   3082.8280              3100.6485              3106.3874
 Red. masses --      1.0842                 1.1015                 1.1021
 Frc consts  --      6.0711                 6.2392                 6.2660
 IR Inten    --     59.1215                13.6806                15.4125

                     67                     68                     69
                      A                      A                      A
 Frequencies --   3109.8042              3122.1693              3144.5675
 Red. masses --      1.1003                 1.1004                 1.0825
 Frc consts  --      6.2692                 6.3198                 6.3065
 IR Inten    --     63.9675                38.2223                24.7908

                     70                     71                     72
                      A                      A                      A
 Frequencies --   3157.7315              3157.9456              3238.7626
 Red. masses --      1.0966                 1.0688                 1.1159
 Frc consts  --      6.4423                 6.2802                 6.8967
 IR Inten    --     12.1825                 4.5838                14.2477

                     73                     74                     75
                      A                      A                      A
 Frequencies --   3479.6978              3568.4766              3687.1093
 Red. masses --      1.0484                 1.0920                 1.0652
 Frc consts  --      7.4793                 8.1927                 8.5324
 IR Inten    --      1.9052                 0.0182                25.5625

 - Thermochemistry -
 -------------------
 Temperature   298.150 Kelvin.  Pressure   1.00000 Atm.
 Atom     1 has atomic number  6 and mass  12.00000

 Molecular mass:   143.13101 amu.
 Principal axes and moments of inertia in atomic units:
                           1         2         3
     Eigenvalues --   916.629542282.108412336.71315
           X            0.99994   0.01049  -0.00292
           Y           -0.01069   0.99667  -0.08086
           Z            0.00206   0.08089   0.99672
 This molecule is an asymmetric top.
 Rotational symmetry number  1.
 Warning -- assumption of classical behavior for rotation
           may cause significant error
 Rotational temperatures (Kelvin)      0.09449     0.03795     0.03707
 Rotational constants (GHZ):           1.96889     0.79082     0.77234
 Zero-point vibrational energy     646704.8 (Joules/Mol)
                                  154.56616 (Kcal/Mol)
 Warning -- explicit consideration of  18 degrees of freedom as
           vibrations may cause significant error
 Vibrational temperatures:     70.90   127.26   150.68   208.14   263.20
          (Kelvin)            318.69   326.01   353.70   393.08   437.97
                              464.07   485.80   552.93   610.04   639.93
                              659.04   689.28   726.18   920.73  1079.80
                             1153.92  1220.37  1289.66  1328.67  1335.11
                             1355.48  1361.04  1394.55  1416.50  1511.65
                             1521.13  1542.07  1545.48  1592.66  1655.78
                             1703.07  1736.94  1797.81  1807.56  1844.23
                             1916.81  1929.41  1953.76  1970.23  2000.30
                             2003.13  2052.32  2070.02  2088.60  2091.63
                             2117.22  2181.15  2183.66  2190.51  2211.16
                             2223.29  2436.24  2469.76  4307.03  4356.48
                             4377.50  4385.47  4405.47  4435.50  4461.14
                             4469.40  4474.31  4492.11  4524.33  4543.27
                             4543.58  4659.86  5006.51  5134.24  5304.93

 Zero-point correction=                           0.246317 (Hartree/Particle)
 Thermal correction to Energy=                    0.258527
 Thermal correction to Enthalpy=                  0.259472
 Thermal correction to Gibbs Free Energy=         0.208947
 Sum of electronic and zero-point Energies=           -444.822623
 Sum of electronic and thermal Energies=              -444.810412
 Sum of electronic and thermal Enthalpies=            -444.809468
 Sum of electronic and thermal Free Energies=         -444.859992

                     E (Thermal)             CV                S
                      KCal/Mol        Cal/Mol-Kelvin    Cal/Mol-Kelvin
 Total                  162.228             46.085            106.337
 Electronic               0.000              0.000              0.000
 Translational            0.889              2.981             40.787
 Rotational               0.889              2.981             29.970
 Vibrational            160.451             40.123             35.580
 Vibration     1          0.595              1.978              4.846
 Vibration     2          0.601              1.957              3.694
 Vibration     3          0.605              1.945              3.364
 Vibration     4          0.616              1.908              2.741
 Vibration     5          0.630              1.863              2.298
 Vibration     6          0.648              1.808              1.947
 Vibration     7          0.650              1.801              1.906
 Vibration     8          0.660              1.770              1.760
 Vibration     9          0.676              1.723              1.576
 Vibration    10          0.695              1.665              1.393
 Vibration    11          0.708              1.630              1.297
 Vibration    12          0.718              1.600              1.223
 Vibration    13          0.753              1.504              1.022
 Vibration    14          0.786              1.418              0.878
 Vibration    15          0.804              1.372              0.812
 Vibration    16          0.816              1.343              0.772
 Vibration    17          0.836              1.296              0.713
 Vibration    18          0.860              1.240              0.646

 Optimization completed.
    -- Stationary point found.
 Normal termination of Gaussian 16 at Tue Dec  8 10:27:20 2020.

 ----------------------------------------------------------------------
 # B3LYP/6-311++G(d,p) empiricaldispersion=gd3bj scf=xqc pop=npa geom=c
 heck
 ----------------------------------------------------------------------

 -------------------------------------
 CID_13949663_JID_230_Energie_neutraal
 -------------------------------------
 Structure from the checkpoint file:  "JID_230.chk"
 Charge =  0 Multiplicity = 1

 SCF Done:  E(RB3LYP) =  -445.214651223     A.U. after   13 cycles
 Normal termination of Gaussian 16 at Tue Dec  8 10:29:39 2020.

 ----------------------------------------------------------------------
 # B3LYP/6-311++G(d,p) empiricaldispersion=gd3bj scf=xqc pop=npa geom=c
 heck
 ----------------------------------------------------------------------

 -----------------------------------
 CID_13949663_JID_230_Energie_kation
 -----------------------------------
 Structure from the checkpoint file:  "JID_230.chk"
 Charge =  1 Multiplicity = 2

 SCF Done:  E(UB3LYP) =  -444.899480436     A.U. after   20 cycles
 Normal termination of Gaussian 16 at Tue Dec  8 10:35:11 2020.
 Gaussian 16:  ES64L-G16RevA.03 25-Dec-2016

 ----------------------------------------------------------------------
 # B3LYP/6-311++G(d,p) empiricaldispersion=gd3bj scf=xqc pop=npa geom=c
 heck
 ----------------------------------------------------------------------

 ----------------------------------
 CID_13949663_JID_230_Energie_anion
 ----------------------------------
 Structure from the checkpoint file:  "JID_230.chk"
 Charge = -1 Multiplicity = 2

                         Standard orientation:
 ---------------------------------------------------------------------
 Center     Atomic      Atomic             Coordinates (Angstroms)
 Number     Number       Type             X           Y           Z
 ---------------------------------------------------------------------
      1          6           0       -2.245157   -1.508487   -0.132944
      2          6           0       -1.720917   -0.099409   -0.447547
      3          6           0       -2.895438    0.880357   -0.568647
      4          6           0       -0.702221    0.387558    0.603735
      5          6           0        0.468798   -0.601922    0.858806
      6          6           0        1.225015   -1.120850   -0.392440
      7          6           0        1.957450   -0.050745   -1.156266
      8          6           0        3.228808    0.296991   -0.931964
      9          8           0        1.393929   -0.034510    1.783743
     10          7           0       -0.271803    1.757452    0.296773
     11          1           0       -2.705831   -1.533192    0.862806
     12          1           0       -1.462415   -2.273222   -0.156488
     13          1           0       -3.012332   -1.801245   -0.858249
     14          1           0       -1.209806   -0.132721   -1.423359
     15          1           0       -3.459785    0.918027    0.372008
     16          1           0       -2.543718    1.890885   -0.784328
     17          1           0       -3.584608    0.561900   -1.359581
     18          1           0       -1.233593    0.456261    1.563846
     19          1           0        0.064907   -1.479956    1.373012
     20          1           0        1.946804   -1.861817   -0.030800
     21          1           0        0.524944   -1.642328   -1.053438
     22          1           0        1.395896    0.480306   -1.925643
     23          1           0        3.714552    1.092907   -1.489620
     24          1           0        3.837233   -0.226061   -0.196646
     25          1           0        1.962238    0.563282    1.267887
     26          1           0        0.330868    2.086193    1.048317
     27          1           0        0.287804    1.773736   -0.553478
 ---------------------------------------------------------------------

 SCF Done:  E(UB3LYP) =  -445.198019598     A.U. after   33 cycles
 SCF Done:  E(UB3LYP) =  -445.198019598     a.u. after    1 cycles

 The electronic state is 2-A.
 Alpha  occ. eigenvalues --  -19.02054 -14.18808 -10.11857 -10.09325 -10.08035
 Alpha  occ. eigenvalues --  -10.07197 -10.07073 -10.06628 -10.05577 -10.04888
 Alpha  occ. eigenvalues --   -0.92547  -0.78588  -0.70099  -0.68871  -0.63062
 Alpha  occ. eigenvalues --   -0.57865  -0.56968  -0.51210  -0.46482  -0.45311
 Alpha  occ. eigenvalues --   -0.40372  -0.38209  -0.38004  -0.36706  -0.34590
 Alpha  occ. eigenvalues --   -0.34441  -0.31958  -0.30432  -0.28937  -0.28491
 Alpha  occ. eigenvalues --   -0.27862  -0.26013  -0.25685  -0.24335  -0.23308
 Alpha  occ. eigenvalues --   -0.22611  -0.21844  -0.18410  -0.17139  -0.13549
 Alpha  occ. eigenvalues --    0.04798
 Alpha virt. eigenvalues --    0.06852   0.07593   0.08281   0.08886   0.09272
 Alpha virt. eigenvalues --    0.09436   0.10477   0.10834   0.11241   0.11807
 Alpha virt. eigenvalues --    0.12541   0.13489   0.13824   0.14327   0.15156

  Beta  occ. eigenvalues --  -19.02043 -14.18787 -10.11851 -10.09319 -10.08011
  Beta  occ. eigenvalues --  -10.07182 -10.07051 -10.06581 -10.05543 -10.04867
  Beta  occ. eigenvalues --   -0.92522  -0.78554  -0.70048  -0.68830  -0.63014
  Beta  occ. eigenvalues --   -0.57807  -0.56909  -0.51159  -0.46393  -0.45248
  Beta  occ. eigenvalues --   -0.40338  -0.38173  -0.37943  -0.36650  -0.34553
  Beta  occ. eigenvalues --   -0.34383  -0.31922  -0.30386  -0.28900  -0.28455
  Beta  occ. eigenvalues --   -0.27829  -0.25973  -0.25640  -0.24296  -0.23260
  Beta  occ. eigenvalues --   -0.22573  -0.21810  -0.18386  -0.17070  -0.13521
  Beta virt. eigenvalues --    0.07140   0.07726   0.08218   0.08787   0.09202
  Beta virt. eigenvalues --    0.09887   0.10099   0.10927   0.11307   0.11693
  Beta virt. eigenvalues --    0.12381   0.13060   0.13678   0.14110   0.14606

 Mulliken charges and spin densities:
               1          2
     1  C    1.059330  -1.740337
     2  C   -1.497150   1.740381
     3  C    0.451284  -0.951129
     4  C    0.374947  -0.632854
     5  C    0.188359  -0.626695
     6  C    1.696399  -2.164133
     7  C   -2.630611   2.863650
     8  C    2.496180  -3.088453
     9  O   -0.231395   0.018159
    10  N   -0.288499   0.000904
    11  H   -0.065039   0.205262
    12  H    0.000960   0.127314
    13  H   -0.416094   0.559887
    14  H   -0.020196   0.188197
    15  H    0.014854   0.095317
    16  H   -0.025978   0.195241
    17  H   -0.210828   0.344009
    18  H    0.054416   0.157633
    19  H    0.031268   0.196221
    20  H   -0.588885   0.805584
    21  H   -0.290564   0.430545
    22  H   -0.873374   1.049854
    23  H   -0.550953   0.688063
    24  H   -0.162481   0.296703
    25  H    0.253732   0.008716
    26  H    0.118796   0.115939
    27  H    0.111523   0.116023
 Sum of Mulliken charges =  -1.00000   1.00000

 Dipole moment (field-independent basis, Debye):
    X=             -1.5354    Y=              1.0648    Z=              3.8866  Tot=              4.3124
 Quadrupole moment (field-independent basis, Debye-Ang):
   XX=           -126.5276   YY=           -106.2064   ZZ=           -104.9963
   XY=             -2.8406   XZ=              2.9937   YZ=              2.2267

 Summary of Natural Population Analysis:

                                       Natural Population
                Natural  -----------------------------------------------
    Atom  No    Charge         Core      Valence    Rydberg      Total
 -----------------------------------------------------------------------
      C    1   -0.28536      0.99965     2.27916    0.00655     3.28536
      C    2   -0.11808      0.99959     2.10785    0.01064     3.11808
      C    3   -0.28333      0.99965     2.27691    0.00678     3.28333
      C    4   -0.01906      0.99955     2.00639    0.01311     3.01906
      C    5    0.06513      0.99953     1.92084    0.01450     2.93487
      C    6   -0.22744      0.99958     2.21631    0.01154     3.22744
      C    7   -0.09264      0.99956     2.08075    0.01232     3.09264
      C    8   -0.19694      0.99955     2.18709    0.01029     3.19694
      O    9   -0.37654      0.99990     3.36988    0.00677     4.37654
      N   10   -0.42486      0.99977     2.91417    0.01092     3.92486
      H   11    0.09517      0.00000     0.40376    0.00106     0.40483
      H   12    0.10031      0.00000     0.39822    0.00147     0.39969
      H   13    0.10172      0.00000     0.39719    0.00109     0.39828
      H   14    0.09386      0.00000     0.40356    0.00258     0.40614
      H   15    0.09295      0.00000     0.40617    0.00088     0.40705
      H   16    0.10965      0.00000     0.38912    0.00123     0.39035
      H   17    0.09688      0.00000     0.40218    0.00093     0.40312
      H   18    0.09104      0.00000     0.40739    0.00157     0.40896
      H   19    0.09206      0.00000     0.40649    0.00145     0.40794
      H   20    0.10692      0.00000     0.39158    0.00149     0.39308
      H   21    0.11034      0.00000     0.38754    0.00212     0.38966
      H   22    0.09516      0.00000     0.40261    0.00223     0.40484
      H   23    0.09918      0.00000     0.39876    0.00206     0.40082
      H   24    0.09188      0.00000     0.40676    0.00136     0.40812
      H   25    0.23070      0.00000     0.26600    0.00331     0.26930
      H   26    0.17576      0.00000     0.32241    0.00184     0.32424
      H   27    0.17554      0.00000     0.32196    0.00250     0.32446
 =======================================================================
   * Total *    0.00000      9.99634    29.87106    0.13260    40.00000

 Normal termination of Gaussian 16 at Tue Dec  8 10:50:18 2020.
