 Gaussian 16, Revision A.03,

 -----------------------------------------------------------
 # opt freq B3LYP/6-31G(d) empiricaldispersion=gd3bj scf=xqc
 -----------------------------------------------------------

 ------------------------------
 CID_151560315_JID_223_neutraal
 ------------------------------
 Symbolic Z-matrix:
 Charge =  0 Multiplicity = 1

 SCF Done:  E(RB3LYP) =  -485.655701830     A.U. after   15 cycles
 SCF Done:  E(RB3LYP) =  -485.660447696     A.U. after   14 cycles
 SCF Done:  E(RB3LYP) =  -485.661677964     A.U. after   13 cycles
 SCF Done:  E(RB3LYP) =  -485.662461064     A.U. after   13 cycles
 SCF Done:  E(RB3LYP) =  -485.662897718     A.U. after   14 cycles
 SCF Done:  E(RB3LYP) =  -485.663198957     A.U. after   14 cycles
 SCF Done:  E(RB3LYP) =  -485.663359862     A.U. after   13 cycles
 SCF Done:  E(RB3LYP) =  -485.663417103     A.U. after   12 cycles
 SCF Done:  E(RB3LYP) =  -485.663437760     A.U. after   11 cycles
 SCF Done:  E(RB3LYP) =  -485.663466284     A.U. after   10 cycles
 SCF Done:  E(RB3LYP) =  -485.663504600     A.U. after   13 cycles
 SCF Done:  E(RB3LYP) =  -485.663519380     A.U. after   12 cycles
 SCF Done:  E(RB3LYP) =  -485.663524818     A.U. after   10 cycles
 SCF Done:  E(RB3LYP) =  -485.663525623     A.U. after   11 cycles
 SCF Done:  E(RB3LYP) =  -485.663525913     A.U. after    9 cycles
 SCF Done:  E(RB3LYP) =  -485.663525953     A.U. after    8 cycles
 Optimization completed.
    -- Stationary point found.
 Normal termination of Gaussian 16 at Tue Dec  8 10:21:56 2020.

 --------------------------------------------------------------------
 #N Geom=AllCheck Guess=TCheck SCRF=Check GenChk RB3LYP/6-31G(d) Freq
 --------------------------------------------------------------------

 Structure from the checkpoint file:  "JID_223.chk"
 ------------------------------
 CID_151560315_JID_223_neutraal
 ------------------------------
 Charge =  0 Multiplicity = 1

 SCF Done:  E(RB3LYP) =  -485.663525953     A.U. after    1 cycles

  Exact polarizability: 114.600  -7.925  74.522   7.194  -2.804  55.486
 Approx polarizability: 194.548 -19.274 104.751  18.863  -6.605  84.861

                      1                      2                      3
                      A                      A                      A
 Frequencies --     42.7256                81.1141               128.0180
 Red. masses --      6.4907                 6.3507                 6.3795
 Frc consts  --      0.0070                 0.0246                 0.0616
 IR Inten    --      1.3153                 1.3104                 2.2043

                      4                      5                      6
                      A                      A                      A
 Frequencies --    164.2617               205.4065               219.4303
 Red. masses --      4.3599                 1.6120                 2.3156
 Frc consts  --      0.0693                 0.0401                 0.0657
 IR Inten    --      1.5708                24.3371                14.0140

                      7                      8                      9
                      A                      A                      A
 Frequencies --    314.8069               372.1019               404.9710
 Red. masses --      3.7278                 3.3359                 2.8985
 Frc consts  --      0.2177                 0.2721                 0.2801
 IR Inten    --      0.8906                18.3651                 5.4225

                     10                     11                     12
                      A                      A                      A
 Frequencies --    451.9646               482.7172               530.2623
 Red. masses --      3.6682                 1.3591                 3.5624
 Frc consts  --      0.4415                 0.1866                 0.5902
 IR Inten    --      7.6413                45.1704                 4.6997

                     13                     14                     15
                      A                      A                      A
 Frequencies --    571.2147               576.3035               583.9154
 Red. masses --      7.1382                 2.8347                 3.4199
 Frc consts  --      1.3723                 0.5547                 0.6870
 IR Inten    --      8.6422                 3.8655                49.6921

                     16                     17                     18
                      A                      A                      A
 Frequencies --    676.2570               748.4950               767.3144
 Red. masses --      1.9782                 1.9208                 1.7033
 Frc consts  --      0.5330                 0.6340                 0.5909
 IR Inten    --     86.6898               207.4503                69.8469

                     19                     20                     21
                      A                      A                      A
 Frequencies --    788.7658               839.6301               843.0135
 Red. masses --      2.6855                 2.7328                 1.3183
 Frc consts  --      0.9844                 1.1351                 0.5520
 IR Inten    --     40.1718                46.1633                10.9842

                     22                     23                     24
                      A                      A                      A
 Frequencies --    925.8553               951.4677               977.8946
 Red. masses --      2.7186                 1.7875                 2.3062
 Frc consts  --      1.3731                 0.9534                 1.2994
 IR Inten    --     62.8844                17.9726                17.8309

                     25                     26                     27
                      A                      A                      A
 Frequencies --   1008.5261              1077.2679              1119.3345
 Red. masses --      2.1398                 1.3845                 1.4241
 Frc consts  --      1.2823                 0.9467                 1.0512
 IR Inten    --      3.1156                 0.6446                 0.2768

                     28                     29                     30
                      A                      A                      A
 Frequencies --   1173.9289              1192.7187              1216.4634
 Red. masses --      1.4522                 1.6308                 1.6157
 Frc consts  --      1.1791                 1.3669                 1.4087
 IR Inten    --    118.6935                36.7465                 1.4182

                     31                     32                     33
                      A                      A                      A
 Frequencies --   1275.8001              1299.3853              1348.2118
 Red. masses --      2.3442                 3.3022                 2.3768
 Frc consts  --      2.2481                 3.2850                 2.5454
 IR Inten    --     32.8935                45.4123               182.5705

                     34                     35                     36
                      A                      A                      A
 Frequencies --   1412.0951              1457.1744              1503.9907
 Red. masses --      1.8549                 2.8644                 1.3358
 Frc consts  --      2.1792                 3.5835                 1.7803
 IR Inten    --      9.0644                99.7873                12.2621

                     37                     38                     39
                      A                      A                      A
 Frequencies --   1658.5292              1684.1294              1726.8248
 Red. masses --      1.3517                 1.1039                 3.8936
 Frc consts  --      2.1906                 1.8446                 6.8406
 IR Inten    --    140.2486                27.5286               192.5959

                     40                     41                     42
                      A                      A                      A
 Frequencies --   2280.9830              3148.2337              3168.1321
 Red. masses --     13.8840                 1.0577                 1.0890
 Frc consts  --     42.5606                 6.1763                 6.4399
 IR Inten    --    556.7335                 8.8779                 9.2226

                     43                     44                     45
                      A                      A                      A
 Frequencies --   3246.0184              3468.6906              3499.8656
 Red. masses --      1.1151                 1.0751                 1.0508
 Frc consts  --      6.9223                 7.6216                 7.5835
 IR Inten    --      2.5674                 3.6778                 1.0904

                     46                     47                     48
                      A                      A                      A
 Frequencies --   3523.8950              3603.6478              3635.3448
 Red. masses --      1.0477                 1.0931                 1.0984
 Frc consts  --      7.6657                 8.3639                 8.5530
 IR Inten    --     50.1662                 5.2255                65.6190

 - Thermochemistry -
 -------------------
 Temperature   298.150 Kelvin.  Pressure   1.00000 Atm.
 Atom     1 has atomic number  6 and mass  12.00000

 Molecular mass:   140.08104 amu.
 Principal axes and moments of inertia in atomic units:
                           1         2         3
     Eigenvalues --   716.745112053.764052442.93166
           X            0.99986   0.01679   0.00140
           Y           -0.01678   0.99981  -0.01017
           Z           -0.00157   0.01014   0.99995
 This molecule is an asymmetric top.
 Rotational symmetry number  1.
 Warning -- assumption of classical behavior for rotation
           may cause significant error
 Rotational temperatures (Kelvin)      0.12084     0.04217     0.03545
 Rotational constants (GHZ):           2.51797     0.87875     0.73876
 Zero-point vibrational energy     373097.9 (Joules/Mol)
                                   89.17254 (Kcal/Mol)
 Warning -- explicit consideration of  15 degrees of freedom as
           vibrations may cause significant error
 Vibrational temperatures:     61.47   116.71   184.19   236.34   295.53
          (Kelvin)            315.71   452.94   535.37   582.66   650.28
                              694.52   762.93   821.85   829.17   840.12
                              972.98  1076.92  1103.99  1134.86  1208.04
                             1212.91  1332.10  1368.95  1406.97  1451.04
                             1549.95  1610.47  1689.02  1716.06  1750.22
                             1835.59  1869.53  1939.78  2031.69  2096.55
                             2163.91  2386.25  2423.09  2484.52  3281.83
                             4529.61  4558.24  4670.30  4990.67  5035.53
                             5070.10  5184.85  5230.45

 Zero-point correction=                           0.142105 (Hartree/Particle)
 Thermal correction to Energy=                    0.152059
 Thermal correction to Enthalpy=                  0.153004
 Thermal correction to Gibbs Free Energy=         0.106428
 Sum of electronic and zero-point Energies=           -485.521420
 Sum of electronic and thermal Energies=              -485.511466
 Sum of electronic and thermal Enthalpies=            -485.510522
 Sum of electronic and thermal Free Energies=         -485.557098

                     E (Thermal)             CV                S
                      KCal/Mol        Cal/Mol-Kelvin    Cal/Mol-Kelvin
 Total                   95.419             36.899             98.026
 Electronic               0.000              0.000              0.000
 Translational            0.889              2.981             40.723
 Rotational               0.889              2.981             29.665
 Vibrational             93.641             30.938             27.638
 Vibration     1          0.595              1.980              5.129
 Vibration     2          0.600              1.962              3.864
 Vibration     3          0.611              1.925              2.976
 Vibration     4          0.623              1.886              2.500
 Vibration     5          0.640              1.832              2.084
 Vibration     6          0.647              1.811              1.964
 Vibration     7          0.702              1.645              1.337
 Vibration     8          0.744              1.529              1.071
 Vibration     9          0.770              1.459              0.945
 Vibration    10          0.811              1.357              0.790
 Vibration    11          0.839              1.288              0.703
 Vibration    12          0.885              1.183              0.587
 Vibration    13          0.927              1.094              0.502
 Vibration    14          0.933              1.083              0.492
 Vibration    15          0.941              1.066              0.478

                           ! Non-Optimized Parameters !
 Normal termination of Gaussian 16 at Tue Dec  8 10:24:55 2020.

 ----------------------------------------------------------------------
 # B3LYP/6-311++G(d,p) empiricaldispersion=gd3bj scf=xqc pop=npa geom=c
 heck
 ----------------------------------------------------------------------

 --------------------------------------
 CID_151560315_JID_223_Energie_neutraal
 --------------------------------------
 Structure from the checkpoint file:  "JID_223.chk"
 Charge =  0 Multiplicity = 1

 SCF Done:  E(RB3LYP) =  -485.818911695     A.U. after   15 cycles
 Normal termination of Gaussian 16 at Tue Dec  8 10:25:54 2020.

 ----------------------------------------------------------------------
 # B3LYP/6-311++G(d,p) empiricaldispersion=gd3bj scf=xqc pop=npa geom=c
 heck
 ----------------------------------------------------------------------

 ------------------------------------
 CID_151560315_JID_223_Energie_kation
 ------------------------------------
 Structure from the checkpoint file:  "JID_223.chk"
 Charge =  1 Multiplicity = 2

 SCF Done:  E(UB3LYP) =  -485.502155224     A.U. after   27 cycles
 Normal termination of Gaussian 16 at Tue Dec  8 10:28:57 2020.
 Gaussian 16:  ES64L-G16RevA.03 25-Dec-2016

 ----------------------------------------------------------------------
 # B3LYP/6-311++G(d,p) empiricaldispersion=gd3bj scf=xqc pop=npa geom=c
 heck
 ----------------------------------------------------------------------

 -----------------------------------
 CID_151560315_JID_223_Energie_anion
 -----------------------------------
 Structure from the checkpoint file:  "JID_223.chk"
 Charge = -1 Multiplicity = 2

                         Standard orientation:
 ---------------------------------------------------------------------
 Center     Atomic      Atomic             Coordinates (Angstroms)
 Number     Number       Type             X           Y           Z
 ---------------------------------------------------------------------
      1          6           0       -0.151823    0.883942    1.347361
      2          6           0       -1.004062    0.812269    0.082825
      3          6           0        0.513362    0.672377    0.022885
      4          7           0        1.350524    1.701172   -0.518172
      5          7           0        0.998598   -0.675113   -0.289363
      6          7           0        2.222361   -0.822757   -0.147071
      7          7           0        3.331199   -1.069324   -0.084117
      8          6           0       -2.008984   -0.281013   -0.131041
      9          7           0       -3.165370   -0.095992   -0.658149
     10          7           0       -1.672569   -1.534287    0.353552
     11          1           0       -0.219294    0.028323    2.010811
     12          1           0       -0.039844    1.845030    1.843698
     13          1           0       -1.346066    1.770529   -0.300290
     14          1           0        1.133145    1.890116   -1.494124
     15          1           0        1.278924    2.564761    0.009093
     16          1           0       -3.305716    0.892294   -0.875132
     17          1           0       -0.704119   -1.803410    0.214175
     18          1           0       -2.341190   -2.238975    0.062831
 ---------------------------------------------------------------------

 SCF Done:  E(UB3LYP) =  -485.813706341     A.U. after   29 cycles

 The electronic state is 2-A.
 Alpha  occ. eigenvalues --  -14.33378 -14.24269 -14.22907 -14.20714 -14.19026
 Alpha  occ. eigenvalues --  -14.16510 -10.14177 -10.13703 -10.07821 -10.07017
 Alpha  occ. eigenvalues --   -1.00669  -0.86423  -0.83662  -0.79209  -0.73909
 Alpha  occ. eigenvalues --   -0.71860  -0.54676  -0.53479  -0.47113  -0.44571
 Alpha  occ. eigenvalues --   -0.40677  -0.39799  -0.38321  -0.37136  -0.36096
 Alpha  occ. eigenvalues --   -0.34198  -0.33324  -0.32025  -0.27842  -0.27115
 Alpha  occ. eigenvalues --   -0.23544  -0.21532  -0.18812  -0.15997  -0.14762
 Alpha  occ. eigenvalues --   -0.13725  -0.11871   0.04965
 Alpha virt. eigenvalues --    0.07125   0.09253   0.09408   0.09825   0.11611
 Alpha virt. eigenvalues --    0.11810   0.12598   0.13145   0.13335   0.13861
 Alpha virt. eigenvalues --    0.16004   0.16431   0.17002   0.18342   0.19361

  Beta  occ. eigenvalues --  -14.33054 -14.23940 -14.22922 -14.20708 -14.18974
  Beta  occ. eigenvalues --  -14.16498 -10.14081 -10.13702 -10.07799 -10.06993
  Beta  occ. eigenvalues --   -1.00109  -0.86227  -0.83620  -0.79050  -0.73888
  Beta  occ. eigenvalues --   -0.71764  -0.54419  -0.53338  -0.47053  -0.44500
  Beta  occ. eigenvalues --   -0.40329  -0.39715  -0.38004  -0.36605  -0.35753
  Beta  occ. eigenvalues --   -0.33917  -0.32990  -0.31382  -0.27794  -0.27060
  Beta  occ. eigenvalues --   -0.23305  -0.21430  -0.18258  -0.15962  -0.14682
  Beta  occ. eigenvalues --   -0.13683  -0.11789
  Beta virt. eigenvalues --    0.08254   0.09074   0.10098   0.10257   0.10726
  Beta virt. eigenvalues --    0.11755   0.12326   0.12971   0.13619   0.13879
  Beta virt. eigenvalues --    0.14521   0.16062   0.16481   0.17106   0.18712

 Mulliken charges and spin densities:
               1          2
     1  C    1.196455  -1.695008
     2  C    0.169542   0.269319
     3  C   -0.124531  -0.476651
     4  N   -0.209237  -0.091094
     5  N   -0.752226   0.002884
     6  N    0.955405   0.067732
     7  N   -0.287893   0.213329
     8  C   -0.208324  -0.163116
     9  N   -0.339711  -0.008816
    10  N   -0.363330  -0.000120
    11  H    0.208630  -0.048592
    12  H   -0.580285   0.761708
    13  H   -0.849034   1.126367
    14  H   -0.140110   0.385732
    15  H   -0.327226   0.585000
    16  H    0.114146   0.075704
    17  H    0.280137  -0.004525
    18  H    0.257591   0.000148
 Sum of Mulliken charges =  -1.00000   1.00000

 Dipole moment (field-independent basis, Debye):
    X=             -1.0390    Y=             -6.8563    Z=              0.4344  Tot=              6.9482
 Quadrupole moment (field-independent basis, Debye-Ang):
   XX=           -111.0751   YY=           -100.9469   ZZ=            -77.5056
   XY=              1.0598   XZ=             -1.8551   YZ=             -2.3632

 Summary of Natural Population Analysis:

                                       Natural Population
                Natural  -----------------------------------------------
    Atom  No    Charge         Core      Valence    Rydberg      Total
 -----------------------------------------------------------------------
      C    1   -0.19337      0.99957     2.18287    0.01094     3.19337
      C    2   -0.15035      0.99950     2.13465    0.01620     3.15035
      C    3    0.14888      0.99951     1.83373    0.01787     2.85112
      N    4   -0.42102      0.99973     2.90993    0.01136     3.92102
      N    5   -0.23299      0.99966     2.71992    0.01341     3.73299
      N    6    0.15569      0.99970     2.32884    0.01577     3.34431
      N    7   -0.00590      0.99981     2.49384    0.01224     3.50590
      C    8    0.22696      0.99964     1.75547    0.01792     2.77304
      N    9   -0.37316      0.99971     2.86516    0.00829     3.87316
      N   10   -0.41076      0.99970     2.90328    0.00778     3.91076
      H   11    0.10871      0.00000     0.39002    0.00126     0.39129
      H   12    0.11111      0.00000     0.38654    0.00235     0.38889
      H   13    0.11477      0.00000     0.38112    0.00411     0.38523
      H   14    0.18058      0.00000     0.31720    0.00221     0.31942
      H   15    0.19065      0.00000     0.29702    0.01232     0.30935
      H   16    0.16443      0.00000     0.33327    0.00230     0.33557
      H   17    0.20127      0.00000     0.29722    0.00151     0.29873
      H   18    0.18449      0.00000     0.31415    0.00136     0.31551
 =======================================================================
   * Total *   -0.00000      9.99653    26.84424    0.15922    37.00000

 Normal termination of Gaussian 16 at Tue Dec  8 10:32:25 2020.
