 Gaussian 16, Revision A.03,

 -----------------------------------------------------------
 # opt freq B3LYP/6-31G(d) empiricaldispersion=gd3bj scf=xqc
 -----------------------------------------------------------

 ------------------------------
 CID_61325662_JID_6532_neutraal
 ------------------------------
 Symbolic Z-matrix:
 Charge =  0 Multiplicity = 1

 SCF Done:  E(RB3LYP) =  -1064.62693930     A.U. after   15 cycles
 SCF Done:  E(RB3LYP) =  -1064.63172518     A.U. after   12 cycles
 SCF Done:  E(RB3LYP) =  -1064.63250014     A.U. after   12 cycles
 SCF Done:  E(RB3LYP) =  -1064.63263233     A.U. after   12 cycles
 SCF Done:  E(RB3LYP) =  -1064.63277940     A.U. after   11 cycles
 SCF Done:  E(RB3LYP) =  -1064.63285143     A.U. after   11 cycles
 SCF Done:  E(RB3LYP) =  -1064.63296815     A.U. after   12 cycles
 SCF Done:  E(RB3LYP) =  -1064.63300397     A.U. after   12 cycles
 SCF Done:  E(RB3LYP) =  -1064.63307370     A.U. after   11 cycles
 SCF Done:  E(RB3LYP) =  -1064.63322111     A.U. after   12 cycles
 SCF Done:  E(RB3LYP) =  -1064.63324994     A.U. after   10 cycles
 SCF Done:  E(RB3LYP) =  -1064.63325022     A.U. after    9 cycles
 SCF Done:  E(RB3LYP) =  -1064.63325033     A.U. after    8 cycles
 SCF Done:  E(RB3LYP) =  -1064.63325034     A.U. after    6 cycles
 Optimization completed.
    -- Stationary point found.
 Normal termination of Gaussian 16 at Thu Dec 10 23:30:08 2020.

 --------------------------------------------------------------------
 #N Geom=AllCheck Guess=TCheck SCRF=Check GenChk RB3LYP/6-31G(d) Freq
 --------------------------------------------------------------------

 Structure from the checkpoint file:  "JID_6532.chk"
 ------------------------------
 CID_61325662_JID_6532_neutraal
 ------------------------------
 Charge =  0 Multiplicity = 1

 SCF Done:  E(RB3LYP) =  -1064.63325034     A.U. after    1 cycles

  Exact polarizability: 185.861   5.875 138.509  12.118   1.935 103.641
 Approx polarizability: 241.484  19.760 241.282  22.695  16.365 177.740

                      1                      2                      3
                      A                      A                      A
 Frequencies --     11.9502                23.0415                32.9179
 Red. masses --      5.2746                 6.5448                 4.6784
 Frc consts  --      0.0004                 0.0020                 0.0030
 IR Inten    --      0.0773                 0.2089                 0.0705

                      4                      5                      6
                      A                      A                      A
 Frequencies --     50.4814                58.7153                96.6974
 Red. masses --      4.4057                 6.1432                 3.2904
 Frc consts  --      0.0066                 0.0125                 0.0181
 IR Inten    --      0.1246                 0.1107                 0.0395

                      7                      8                      9
                      A                      A                      A
 Frequencies --    142.6901               192.0459               229.7166
 Red. masses --      4.9361                 4.5228                 3.2359
 Frc consts  --      0.0592                 0.0983                 0.1006
 IR Inten    --      0.0973                 0.8409                 4.0085

                     10                     11                     12
                      A                      A                      A
 Frequencies --    250.8582               270.4112               305.4417
 Red. masses --      5.0787                 1.5485                 2.0684
 Frc consts  --      0.1883                 0.0667                 0.1137
 IR Inten    --      1.1746                16.9930                25.6786

                     13                     14                     15
                      A                      A                      A
 Frequencies --    316.8472               352.9950               398.3642
 Red. masses --      2.9293                 3.1144                 3.9399
 Frc consts  --      0.1733                 0.2286                 0.3684
 IR Inten    --      5.1777                 2.2492                 5.1490

                     16                     17                     18
                      A                      A                      A
 Frequencies --    434.4732               481.7918               522.3086
 Red. masses --      4.3850                 5.5392                 3.9194
 Frc consts  --      0.4877                 0.7576                 0.6300
 IR Inten    --     11.5343                 2.5727                 4.7510

                     19                     20                     21
                      A                      A                      A
 Frequencies --    568.8575               597.4249               645.0874
 Red. masses --      3.5515                 6.0849                 6.5913
 Frc consts  --      0.6771                 1.2796                 1.6161
 IR Inten    --      1.0019                 1.8145                 5.3546

                     22                     23                     24
                      A                      A                      A
 Frequencies --    698.1850               708.9847               741.1040
 Red. masses --      3.6363                 1.2140                 5.4613
 Frc consts  --      1.0444                 0.3595                 1.7673
 IR Inten    --      0.5585                55.6489                 3.4272

                     25                     26                     27
                      A                      A                      A
 Frequencies --    756.7622               765.9300               801.5527
 Red. masses --      4.6504                 1.8100                 1.7857
 Frc consts  --      1.5691                 0.6256                 0.6760
 IR Inten    --      2.7950                 8.1255                 8.6928

                     28                     29                     30
                      A                      A                      A
 Frequencies --    811.3997               843.0759               848.7725
 Red. masses --      2.9567                 1.3411                 1.7890
 Frc consts  --      1.1469                 0.5616                 0.7593
 IR Inten    --     22.1107                 1.0097                 2.7264

                     31                     32                     33
                      A                      A                      A
 Frequencies --    863.6165               865.7075               884.9760
 Red. masses --      2.5678                 3.1319                 5.5159
 Frc consts  --      1.1284                 1.3829                 2.5452
 IR Inten    --      9.1093                 7.1044                67.7101

                     34                     35                     36
                      A                      A                      A
 Frequencies --    910.1979               935.4595               942.8482
 Red. masses --      1.3450                 2.1646                 2.5926
 Frc consts  --      0.6565                 1.1160                 1.3579
 IR Inten    --      0.7812               119.2851                56.0394

                     37                     38                     39
                      A                      A                      A
 Frequencies --    957.6673               985.0915              1020.5068
 Red. masses --      2.5131                 2.9472                 6.8519
 Frc consts  --      1.3580                 1.6850                 4.2043
 IR Inten    --     14.4812                59.7499                18.6509

                     40                     41                     42
                      A                      A                      A
 Frequencies --   1060.4060              1066.5443              1072.0307
 Red. masses --      4.2295                 1.3490                 1.8272
 Frc consts  --      2.8021                 0.9041                 1.2372
 IR Inten    --      6.9540                 3.9386                 2.2756

                     43                     44                     45
                      A                      A                      A
 Frequencies --   1081.1859              1089.9932              1112.6774
 Red. masses --      1.3627                 1.3382                 1.3079
 Frc consts  --      0.9385                 0.9367                 0.9541
 IR Inten    --      1.0102                17.7818                 3.0436

                     46                     47                     48
                      A                      A                      A
 Frequencies --   1142.7352              1148.0559              1149.3399
 Red. masses --      1.1408                 2.1420                 2.1026
 Frc consts  --      0.8777                 1.6634                 1.6365
 IR Inten    --      0.9540                 9.0083                 8.3519

                     49                     50                     51
                      A                      A                      A
 Frequencies --   1206.4280              1207.9604              1236.8265
 Red. masses --      1.8866                 1.4166                 1.8873
 Frc consts  --      1.6179                 1.2179                 1.7010
 IR Inten    --     13.2479                 0.1713                 1.3632

                     52                     53                     54
                      A                      A                      A
 Frequencies --   1269.1745              1276.3936              1311.5570
 Red. masses --      1.5887                 1.5350                 1.6143
 Frc consts  --      1.5077                 1.4734                 1.6361
 IR Inten    --      0.6579                14.6051                 5.8839

                     55                     56                     57
                      A                      A                      A
 Frequencies --   1332.3649              1353.0725              1392.4451
 Red. masses --      1.6347                 2.1080                 4.5377
 Frc consts  --      1.7098                 2.2739                 5.1838
 IR Inten    --      6.0403                32.5228                74.9216

                     58                     59                     60
                      A                      A                      A
 Frequencies --   1399.7238              1414.7981              1449.3098
 Red. masses --      1.2984                 2.3990                 1.6125
 Frc consts  --      1.4988                 2.8293                 1.9956
 IR Inten    --      7.3176                11.2160                 5.4084

                     61                     62                     63
                      A                      A                      A
 Frequencies --   1489.5911              1498.5773              1504.6495
 Red. masses --      1.1294                 1.0880                 5.4092
 Frc consts  --      1.4765                 1.4396                 7.2154
 IR Inten    --      5.5323                 1.8508                 8.7426

                     64                     65                     66
                      A                      A                      A
 Frequencies --   1538.1930              1555.7318              1608.2181
 Red. masses --      1.4057                 8.3100                 5.6205
 Frc consts  --      1.9595                11.8500                 8.5648
 IR Inten    --      0.5359                13.1340                 3.9228

                     67                     68                     69
                      A                      A                      A
 Frequencies --   1633.9339              1701.3373              3075.7347
 Red. masses --      9.2776                 1.0906                 1.0599
 Frc consts  --     14.5933                 1.8600                 5.9077
 IR Inten    --     90.0445                25.7609                 7.6708

                     70                     71                     72
                      A                      A                      A
 Frequencies --   3077.0603              3126.3820              3146.6357
 Red. masses --      1.0852                 1.1041                 1.0522
 Frc consts  --      6.0537                 6.3583                 6.1380
 IR Inten    --     11.4748                 2.5526                16.5508

                     73                     74                     75
                      A                      A                      A
 Frequencies --   3151.8799              3159.6143              3215.5448
 Red. masses --      1.0579                 1.0886                 1.0898
 Frc consts  --      6.1918                 6.4030                 6.6393
 IR Inten    --     18.3622                 6.1804                 6.0119

                     76                     77                     78
                      A                      A                      A
 Frequencies --   3221.4292              3231.6840              3235.5934
 Red. masses --      1.1196                 1.0945                 1.1160
 Frc consts  --      6.8453                 6.7345                 6.8837
 IR Inten    --      0.8995                 7.1758                21.5346

                     79                     80                     81
                      A                      A                      A
 Frequencies --   3272.7002              3456.6570              3541.4811
 Red. masses --      1.0973                 1.0496                 1.0921
 Frc consts  --      6.9243                 7.3892                 8.0700
 IR Inten    --      1.0808                 1.0449                 0.9644

 - Thermochemistry -
 -------------------
 Temperature   298.150 Kelvin.  Pressure   1.00000 Atm.
 Atom     1 has atomic number  6 and mass  12.00000

 Molecular mass:   235.07793 amu.
 Principal axes and moments of inertia in atomic units:
                           1         2         3
     Eigenvalues --  1419.435388241.010778904.37747
           X            0.99997   0.00635   0.00469
           Y           -0.00614   0.99908  -0.04234
           Z           -0.00496   0.04231   0.99909
 This molecule is an asymmetric top.
 Rotational symmetry number  1.
 Warning -- assumption of classical behavior for rotation
           may cause significant error
 Rotational temperatures (Kelvin)      0.06102     0.01051     0.00973
 Rotational constants (GHZ):           1.27145     0.21900     0.20268
 Zero-point vibrational energy     607347.7 (Joules/Mol)
                                  145.15958 (Kcal/Mol)
 Warning -- explicit consideration of  20 degrees of freedom as
           vibrations may cause significant error
 Vibrational temperatures:     17.19    33.15    47.36    72.63    84.48
          (Kelvin)            139.13   205.30   276.31   330.51   360.93
                              389.06   439.46   455.87   507.88   573.16
                              625.11   693.19   751.49   818.46   859.56
                              928.14  1004.53  1020.07  1066.28  1088.81
                             1102.00  1153.26  1167.42  1213.00  1221.19
                             1242.55  1245.56  1273.28  1309.57  1345.92
                             1356.55  1377.87  1417.33  1468.28  1525.69
                             1534.52  1542.41  1555.59  1568.26  1600.89
                             1644.14  1651.80  1653.64  1735.78  1737.99
                             1779.52  1826.06  1836.45  1887.04  1916.98
                             1946.77  2003.42  2013.89  2035.58  2085.23
                             2143.19  2156.12  2164.86  2213.12  2238.35
                             2313.87  2350.87  2447.84  4425.30  4427.20
                             4498.17  4527.31  4534.85  4545.98  4626.45
                             4634.92  4649.67  4655.30  4708.69  4973.36
                             5095.40

 Zero-point correction=                           0.231327 (Hartree/Particle)
 Thermal correction to Energy=                    0.246214
 Thermal correction to Enthalpy=                  0.247158
 Thermal correction to Gibbs Free Energy=         0.185182
 Sum of electronic and zero-point Energies=          -1064.401924
 Sum of electronic and thermal Energies=             -1064.387036
 Sum of electronic and thermal Enthalpies=           -1064.386092
 Sum of electronic and thermal Free Energies=        -1064.448068

                     E (Thermal)             CV                S
                      KCal/Mol        Cal/Mol-Kelvin    Cal/Mol-Kelvin
 Total                  154.502             55.331            130.439
 Electronic               0.000              0.000              0.000
 Translational            0.889              2.981             42.266
 Rotational               0.889              2.981             33.010
 Vibrational            152.724             49.369             55.164
 Vibration     1          0.593              1.987              7.657
 Vibration     2          0.593              1.985              6.353
 Vibration     3          0.594              1.983              5.645
 Vibration     4          0.595              1.977              4.798
 Vibration     5          0.596              1.974              4.500
 Vibration     6          0.603              1.952              3.520
 Vibration     7          0.616              1.911              2.767
 Vibration     8          0.634              1.851              2.208
 Vibration     9          0.652              1.796              1.881
 Vibration    10          0.663              1.761              1.725
 Vibration    11          0.674              1.728              1.594
 Vibration    12          0.696              1.663              1.387
 Vibration    13          0.704              1.641              1.326
 Vibration    14          0.729              1.569              1.153
 Vibration    15          0.765              1.474              0.969
 Vibration    16          0.795              1.395              0.844
 Vibration    17          0.838              1.290              0.705
 Vibration    18          0.877              1.201              0.605
 Vibration    19          0.925              1.099              0.506
 Vibration    20          0.955              1.037              0.454

 Optimization completed.
    -- Stationary point found.
 Normal termination of Gaussian 16 at Thu Dec 10 23:37:53 2020.

 ----------------------------------------------------------------------
 # B3LYP/6-311++G(d,p) empiricaldispersion=gd3bj scf=xqc pop=npa geom=c
 heck
 ----------------------------------------------------------------------

 --------------------------------------
 CID_61325662_JID_6532_Energie_neutraal
 --------------------------------------
 Structure from the checkpoint file:  "JID_6532.chk"
 Charge =  0 Multiplicity = 1

 SCF Done:  E(RB3LYP) =  -1064.84527429     A.U. after   17 cycles
 Normal termination of Gaussian 16 at Thu Dec 10 23:41:30 2020.

 ----------------------------------------------------------------------
 # B3LYP/6-311++G(d,p) empiricaldispersion=gd3bj scf=xqc pop=npa geom=c
 heck
 ----------------------------------------------------------------------

 ------------------------------------
 CID_61325662_JID_6532_Energie_kation
 ------------------------------------
 Structure from the checkpoint file:  "JID_6532.chk"
 Charge =  1 Multiplicity = 2

 SCF Done:  E(UB3LYP) =  -1064.53487763     A.U. after   33 cycles
 SCF Done:  E(UB3LYP) =  -1064.53487763     a.u. after    1 cycles
 Normal termination of Gaussian 16 at Thu Dec 10 23:50:57 2020.
 Gaussian 16:  ES64L-G16RevA.03 25-Dec-2016

 ----------------------------------------------------------------------
 # B3LYP/6-311++G(d,p) empiricaldispersion=gd3bj scf=xqc pop=npa geom=c
 heck
 ----------------------------------------------------------------------

 -----------------------------------
 CID_61325662_JID_6532_Energie_anion
 -----------------------------------
 Structure from the checkpoint file:  "JID_6532.chk"
 Charge = -1 Multiplicity = 2

                         Standard orientation:
 ---------------------------------------------------------------------
 Center     Atomic      Atomic             Coordinates (Angstroms)
 Number     Number       Type             X           Y           Z
 ---------------------------------------------------------------------
      1          6           0        4.616412   -0.872978    0.447614
      2          6           0        5.160161    0.533577    0.367864
      3          6           0        3.685871    0.308397    0.555541
      4          6           0        2.735413    0.612258   -0.586436
      5          6           0        1.506269   -0.251746   -0.469390
      6          7           0        1.180436   -1.164102   -1.348743
      7          8           0       -0.037069   -1.683930   -0.838006
      8          6           0       -0.290945   -1.009377    0.293730
      9          7           0        0.613214   -0.118669    0.580322
     10          6           0       -1.565450   -1.291367    1.023773
     11          6           0       -2.722158   -0.503171    0.465984
     12          6           0       -3.870484   -0.985202   -0.101021
     13          6           0       -4.765113    0.044598   -0.526862
     14          6           0       -4.278892    1.297502   -0.281370
     15         16           0       -2.716456    1.244358    0.475203
     16          7           0        2.413009    2.044744   -0.615818
     17          1           0        4.812488   -1.456367    1.342450
     18          1           0        4.578930   -1.461161   -0.465877
     19          1           0        5.731702    0.916624    1.208225
     20          1           0        5.488965    0.904711   -0.598834
     21          1           0        3.268086    0.515839    1.538907
     22          1           0        3.225910    0.357182   -1.532315
     23          1           0       -1.799864   -2.357193    0.945948
     24          1           0       -1.398084   -1.056217    2.080014
     25          1           0       -4.069677   -2.045950   -0.211496
     26          1           0       -5.723807   -0.144068   -0.996684
     27          1           0       -4.739005    2.251153   -0.501184
     28          1           0        1.774030    2.231309   -1.388449
     29          1           0        1.897077    2.277101    0.233209
 ---------------------------------------------------------------------

 SCF Done:  E(UB3LYP) =  -1064.83778891     A.U. after   33 cycles
 SCF Done:  E(UB3LYP) =  -1064.83779102     a.u. after    3 cycles

 The electronic state is 2-A.
 Alpha  occ. eigenvalues --  -88.74702 -19.07886 -14.23491 -14.20429 -14.18884
 Alpha  occ. eigenvalues --  -10.13489 -10.11904 -10.11410 -10.09085 -10.08830
 Alpha  occ. eigenvalues --  -10.08779 -10.07685 -10.07617 -10.06974 -10.05503
 Alpha  occ. eigenvalues --  -10.04698  -7.83332  -5.79620  -5.79258  -5.78940
 Alpha  occ. eigenvalues --   -1.02953  -0.82399  -0.79434  -0.76606  -0.76128
 Alpha  occ. eigenvalues --   -0.74533  -0.65504  -0.61055  -0.60847  -0.57450
 Alpha  occ. eigenvalues --   -0.51989  -0.50839  -0.48434  -0.47708  -0.44080
 Alpha  occ. eigenvalues --   -0.42102  -0.40841  -0.40567  -0.39180  -0.38277
 Alpha  occ. eigenvalues --   -0.36677  -0.35243  -0.33128  -0.31793  -0.30389
 Alpha  occ. eigenvalues --   -0.30045  -0.28671  -0.28449  -0.26754  -0.26391
 Alpha  occ. eigenvalues --   -0.25051  -0.24924  -0.22179  -0.22040  -0.21824
 Alpha  occ. eigenvalues --   -0.21078  -0.19794  -0.17561  -0.16947  -0.15653
 Alpha  occ. eigenvalues --   -0.13301  -0.11463   0.05135
 Alpha virt. eigenvalues --    0.06793   0.07633   0.08350   0.08631   0.08741
 Alpha virt. eigenvalues --    0.09097   0.09526   0.09994   0.10674   0.11658
 Alpha virt. eigenvalues --    0.12022   0.12238   0.12455   0.14037   0.14292

  Beta  occ. eigenvalues --  -88.74679 -19.07676 -14.23311 -14.20423 -14.18886
  Beta  occ. eigenvalues --  -10.13185 -10.11906 -10.11401 -10.09081 -10.08826
  Beta  occ. eigenvalues --  -10.08776 -10.07705 -10.07443 -10.06818 -10.05522
  Beta  occ. eigenvalues --  -10.04645  -7.83311  -5.79613  -5.79251  -5.78861
  Beta  occ. eigenvalues --   -1.02610  -0.82306  -0.79334  -0.76585  -0.75902
  Beta  occ. eigenvalues --   -0.74240  -0.65267  -0.60928  -0.60778  -0.57192
  Beta  occ. eigenvalues --   -0.51977  -0.50762  -0.48147  -0.47637  -0.43913
  Beta  occ. eigenvalues --   -0.41819  -0.40771  -0.40543  -0.39009  -0.38042
  Beta  occ. eigenvalues --   -0.36421  -0.34884  -0.32872  -0.31692  -0.30141
  Beta  occ. eigenvalues --   -0.29963  -0.28517  -0.28441  -0.26572  -0.26293
  Beta  occ. eigenvalues --   -0.24898  -0.24557  -0.21966  -0.21871  -0.21588
  Beta  occ. eigenvalues --   -0.21018  -0.19440  -0.17452  -0.16285  -0.15200
  Beta  occ. eigenvalues --   -0.12901  -0.10640
  Beta virt. eigenvalues --    0.06725   0.07682   0.08178   0.08595   0.08974
  Beta virt. eigenvalues --    0.09194   0.09681   0.10359   0.10884   0.11206
  Beta virt. eigenvalues --    0.11823   0.11981   0.12348   0.12768   0.14117

 Mulliken charges and spin densities:
               1          2
     1  C   -0.512361  -0.073863
     2  C   -0.335436  -0.025578
     3  C    0.444285  -0.013763
     4  C   -0.541576   0.016489
     5  C    0.403467  -0.059325
     6  N   -0.380009   0.088735
     7  O    0.222758   0.058849
     8  C   -0.686160   0.093870
     9  N    0.078963   0.060462
    10  C    1.536996  -2.395198
    11  C   -0.132238   0.431520
    12  C   -1.173672   1.666871
    13  C    0.608491  -1.460545
    14  C   -0.302382   0.512272
    15  S   -0.250580  -0.019449
    16  N   -0.235588   0.019991
    17  H    0.083128   0.056280
    18  H    0.142567  -0.005438
    19  H    0.122394   0.002677
    20  H    0.122011   0.000359
    21  H    0.175865   0.078823
    22  H    0.215205   0.002364
    23  H   -0.042116   0.211490
    24  H   -0.466212   0.702058
    25  H   -0.506587   0.671604
    26  H   -0.110264   0.217384
    27  H    0.046979   0.155996
    28  H    0.223511   0.006135
    29  H    0.248561  -0.001069
 Sum of Mulliken charges =  -1.00000   1.00000

 Dipole moment (field-independent basis, Debye):
    X=              6.4626    Y=              3.1387    Z=             -1.4094  Tot=              7.3214
 Quadrupole moment (field-independent basis, Debye-Ang):
   XX=           -166.4281   YY=           -128.5945   ZZ=           -126.4137
   XY=             -9.8922   XZ=              6.7193   YZ=              0.4138

 Summary of Natural Population Analysis:

                                       Natural Population
                Natural  -----------------------------------------------
    Atom  No    Charge         Core      Valence    Rydberg      Total
 -----------------------------------------------------------------------
      C    1   -0.19719      0.99963     2.19060    0.00696     3.19719
      C    2   -0.19565      0.99962     2.18976    0.00626     3.19565
      C    3   -0.11229      0.99957     2.09901    0.01371     3.11229
      C    4   -0.03216      0.99952     2.01961    0.01303     3.03216
      C    5    0.16213      0.99961     1.81517    0.02308     2.83787
      N    6   -0.08001      0.99965     2.56960    0.01076     3.58001
      O    7   -0.15545      0.99985     3.14743    0.00817     4.15545
      C    8    0.33729      0.99962     1.64161    0.02148     2.66271
      N    9   -0.29080      0.99966     2.78167    0.00947     3.79080
      C   10   -0.23456      0.99953     2.22299    0.01204     3.23456
      C   11   -0.06983      0.99949     2.05675    0.01359     3.06983
      C   12   -0.12440      0.99945     2.11419    0.01077     3.12440
      C   13   -0.13807      0.99953     2.12660    0.01194     3.13807
      C   14   -0.17556      0.99954     2.16534    0.01068     3.17556
      S   15    0.20547      4.99940     2.77434    0.02079     7.79453
      N   16   -0.41513      0.99978     2.90704    0.00831     3.91513
      H   17    0.10039      0.00000     0.39823    0.00139     0.39961
      H   18    0.10280      0.00000     0.39616    0.00104     0.39720
      H   19    0.09867      0.00000     0.40043    0.00090     0.40133
      H   20    0.10069      0.00000     0.39839    0.00092     0.39931
      H   21    0.11062      0.00000     0.38826    0.00111     0.38938
      H   22    0.09893      0.00000     0.39958    0.00149     0.40107
      H   23    0.11940      0.00000     0.37834    0.00226     0.38060
      H   24    0.12206      0.00000     0.37413    0.00381     0.37794
      H   25    0.10527      0.00000     0.39340    0.00134     0.39473
      H   26    0.10165      0.00000     0.39743    0.00092     0.39835
      H   27    0.10130      0.00000     0.39786    0.00085     0.39870
      H   28    0.17568      0.00000     0.32303    0.00128     0.32432
      H   29    0.17876      0.00000     0.31942    0.00182     0.32124
 =======================================================================
   * Total *   -0.00000     19.99345    41.78636    0.22019    62.00000

 Normal termination of Gaussian 16 at Fri Dec 11 00:19:43 2020.
