 Gaussian 16, Revision A.03,

 -----------------------------------------------------------
 # opt freq B3LYP/6-31G(d) empiricaldispersion=gd3bj scf=xqc
 -----------------------------------------------------------

 -------------------------------
 CID_131109113_JID_4623_neutraal
 -------------------------------
 Symbolic Z-matrix:
 Charge =  0 Multiplicity = 1

 SCF Done:  E(RB3LYP) =  -701.383427636     A.U. after   15 cycles
 SCF Done:  E(RB3LYP) =  -701.393252450     A.U. after   12 cycles
 SCF Done:  E(RB3LYP) =  -701.394533920     A.U. after   12 cycles
 SCF Done:  E(RB3LYP) =  -701.394833507     A.U. after   11 cycles
 SCF Done:  E(RB3LYP) =  -701.394914527     A.U. after   11 cycles
 SCF Done:  E(RB3LYP) =  -701.394938384     A.U. after   10 cycles
 SCF Done:  E(RB3LYP) =  -701.394951440     A.U. after   10 cycles
 SCF Done:  E(RB3LYP) =  -701.394962512     A.U. after   10 cycles
 SCF Done:  E(RB3LYP) =  -701.394970545     A.U. after   10 cycles
 SCF Done:  E(RB3LYP) =  -701.394977480     A.U. after   10 cycles
 SCF Done:  E(RB3LYP) =  -701.394979295     A.U. after   10 cycles
 SCF Done:  E(RB3LYP) =  -701.394980907     A.U. after    9 cycles
 SCF Done:  E(RB3LYP) =  -701.394983033     A.U. after   10 cycles
 SCF Done:  E(RB3LYP) =  -701.394983510     A.U. after    8 cycles
 Optimization completed.
    -- Stationary point found.
 Normal termination of Gaussian 16 at Thu Dec 10 10:13:34 2020.

 --------------------------------------------------------------------
 #N Geom=AllCheck Guess=TCheck SCRF=Check GenChk RB3LYP/6-31G(d) Freq
 --------------------------------------------------------------------

 Structure from the checkpoint file:  "JID_4623.chk"
 -------------------------------
 CID_131109113_JID_4623_neutraal
 -------------------------------
 Charge =  0 Multiplicity = 1

 SCF Done:  E(RB3LYP) =  -701.394983510     A.U. after    1 cycles

  Exact polarizability: 152.868  -4.466 104.270  -5.960  -4.860  72.503
 Approx polarizability: 187.469  -7.118 176.104 -13.495 -15.365 109.569

                      1                      2                      3
                      A                      A                      A
 Frequencies --     19.3334                45.1396                65.4383
 Red. masses --      3.5815                 6.2685                 4.2423
 Frc consts  --      0.0008                 0.0075                 0.0107
 IR Inten    --      0.1536                 0.3542                 0.4135

                      4                      5                      6
                      A                      A                      A
 Frequencies --     86.6289               114.3446               148.4411
 Red. masses --      5.1100                 4.2035                 6.2696
 Frc consts  --      0.0226                 0.0324                 0.0814
 IR Inten    --      1.9777                 2.0641                 2.6805

                      7                      8                      9
                      A                      A                      A
 Frequencies --    193.4200               234.4112               280.8493
 Red. masses --      5.0508                 1.1723                 2.5940
 Frc consts  --      0.1113                 0.0380                 0.1206
 IR Inten    --      6.5971                 0.3649                 0.8958

                     10                     11                     12
                      A                      A                      A
 Frequencies --    307.3354               352.0611               354.6401
 Red. masses --      5.9457                 2.4692                 3.6608
 Frc consts  --      0.3309                 0.1803                 0.2713
 IR Inten    --      2.5223                 7.7582                 0.3751

                     13                     14                     15
                      A                      A                      A
 Frequencies --    384.5312               426.3192               469.4028
 Red. masses --      2.7800                 5.8626                 2.2684
 Frc consts  --      0.2422                 0.6278                 0.2945
 IR Inten    --      6.3814                 3.4338                10.4347

                     16                     17                     18
                      A                      A                      A
 Frequencies --    504.3141               536.6404               574.3564
 Red. masses --      1.9522                 4.1771                 2.1241
 Frc consts  --      0.2925                 0.7088                 0.4128
 IR Inten    --    131.4797                24.8748                26.1264

                     19                     20                     21
                      A                      A                      A
 Frequencies --    654.1169               668.9182               699.8730
 Red. masses --      1.5836                 3.5668                 3.7896
 Frc consts  --      0.3992                 0.9403                 1.0937
 IR Inten    --     35.4172                31.4992                60.5927

                     22                     23                     24
                      A                      A                      A
 Frequencies --    728.5638               752.1297               797.4518
 Red. masses --      2.9997                 2.5331                 4.9997
 Frc consts  --      0.9381                 0.8443                 1.8733
 IR Inten    --     91.2572                 9.0579                 4.9626

                     25                     26                     27
                      A                      A                      A
 Frequencies --    805.1815               830.0464               904.6260
 Red. masses --      3.0255                 3.9246                 1.2309
 Frc consts  --      1.1557                 1.5931                 0.5935
 IR Inten    --      8.7750                10.6658                 4.2625

                     28                     29                     30
                      A                      A                      A
 Frequencies --    976.0708               987.0859               998.6411
 Red. masses --      6.6476                 3.7427                 2.6812
 Frc consts  --      3.7315                 2.1485                 1.5754
 IR Inten    --     15.4869                 4.8367                18.3214

                     31                     32                     33
                      A                      A                      A
 Frequencies --   1011.2779              1046.9262              1111.5069
 Red. masses --      4.3476                 2.8975                 1.6537
 Frc consts  --      2.6196                 1.8711                 1.2037
 IR Inten    --     32.5664                 2.6508                 0.6665

                     34                     35                     36
                      A                      A                      A
 Frequencies --   1120.8286              1131.1231              1145.1919
 Red. masses --      4.6896                 1.1035                 1.7962
 Frc consts  --      3.4711                 0.8318                 1.3879
 IR Inten    --    171.0517                 1.0668                34.8427

                     37                     38                     39
                      A                      A                      A
 Frequencies --   1158.1265              1185.5429              1216.5068
 Red. masses --      2.3412                 2.5671                 1.5506
 Frc consts  --      1.8501                 2.1258                 1.3520
 IR Inten    --     86.5263                20.2798                10.3132

                     40                     41                     42
                      A                      A                      A
 Frequencies --   1234.1592              1238.9574              1254.0976
 Red. masses --      1.8165                 1.8069                 2.1629
 Frc consts  --      1.6302                 1.6342                 2.0042
 IR Inten    --      9.6740               102.3496                75.7043

                     43                     44                     45
                      A                      A                      A
 Frequencies --   1279.6197              1286.3804              1310.8171
 Red. masses --      1.7385                 2.3299                 1.6296
 Frc consts  --      1.6772                 2.2716                 1.6498
 IR Inten    --     20.8550                 0.5270                 6.7375

                     46                     47                     48
                      A                      A                      A
 Frequencies --   1322.0624              1358.8285              1413.7970
 Red. masses --      2.0476                 1.7751                 1.6828
 Frc consts  --      2.1087                 1.9311                 1.9818
 IR Inten    --     95.1785                 4.0918                12.7097

                     49                     50                     51
                      A                      A                      A
 Frequencies --   1432.5193              1476.4522              1516.0209
 Red. masses --      3.9122                 1.1812                 1.0516
 Frc consts  --      4.7301                 1.5172                 1.4240
 IR Inten    --     68.5636                 7.5062                20.1919

                     52                     53                     54
                      A                      A                      A
 Frequencies --   1526.9923              1528.3612              1549.0321
 Red. masses --      1.0471                 1.0885                 1.7482
 Frc consts  --      1.4385                 1.4981                 2.4715
 IR Inten    --      1.4492                 2.5171               169.1608

                     55                     56                     57
                      A                      A                      A
 Frequencies --   1556.3493              1626.1341              1690.0755
 Red. masses --      1.1528                 7.6076                10.5004
 Frc consts  --      1.6452                11.8525                17.6712
 IR Inten    --     17.2297                58.3892               571.0838

                     58                     59                     60
                      A                      A                      A
 Frequencies --   1818.0885              2929.6688              2938.2531
 Red. masses --      9.7520                 1.0630                 1.0697
 Frc consts  --     18.9920                 5.3754                 5.4410
 IR Inten    --    308.8752                55.5655                79.0879

                     61                     62                     63
                      A                      A                      A
 Frequencies --   2961.3078              3078.1193              3092.5180
 Red. masses --      1.0715                 1.0704                 1.0910
 Frc consts  --      5.5361                 5.9752                 6.1473
 IR Inten    --     91.4195                43.5538                46.8998

                     64                     65                     66
                      A                      A                      A
 Frequencies --   3103.4511              3121.7030              3154.3898
 Red. masses --      1.0927                 1.1043                 1.0875
 Frc consts  --      6.2006                 6.3403                 6.3756
 IR Inten    --     29.4343                22.0888                 6.9884

                     67                     68                     69
                      A                      A                      A
 Frequencies --   3334.9632              3589.5361              3693.0886
 Red. masses --      1.1004                 1.0757                 1.0639
 Frc consts  --      7.2110                 8.1661                 8.5494
 IR Inten    --      4.1736                26.6159                67.1124

 - Thermochemistry -
 -------------------
 Temperature   298.150 Kelvin.  Pressure   1.00000 Atm.
 Atom     1 has atomic number  6 and mass  12.00000

 Molecular mass:   197.08004 amu.
 Principal axes and moments of inertia in atomic units:
                           1         2         3
     Eigenvalues --  1007.314406302.743896965.96124
           X            0.99999   0.00207   0.00476
           Y           -0.00211   0.99997   0.00723
           Z           -0.00474  -0.00724   0.99996
 This molecule is an asymmetric top.
 Rotational symmetry number  1.
 Warning -- assumption of classical behavior for rotation
           may cause significant error
 Rotational temperatures (Kelvin)      0.08598     0.01374     0.01243
 Rotational constants (GHZ):           1.79164     0.28634     0.25908
 Zero-point vibrational energy     523025.8 (Joules/Mol)
                                  125.00617 (Kcal/Mol)
 Warning -- explicit consideration of  18 degrees of freedom as
           vibrations may cause significant error
 Vibrational temperatures:     27.82    64.95    94.15   124.64   164.52
          (Kelvin)            213.57   278.29   337.27   404.08   442.19
                              506.54   510.25   553.25   613.38   675.37
                              725.60   772.11   826.37   941.13   962.42
                             1006.96  1048.24  1082.15  1147.36  1158.48
                             1194.25  1301.55  1404.35  1420.20  1436.82
                             1455.00  1506.29  1599.21  1612.62  1627.43
                             1647.68  1666.29  1705.73  1750.28  1775.68
                             1782.58  1804.37  1841.09  1850.81  1885.97
                             1902.15  1955.05  2034.14  2061.08  2124.29
                             2181.22  2197.00  2198.97  2228.71  2239.24
                             2339.64  2431.64  2615.82  4215.14  4227.49
                             4260.66  4428.73  4449.44  4465.17  4491.43
                             4538.46  4798.27  5164.54  5313.53

 Zero-point correction=                           0.199210 (Hartree/Particle)
 Thermal correction to Energy=                    0.212121
 Thermal correction to Enthalpy=                  0.213065
 Thermal correction to Gibbs Free Energy=         0.157683
 Sum of electronic and zero-point Energies=           -701.195774
 Sum of electronic and thermal Energies=              -701.182863
 Sum of electronic and thermal Enthalpies=            -701.181919
 Sum of electronic and thermal Free Energies=         -701.237300

                     E (Thermal)             CV                S
                      KCal/Mol        Cal/Mol-Kelvin    Cal/Mol-Kelvin
 Total                  133.108             47.624            116.560
 Electronic               0.000              0.000              0.000
 Translational            0.889              2.981             41.740
 Rotational               0.889              2.981             32.159
 Vibrational            131.330             41.663             42.661
 Vibration     1          0.593              1.986              6.702
 Vibration     2          0.595              1.979              5.020
 Vibration     3          0.597              1.971              4.286
 Vibration     4          0.601              1.959              3.735
 Vibration     5          0.607              1.938              3.194
 Vibration     6          0.618              1.904              2.692
 Vibration     7          0.635              1.849              2.195
 Vibration     8          0.654              1.788              1.845
 Vibration     9          0.681              1.709              1.528
 Vibration    10          0.697              1.660              1.377
 Vibration    11          0.729              1.571              1.157
 Vibration    12          0.730              1.566              1.146
 Vibration    13          0.753              1.503              1.021
 Vibration    14          0.788              1.413              0.871
 Vibration    15          0.827              1.318              0.739
 Vibration    16          0.860              1.240              0.647
 Vibration    17          0.892              1.169              0.573
 Vibration    18          0.931              1.087              0.496

                           ! Non-Optimized Parameters !
 Normal termination of Gaussian 16 at Thu Dec 10 10:18:47 2020.

 ----------------------------------------------------------------------
 # B3LYP/6-311++G(d,p) empiricaldispersion=gd3bj scf=xqc pop=npa geom=c
 heck
 ----------------------------------------------------------------------

 ---------------------------------------
 CID_131109113_JID_4623_Energie_neutraal
 ---------------------------------------
 Structure from the checkpoint file:  "JID_4623.chk"
 Charge =  0 Multiplicity = 1

 SCF Done:  E(RB3LYP) =  -701.604254132     A.U. after   14 cycles
 Normal termination of Gaussian 16 at Thu Dec 10 10:20:52 2020.

 ----------------------------------------------------------------------
 # B3LYP/6-311++G(d,p) empiricaldispersion=gd3bj scf=xqc pop=npa geom=c
 heck
 ----------------------------------------------------------------------

 -------------------------------------
 CID_131109113_JID_4623_Energie_kation
 -------------------------------------
 Structure from the checkpoint file:  "JID_4623.chk"
 Charge =  1 Multiplicity = 2

 SCF Done:  E(UB3LYP) =  -701.310787218     A.U. after   22 cycles
 Normal termination of Gaussian 16 at Thu Dec 10 10:24:39 2020.
 Gaussian 16:  ES64L-G16RevA.03 25-Dec-2016

 ----------------------------------------------------------------------
 # B3LYP/6-311++G(d,p) empiricaldispersion=gd3bj scf=xqc pop=npa geom=c
 heck
 ----------------------------------------------------------------------

 ------------------------------------
 CID_131109113_JID_4623_Energie_anion
 ------------------------------------
 Structure from the checkpoint file:  "JID_4623.chk"
 Charge = -1 Multiplicity = 2

                         Standard orientation:
 ---------------------------------------------------------------------
 Center     Atomic      Atomic             Coordinates (Angstroms)
 Number     Number       Type             X           Y           Z
 ---------------------------------------------------------------------
      1          6           0       -4.937139   -0.642950   -0.704653
      2          7           0       -3.718373   -0.799587    0.057376
      3          6           0       -2.430616   -0.756969   -0.662680
      4          6           0       -1.834692   -0.012066    0.561453
      5          6           0       -3.295285    0.309789    0.930679
      6          7           0       -0.954646    1.118977    0.374088
      7          6           0        0.367333    0.887496    0.133894
      8          7           0        1.037821   -0.216944    0.276033
      9          6           0        2.348636    0.153267   -0.038540
     10          6           0        2.391618    1.469944   -0.369025
     11          8           0        1.113817    1.966905   -0.261718
     12          6           0        3.512069   -0.743928   -0.028946
     13          8           0        4.639890   -0.390232   -0.318079
     14          8           0        3.204547   -2.007833    0.334138
     15          1           0       -5.068271   -1.503159   -1.370013
     16          1           0       -4.945551    0.276850   -1.323216
     17          1           0       -5.796029   -0.606237   -0.025410
     18          1           0       -2.012298   -1.730033   -0.938652
     19          1           0       -2.448552   -0.100050   -1.551969
     20          1           0       -1.359166   -0.699892    1.260328
     21          1           0       -3.591134    1.304251    0.543417
     22          1           0       -3.603161    0.232982    1.978953
     23          1           0       -1.339903    1.916813   -0.116441
     24          1           0        3.165427    2.150861   -0.680078
     25          1           0        4.047452   -2.497729    0.302788
 ---------------------------------------------------------------------

 SCF Done:  E(UB3LYP) =  -701.599396978     A.U. after   33 cycles
 SCF Done:  E(UB3LYP) =  -701.599396978     a.u. after    1 cycles

 The electronic state is 2-A.
 Alpha  occ. eigenvalues --  -19.08086 -19.04687 -18.97741 -14.23967 -14.20962
 Alpha  occ. eigenvalues --  -14.18876 -10.18053 -10.16580 -10.11717 -10.10144
 Alpha  occ. eigenvalues --  -10.09987 -10.09578 -10.08850 -10.08087  -1.02152
 Alpha  occ. eigenvalues --   -0.98462  -0.89055  -0.86737  -0.83620  -0.80176
 Alpha  occ. eigenvalues --   -0.67454  -0.63951  -0.58656  -0.57329  -0.54134
 Alpha  occ. eigenvalues --   -0.49833  -0.48941  -0.46419  -0.42288  -0.41095
 Alpha  occ. eigenvalues --   -0.39781  -0.37742  -0.37314  -0.36416  -0.35350
 Alpha  occ. eigenvalues --   -0.35136  -0.32702  -0.32094  -0.30436  -0.30274
 Alpha  occ. eigenvalues --   -0.29171  -0.28058  -0.27520  -0.25109  -0.23893
 Alpha  occ. eigenvalues --   -0.21497  -0.20800  -0.18801  -0.18297  -0.16007
 Alpha  occ. eigenvalues --   -0.13013  -0.10757   0.04436
 Alpha virt. eigenvalues --    0.05805   0.07613   0.08320   0.08350   0.09407
 Alpha virt. eigenvalues --    0.09774   0.10875   0.11417   0.11664   0.12197
 Alpha virt. eigenvalues --    0.12891   0.13997   0.14526   0.14824   0.15758

  Beta  occ. eigenvalues --  -19.07962 -19.04622 -18.97579 -14.23958 -14.20952
  Beta  occ. eigenvalues --  -14.18876 -10.18064 -10.16337 -10.11714 -10.10122
  Beta  occ. eigenvalues --  -10.09664 -10.09569 -10.08808 -10.08081  -1.01947
  Beta  occ. eigenvalues --   -0.98224  -0.88791  -0.86711  -0.83584  -0.80125
  Beta  occ. eigenvalues --   -0.67357  -0.63657  -0.58612  -0.57060  -0.53834
  Beta  occ. eigenvalues --   -0.49706  -0.48853  -0.46314  -0.42166  -0.40997
  Beta  occ. eigenvalues --   -0.39710  -0.37483  -0.37084  -0.36135  -0.35197
  Beta  occ. eigenvalues --   -0.34984  -0.32094  -0.31748  -0.30393  -0.30214
  Beta  occ. eigenvalues --   -0.29026  -0.27922  -0.27336  -0.25049  -0.23857
  Beta  occ. eigenvalues --   -0.21179  -0.20131  -0.18486  -0.18161  -0.15853
  Beta  occ. eigenvalues --   -0.12930  -0.09902
  Beta virt. eigenvalues --    0.06861   0.08229   0.08458   0.08754   0.09051
  Beta virt. eigenvalues --    0.09654   0.09908   0.11324   0.11728   0.12014
  Beta virt. eigenvalues --    0.12325   0.13044   0.14194   0.14577   0.14815

 Mulliken charges and spin densities:
               1          2
     1  C    0.955637  -1.281502
     2  N   -0.291059   0.279779
     3  C   -0.236625  -0.120258
     4  C   -0.600362   0.292839
     5  C    0.736801  -1.027733
     6  N   -0.122831   0.045489
     7  C   -0.203123   0.042916
     8  N   -0.104327  -0.011687
     9  C    0.102053  -0.139796
    10  C   -0.121526   0.374106
    11  O   -0.094515   0.024856
    12  C    0.013483   0.113829
    13  O   -0.414819   0.057684
    14  O   -0.191872   0.010929
    15  H   -0.269930   0.402654
    16  H   -0.441357   0.557882
    17  H   -0.349704   0.486735
    18  H    0.142676   0.019643
    19  H    0.009864   0.127043
    20  H    0.245373  -0.012125
    21  H   -0.204659   0.308914
    22  H   -0.004655   0.174938
    23  H   -0.000066   0.266765
    24  H    0.177248   0.005985
    25  H    0.268295   0.000115
 Sum of Mulliken charges =  -1.00000   1.00000

 Dipole moment (field-independent basis, Debye):
    X=              3.2378    Y=             -0.6721    Z=              1.1724  Tot=              3.5085
 Quadrupole moment (field-independent basis, Debye-Ang):
   XX=           -187.3347   YY=           -102.7663   ZZ=           -100.6362
   XY=             -1.1045   XZ=             -4.4423   YZ=              0.6284

 Summary of Natural Population Analysis:

                                       Natural Population
                Natural  -----------------------------------------------
    Atom  No    Charge         Core      Valence    Rydberg      Total
 -----------------------------------------------------------------------
      C    1   -0.17553      0.99965     2.16719    0.00869     3.17553
      N    2   -0.27991      0.99973     2.76654    0.01364     3.77991
      C    3   -0.08179      0.99963     2.07140    0.01076     3.08179
      C    4   -0.01734      0.99957     2.00397    0.01379     3.01734
      C    5   -0.07807      0.99963     2.06642    0.01202     3.07807
      N    6   -0.32275      0.99964     2.81193    0.01118     3.82275
      C    7    0.34610      0.99961     1.63372    0.02058     2.65390
      N    8   -0.27332      0.99966     2.76586    0.00780     3.77332
      C    9   -0.02410      0.99946     2.01011    0.01453     3.02410
      C   10    0.12402      0.99947     1.86307    0.01344     2.87598
      O   11   -0.23805      0.99986     3.23121    0.00697     4.23805
      C   12    0.41567      0.99966     1.56105    0.02362     2.58433
      O   13   -0.31593      0.99987     3.30922    0.00683     4.31593
      O   14   -0.33792      0.99988     3.33194    0.00610     4.33792
      H   15    0.09498      0.00000     0.40372    0.00129     0.40502
      H   16    0.08180      0.00000     0.41524    0.00296     0.41820
      H   17    0.09595      0.00000     0.40251    0.00154     0.40405
      H   18    0.09552      0.00000     0.40328    0.00121     0.40448
      H   19    0.08250      0.00000     0.41600    0.00150     0.41750
      H   20    0.10999      0.00000     0.38846    0.00155     0.39001
      H   21    0.08278      0.00000     0.41516    0.00206     0.41722
      H   22    0.09324      0.00000     0.40553    0.00124     0.40676
      H   23    0.19477      0.00000     0.30207    0.00316     0.30523
      H   24    0.09639      0.00000     0.40268    0.00094     0.40361
      H   25    0.23101      0.00000     0.26614    0.00285     0.26899
 =======================================================================
   * Total *   -0.00000     13.99533    37.81442    0.19025    52.00000

 Normal termination of Gaussian 16 at Thu Dec 10 10:30:58 2020.
