 Gaussian 16, Revision A.03,

 -----------------------------------------------------------
 # opt freq B3LYP/6-31G(d) empiricaldispersion=gd3bj scf=xqc
 -----------------------------------------------------------

 ------------------------------
 CID_81754917_JID_6960_neutraal
 ------------------------------
 Symbolic Z-matrix:
 Charge =  0 Multiplicity = 1

 SCF Done:  E(RB3LYP) =  -741.728929336     A.U. after   15 cycles
 SCF Done:  E(RB3LYP) =  -741.734254632     A.U. after   13 cycles
 SCF Done:  E(RB3LYP) =  -741.729056173     A.U. after   14 cycles
 SCF Done:  E(RB3LYP) =  -741.733261568     A.U. after   14 cycles
 SCF Done:  E(RB3LYP) =  -741.735523655     A.U. after   11 cycles
 SCF Done:  E(RB3LYP) =  -741.735047290     A.U. after   14 cycles
 SCF Done:  E(RB3LYP) =  -741.735219015     A.U. after   12 cycles
 SCF Done:  E(RB3LYP) =  -741.735963539     A.U. after    9 cycles
 SCF Done:  E(RB3LYP) =  -741.736345055     A.U. after   13 cycles
 SCF Done:  E(RB3LYP) =  -741.736451774     A.U. after   12 cycles
 SCF Done:  E(RB3LYP) =  -741.737318880     A.U. after   11 cycles
 SCF Done:  E(RB3LYP) =  -741.737322740     A.U. after   10 cycles
 SCF Done:  E(RB3LYP) =  -741.737323762     A.U. after   10 cycles
 SCF Done:  E(RB3LYP) =  -741.737323903     A.U. after    9 cycles
 SCF Done:  E(RB3LYP) =  -741.737323924     A.U. after    7 cycles
 Optimization completed.
    -- Stationary point found.
 Normal termination of Gaussian 16 at Fri Dec 11 01:32:57 2020.

 --------------------------------------------------------------------
 #N Geom=AllCheck Guess=TCheck SCRF=Check GenChk RB3LYP/6-31G(d) Freq
 --------------------------------------------------------------------

 Structure from the checkpoint file:  "JID_6960.chk"
 ------------------------------
 CID_81754917_JID_6960_neutraal
 ------------------------------
 Charge =  0 Multiplicity = 1

 SCF Done:  E(RB3LYP) =  -741.737323924     A.U. after    1 cycles

  Exact polarizability: 169.269  -3.669 146.104 -16.813  -5.143  93.466
 Approx polarizability: 260.133   3.052 238.768 -47.751 -18.138 148.824

                      1                      2                      3
                      A                      A                      A
 Frequencies --     11.5923                33.5106                73.8197
 Red. masses --      5.5042                 3.2354                 4.3452
 Frc consts  --      0.0004                 0.0021                 0.0140
 IR Inten    --      0.0834                 0.5139                 1.7643

                      4                      5                      6
                      A                      A                      A
 Frequencies --     82.5162               103.5361               109.8876
 Red. masses --      5.8067                 2.5504                 4.5108
 Frc consts  --      0.0233                 0.0161                 0.0321
 IR Inten    --      1.4392                 3.7012                 1.7879

                      7                      8                      9
                      A                      A                      A
 Frequencies --    125.8656               165.8830               178.5745
 Red. masses --      4.3287                 8.5172                 1.4278
 Frc consts  --      0.0404                 0.1381                 0.0268
 IR Inten    --      0.2120                11.0915                 0.1179

                     10                     11                     12
                      A                      A                      A
 Frequencies --    185.4565               215.9125               263.5079
 Red. masses --      3.5376                 1.4013                 2.7760
 Frc consts  --      0.0717                 0.0385                 0.1136
 IR Inten    --      2.9571                 0.6725                 4.8516

                     13                     14                     15
                      A                      A                      A
 Frequencies --    307.8304               313.1827               350.5376
 Red. masses --      3.2207                 3.6724                 3.9883
 Frc consts  --      0.1798                 0.2122                 0.2887
 IR Inten    --      0.2029                 2.3148                13.1559

                     16                     17                     18
                      A                      A                      A
 Frequencies --    392.7491               411.3228               439.4149
 Red. masses --      3.7887                 3.9987                 3.2269
 Frc consts  --      0.3443                 0.3986                 0.3671
 IR Inten    --      0.2363                 1.4885                 6.2820

                     19                     20                     21
                      A                      A                      A
 Frequencies --    463.5848               489.4552               519.8831
 Red. masses --      4.2057                 5.2904                 4.1662
 Frc consts  --      0.5325                 0.7467                 0.6634
 IR Inten    --      1.6404                 3.0616                 1.2910

                     22                     23                     24
                      A                      A                      A
 Frequencies --    588.6430               606.1880               613.6620
 Red. masses --      3.5159                 6.3086                 5.3536
 Frc consts  --      0.7178                 1.3658                 1.1878
 IR Inten    --      3.2651                14.6099                10.2262

                     25                     26                     27
                      A                      A                      A
 Frequencies --    638.2364               668.4713               741.3167
 Red. masses --      5.7652                 4.3197                 5.2431
 Frc consts  --      1.3837                 1.1373                 1.6976
 IR Inten    --      2.4110                 7.0887                 1.9900

                     28                     29                     30
                      A                      A                      A
 Frequencies --    766.0007               796.8909               830.4579
 Red. masses --      4.5622                 1.4090                 4.7500
 Frc consts  --      1.5772                 0.5272                 1.9301
 IR Inten    --      0.7200                 7.6331                 7.1812

                     31                     32                     33
                      A                      A                      A
 Frequencies --    837.5638               872.8416               917.7299
 Red. masses --      1.3064                 2.9007                 1.4029
 Frc consts  --      0.5400                 1.3020                 0.6962
 IR Inten    --     23.4018                10.4351                 2.3882

                     34                     35                     36
                      A                      A                      A
 Frequencies --    928.2104               962.5666               971.1428
 Red. masses --      2.6799                 1.3613                 2.9468
 Frc consts  --      1.3604                 0.7431                 1.6375
 IR Inten    --     10.5503                 0.5628                36.2964

                     37                     38                     39
                      A                      A                      A
 Frequencies --   1033.0557              1056.2410              1103.9336
 Red. masses --      2.5898                 4.3138                 1.9868
 Frc consts  --      1.6284                 2.8355                 1.4266
 IR Inten    --      1.1613                71.4654                19.1733

                     40                     41                     42
                      A                      A                      A
 Frequencies --   1134.5437              1145.5657              1157.6046
 Red. masses --      1.9804                 1.8564                 1.6252
 Frc consts  --      1.5019                 1.4353                 1.2832
 IR Inten    --     32.5439                19.6488                 7.5578

                     43                     44                     45
                      A                      A                      A
 Frequencies --   1177.5415              1209.1725              1238.3612
 Red. masses --      2.6112                 1.7393                 2.3491
 Frc consts  --      2.1333                 1.4983                 2.1225
 IR Inten    --     37.1976                 3.7298                21.9608

                     46                     47                     48
                      A                      A                      A
 Frequencies --   1253.5684              1278.5534              1294.2231
 Red. masses --      1.7417                 2.5461                 2.6573
 Frc consts  --      1.6126                 2.4523                 2.6225
 IR Inten    --     59.4540               165.9009               147.8667

                     49                     50                     51
                      A                      A                      A
 Frequencies --   1315.2537              1343.1823              1350.0175
 Red. masses --      4.1901                 1.1601                 2.0405
 Frc consts  --      4.2707                 1.2332                 2.1911
 IR Inten    --     32.5984                25.2624                30.8236

                     52                     53                     54
                      A                      A                      A
 Frequencies --   1378.6278              1421.3379              1432.9209
 Red. masses --      1.3572                 1.2963                 1.6661
 Frc consts  --      1.5198                 1.5430                 2.0155
 IR Inten    --     32.5555                 5.2264                26.5177

                     55                     56                     57
                      A                      A                      A
 Frequencies --   1449.3510              1477.1385              1490.3423
 Red. masses --      1.3022                 1.8598                 1.1507
 Frc consts  --      1.6117                 2.3909                 1.5059
 IR Inten    --     10.5224                86.5664                19.7967

                     58                     59                     60
                      A                      A                      A
 Frequencies --   1505.9489              1514.8896              1518.9375
 Red. masses --      1.3549                 1.0524                 1.0618
 Frc consts  --      1.8104                 1.4230                 1.4434
 IR Inten    --      6.6655                 4.3595                 3.3762

                     61                     62                     63
                      A                      A                      A
 Frequencies --   1523.8803              1529.9663              1540.2959
 Red. masses --      1.0454                 1.0753                 1.5181
 Frc consts  --      1.4304                 1.4830                 2.1220
 IR Inten    --      4.2752                20.1210                 6.5589

                     64                     65                     66
                      A                      A                      A
 Frequencies --   1551.4486              1593.3845              1636.8341
 Red. masses --      1.7455                 5.6406                 5.4784
 Frc consts  --      2.4754                 8.4376                 8.6480
 IR Inten    --     93.3524               129.4577                39.0178

                     67                     68                     69
                      A                      A                      A
 Frequencies --   1833.5624              2336.0347              3023.7700
 Red. masses --     11.4228                12.6752                 1.0496
 Frc consts  --     22.6262                40.7534                 5.6540
 IR Inten    --    225.4912                38.7170                65.3157

                     70                     71                     72
                      A                      A                      A
 Frequencies --   3065.7259              3067.7649              3095.6687
 Red. masses --      1.0384                 1.0711                 1.0583
 Frc consts  --      5.7501                 5.9391                 5.9753
 IR Inten    --     14.6183                20.3375                29.2656

                     73                     74                     75
                      A                      A                      A
 Frequencies --   3112.3730              3133.8702              3145.7307
 Red. masses --      1.0863                 1.1014                 1.1055
 Frc consts  --      6.1996                 6.3732                 6.4451
 IR Inten    --     19.5577                25.8285                12.9378

                     76                     77                     78
                      A                      A                      A
 Frequencies --   3147.6468              3151.0919              3167.9882
 Red. masses --      1.0941                 1.1034                 1.1053
 Frc consts  --      6.3869                 6.4551                 6.5355
 IR Inten    --      3.7737                10.9756                16.3884

                     79                     80                     81
                      A                      A                      A
 Frequencies --   3196.6891              3203.2593              3223.7268
 Red. masses --      1.0881                 1.0897                 1.0954
 Frc consts  --      6.5515                 6.5878                 6.7071
 IR Inten    --     17.5306                15.0326                 8.0053

 - Thermochemistry -
 -------------------
 Temperature   298.150 Kelvin.  Pressure   1.00000 Atm.
 Atom     1 has atomic number  6 and mass  12.00000

 Molecular mass:   219.10078 amu.
 Principal axes and moments of inertia in atomic units:
                           1         2         3
     Eigenvalues --  1994.572144743.583845619.94426
           X            0.99981   0.01181   0.01539
           Y           -0.01214   0.99970   0.02116
           Z           -0.01514  -0.02134   0.99966
 This molecule is an asymmetric top.
 Rotational symmetry number  1.
 Warning -- assumption of classical behavior for rotation
           may cause significant error
 Rotational temperatures (Kelvin)      0.04342     0.01826     0.01541
 Rotational constants (GHZ):           0.90483     0.38046     0.32113
 Zero-point vibrational energy     613319.2 (Joules/Mol)
                                  146.58682 (Kcal/Mol)
 Warning -- explicit consideration of  24 degrees of freedom as
           vibrations may cause significant error
 Vibrational temperatures:     16.68    48.21   106.21   118.72   148.97
          (Kelvin)            158.10   181.09   238.67   256.93   266.83
                              310.65   379.13   442.90   450.60   504.35
                              565.08   591.80   632.22   667.00   704.22
                              748.00   846.93   872.17   882.92   918.28
                              961.78  1066.59  1102.10  1146.55  1194.84
                             1205.07  1255.82  1320.41  1335.49  1384.92
                             1397.26  1486.34  1519.70  1588.31  1632.36
                             1648.21  1665.53  1694.22  1739.73  1781.73
                             1803.61  1839.55  1862.10  1892.36  1932.54
                             1942.37  1983.54  2044.99  2061.65  2085.29
                             2125.27  2144.27  2166.72  2179.59  2185.41
                             2192.52  2201.28  2216.14  2232.19  2292.52
                             2355.04  2638.09  3361.03  4350.53  4410.90
                             4413.83  4453.98  4478.01  4508.94  4526.00
                             4528.76  4533.72  4558.03  4599.32  4608.78
                             4638.22

 Zero-point correction=                           0.233601 (Hartree/Particle)
 Thermal correction to Energy=                    0.249191
 Thermal correction to Enthalpy=                  0.250135
 Thermal correction to Gibbs Free Energy=         0.188712
 Sum of electronic and zero-point Energies=           -741.503723
 Sum of electronic and thermal Energies=              -741.488133
 Sum of electronic and thermal Enthalpies=            -741.487189
 Sum of electronic and thermal Free Energies=         -741.548612

                     E (Thermal)             CV                S
                      KCal/Mol        Cal/Mol-Kelvin    Cal/Mol-Kelvin
 Total                  156.369             56.691            129.275
 Electronic               0.000              0.000              0.000
 Translational            0.889              2.981             42.056
 Rotational               0.889              2.981             32.342
 Vibrational            154.592             50.729             54.877
 Vibration     1          0.593              1.987              7.717
 Vibration     2          0.594              1.983              5.610
 Vibration     3          0.599              1.966              4.049
 Vibration     4          0.600              1.961              3.830
 Vibration     5          0.605              1.946              3.387
 Vibration     6          0.606              1.941              3.271
 Vibration     7          0.611              1.927              3.008
 Vibration     8          0.624              1.884              2.482
 Vibration     9          0.629              1.869              2.343
 Vibration    10          0.632              1.860              2.273
 Vibration    11          0.645              1.817              1.993
 Vibration    12          0.670              1.740              1.638
 Vibration    13          0.698              1.659              1.374
 Vibration    14          0.701              1.649              1.345
 Vibration    15          0.727              1.574              1.164
 Vibration    16          0.760              1.486              0.990
 Vibration    17          0.775              1.446              0.922
 Vibration    18          0.799              1.384              0.828
 Vibration    19          0.821              1.331              0.756
 Vibration    20          0.845              1.273              0.685
 Vibration    21          0.875              1.206              0.610
 Vibration    22          0.946              1.056              0.470
 Vibration    23          0.965              1.019              0.439
 Vibration    24          0.973              1.003              0.427

 Optimization completed.
    -- Stationary point found.
 Normal termination of Gaussian 16 at Fri Dec 11 01:42:27 2020.

 ----------------------------------------------------------------------
 # B3LYP/6-311++G(d,p) empiricaldispersion=gd3bj scf=xqc pop=npa geom=c
 heck
 ----------------------------------------------------------------------

 --------------------------------------
 CID_81754917_JID_6960_Energie_neutraal
 --------------------------------------
 Structure from the checkpoint file:  "JID_6960.chk"
 Charge =  0 Multiplicity = 1

 SCF Done:  E(RB3LYP) =  -741.941028922     A.U. after   16 cycles
 Normal termination of Gaussian 16 at Fri Dec 11 01:46:09 2020.

 ----------------------------------------------------------------------
 # B3LYP/6-311++G(d,p) empiricaldispersion=gd3bj scf=xqc pop=npa geom=c
 heck
 ----------------------------------------------------------------------

 ------------------------------------
 CID_81754917_JID_6960_Energie_kation
 ------------------------------------
 Structure from the checkpoint file:  "JID_6960.chk"
 Charge =  1 Multiplicity = 2

 SCF Done:  E(UB3LYP) =  -741.649214084     A.U. after   24 cycles
 Normal termination of Gaussian 16 at Fri Dec 11 01:53:35 2020.
 Gaussian 16:  ES64L-G16RevA.03 25-Dec-2016

 ----------------------------------------------------------------------
 # B3LYP/6-311++G(d,p) empiricaldispersion=gd3bj scf=xqc pop=npa geom=c
 heck
 ----------------------------------------------------------------------

 -----------------------------------
 CID_81754917_JID_6960_Energie_anion
 -----------------------------------
 Structure from the checkpoint file:  "JID_6960.chk"
 Charge = -1 Multiplicity = 2

                         Standard orientation:
 ---------------------------------------------------------------------
 Center     Atomic      Atomic             Coordinates (Angstroms)
 Number     Number       Type             X           Y           Z
 ---------------------------------------------------------------------
      1          6           0       -3.153531   -1.642949   -1.209836
      2          6           0       -3.063435   -0.134948   -1.365095
      3          8           0       -1.877820    0.382755   -0.706179
      4          6           0       -1.996847    0.643067    0.605177
      5          8           0       -3.012761    0.543553    1.254586
      6          6           0       -0.679006    1.116943    1.221880
      7          7           0        0.405596    1.367045    0.298259
      8          6           0        0.368938    2.651942   -0.385874
      9          6           0        1.451830    0.499751    0.089738
     10          6           0        1.417628   -0.898056    0.347797
     11          6           0        2.573846   -1.664004    0.114664
     12          6           0        3.713058   -1.057008   -0.385820
     13          7           0        3.760138    0.255553   -0.663925
     14          6           0        2.680468    0.988965   -0.431820
     15          6           0        0.251388   -1.607061    0.771090
     16          7           0       -0.668699   -2.240076    1.099928
     17          1           0       -2.258874   -2.129426   -1.608867
     18          1           0       -4.028022   -2.015831   -1.755222
     19          1           0       -3.251813   -1.917644   -0.157197
     20          1           0       -2.939062    0.161084   -2.409195
     21          1           0       -3.939087    0.364707   -0.944406
     22          1           0       -0.904343    2.037755    1.772763
     23          1           0       -0.388839    0.381881    1.974448
     24          1           0        0.952508    3.425716    0.133444
     25          1           0        0.742678    2.552511   -1.408124
     26          1           0       -0.670222    2.982934   -0.446192
     27          1           0        2.550178   -2.729883    0.314440
     28          1           0        4.617242   -1.629563   -0.573001
     29          1           0        2.777034    2.047806   -0.651382
 ---------------------------------------------------------------------

 SCF Done:  E(UB3LYP) =  -741.955216911     A.U. after   33 cycles
 SCF Done:  E(UB3LYP) =  -741.955216911     a.u. after    1 cycles

 The electronic state is 2-A.
 Alpha  occ. eigenvalues --  -19.06507 -19.00697 -14.21058 -14.14145 -14.12863
 Alpha  occ. eigenvalues --  -10.19543 -10.13318 -10.10640 -10.09293 -10.07429
 Alpha  occ. eigenvalues --  -10.06369 -10.04606 -10.03932 -10.03676 -10.03675
 Alpha  occ. eigenvalues --  -10.01957  -1.00495  -0.91936  -0.83530  -0.77597
 Alpha  occ. eigenvalues --   -0.74835  -0.68107  -0.65948  -0.63651  -0.61097
 Alpha  occ. eigenvalues --   -0.56415  -0.54633  -0.50366  -0.46909  -0.45810
 Alpha  occ. eigenvalues --   -0.42283  -0.40860  -0.38631  -0.38227  -0.36304
 Alpha  occ. eigenvalues --   -0.35644  -0.34890  -0.32073  -0.31768  -0.31137
 Alpha  occ. eigenvalues --   -0.30453  -0.29501  -0.28633  -0.27367  -0.27110
 Alpha  occ. eigenvalues --   -0.26635  -0.25482  -0.24435  -0.23206  -0.21201
 Alpha  occ. eigenvalues --   -0.21056  -0.20387  -0.19449  -0.17622  -0.16299
 Alpha  occ. eigenvalues --   -0.12624  -0.09999  -0.07128   0.04757
 Alpha virt. eigenvalues --    0.07151   0.08019   0.09679   0.09902   0.10412
 Alpha virt. eigenvalues --    0.10545   0.11104   0.11659   0.12410   0.12809
 Alpha virt. eigenvalues --    0.13581   0.13821   0.14392   0.14874   0.15154

  Beta  occ. eigenvalues --  -19.06506 -19.00694 -14.21034 -14.13795 -14.12218
  Beta  occ. eigenvalues --  -10.19537 -10.13317 -10.10641 -10.09285 -10.07346
  Beta  occ. eigenvalues --  -10.06366 -10.04595 -10.04027 -10.03596 -10.03352
  Beta  occ. eigenvalues --  -10.01731  -1.00490  -0.91932  -0.83412  -0.76793
  Beta  occ. eigenvalues --   -0.74297  -0.68070  -0.65283  -0.63542  -0.60793
  Beta  occ. eigenvalues --   -0.56322  -0.54505  -0.49517  -0.46761  -0.45771
  Beta  occ. eigenvalues --   -0.42113  -0.40819  -0.38505  -0.38130  -0.36180
  Beta  occ. eigenvalues --   -0.35578  -0.34826  -0.31998  -0.31715  -0.30910
  Beta  occ. eigenvalues --   -0.30385  -0.29454  -0.28400  -0.27332  -0.26984
  Beta  occ. eigenvalues --   -0.26358  -0.24513  -0.24243  -0.23003  -0.20630
  Beta  occ. eigenvalues --   -0.20608  -0.19239  -0.18999  -0.17410  -0.15661
  Beta  occ. eigenvalues --   -0.10358  -0.09240  -0.06166
  Beta virt. eigenvalues --    0.07076   0.07919   0.09592   0.09815   0.10358
  Beta virt. eigenvalues --    0.10522   0.11036   0.11118   0.11875   0.12366
  Beta virt. eigenvalues --    0.12789   0.13500   0.14113   0.14318   0.14960

 Mulliken charges and spin densities:
               1          2
     1  C   -0.472169  -0.017889
     2  C   -0.015410  -0.010248
     3  O    0.107972   0.003460
     4  C   -0.147094  -0.017804
     5  O   -0.229652   0.001772
     6  C   -0.380026   0.002250
     7  N    0.339114   0.024411
     8  C   -0.349808  -0.040196
     9  C   -1.307281   0.053760
    10  C    2.825931   0.265653
    11  C    0.182001   0.299854
    12  C   -0.288272  -0.080484
    13  N   -0.142314   0.292199
    14  C   -0.974870   0.029566
    15  C   -1.763794  -0.113198
    16  N   -0.242442   0.195029
    17  H    0.168884   0.004779
    18  H    0.081867   0.018529
    19  H    0.210352   0.001109
    20  H    0.128375   0.014450
    21  H    0.141862   0.002824
    22  H    0.154108   0.022249
    23  H    0.233526   0.007345
    24  H    0.122955   0.022396
    25  H    0.137044   0.022139
    26  H    0.112660   0.006553
    27  H    0.130103  -0.011972
    28  H    0.115964   0.001916
    29  H    0.120416  -0.000454
 Sum of Mulliken charges =  -1.00000   1.00000

 Dipole moment (field-independent basis, Debye):
    X=             -5.7838    Y=              4.0243    Z=             -2.3139  Tot=              7.4163
 Quadrupole moment (field-independent basis, Debye-Ang):
   XX=           -146.7454   YY=           -110.8416   ZZ=           -107.5486
   XY=             -4.8448   XZ=             14.4409   YZ=              5.4758

 Summary of Natural Population Analysis:

                                       Natural Population
                Natural  -----------------------------------------------
    Atom  No    Charge         Core      Valence    Rydberg      Total
 -----------------------------------------------------------------------
      C    1   -0.30015      0.99966     2.29601    0.00447     3.30015
      C    2   -0.01565      0.99959     2.00669    0.00938     3.01565
      O    3   -0.27601      0.99986     3.26653    0.00962     4.27601
      C    4    0.41044      0.99970     1.56507    0.02479     2.58956
      O    5   -0.31474      0.99987     3.30862    0.00625     4.31474
      C    6   -0.12954      0.99956     2.11840    0.01157     3.12954
      N    7   -0.24919      0.99964     2.74003    0.00952     3.74919
      C    8   -0.17166      0.99966     2.16532    0.00668     3.17166
      C    9    0.10870      0.99947     1.87828    0.01355     2.89130
      C   10   -0.06181      0.99939     2.05256    0.00986     3.06181
      C   11   -0.05573      0.99954     2.04506    0.01112     3.05573
      C   12   -0.02700      0.99959     2.01291    0.01450     3.02700
      N   13   -0.14425      0.99970     2.63121    0.01334     3.64425
      C   14    0.00421      0.99959     1.98318    0.01302     2.99579
      C   15    0.14248      0.99964     1.83788    0.01999     2.85752
      N   16   -0.16832      0.99978     2.65743    0.01111     3.66832
      H   17    0.10734      0.00000     0.39140    0.00126     0.39266
      H   18    0.09212      0.00000     0.40704    0.00084     0.40788
      H   19    0.11621      0.00000     0.38286    0.00092     0.38379
      H   20    0.08516      0.00000     0.41345    0.00140     0.41484
      H   21    0.09071      0.00000     0.40790    0.00139     0.40929
      H   22    0.10141      0.00000     0.39769    0.00090     0.39859
      H   23    0.12639      0.00000     0.37272    0.00088     0.37361
      H   24    0.08459      0.00000     0.41373    0.00167     0.41541
      H   25    0.10082      0.00000     0.39778    0.00140     0.39918
      H   26    0.09039      0.00000     0.40858    0.00103     0.40961
      H   27    0.09481      0.00000     0.40437    0.00082     0.40519
      H   28    0.07972      0.00000     0.41899    0.00129     0.42028
      H   29    0.07852      0.00000     0.42011    0.00137     0.42148
 =======================================================================
   * Total *    0.00000     15.99425    41.80181    0.20394    58.00000

 Normal termination of Gaussian 16 at Fri Dec 11 02:03:43 2020.
