 Gaussian 16, Revision A.03,

 -----------------------------------------------------------
 # opt freq B3LYP/6-31G(d) empiricaldispersion=gd3bj scf=xqc
 -----------------------------------------------------------

 ------------------------------
 CID_67965016_JID_1408_neutraal
 ------------------------------
 Symbolic Z-matrix:
 Charge =  0 Multiplicity = 1

 SCF Done:  E(RB3LYP) =  -519.042903528     A.U. after   15 cycles
 SCF Done:  E(RB3LYP) =  -519.045497636     A.U. after   13 cycles
 SCF Done:  E(RB3LYP) =  -519.032366992     A.U. after   16 cycles
 SCF Done:  E(RB3LYP) =  -519.045780203     A.U. after   12 cycles
 SCF Done:  E(RB3LYP) =  -519.045822654     A.U. after   11 cycles
 SCF Done:  E(RB3LYP) =  -519.045869754     A.U. after   12 cycles
 SCF Done:  E(RB3LYP) =  -519.045905828     A.U. after   13 cycles
 SCF Done:  E(RB3LYP) =  -519.045875601     A.U. after   12 cycles
 SCF Done:  E(RB3LYP) =  -519.045939232     A.U. after   12 cycles
 SCF Done:  E(RB3LYP) =  -519.045983988     A.U. after   13 cycles
 SCF Done:  E(RB3LYP) =  -519.046221012     A.U. after   12 cycles
 SCF Done:  E(RB3LYP) =  -519.046221174     A.U. after    9 cycles
 SCF Done:  E(RB3LYP) =  -519.046221203     A.U. after    7 cycles
 SCF Done:  E(RB3LYP) =  -519.046221184     A.U. after    8 cycles
 Optimization completed.
    -- Stationary point found.
 Normal termination of Gaussian 16 at Tue Dec  8 20:02:40 2020.

 --------------------------------------------------------------------
 #N Geom=AllCheck Guess=TCheck SCRF=Check GenChk RB3LYP/6-31G(d) Freq
 --------------------------------------------------------------------

 Structure from the checkpoint file:  "JID_1408.chk"
 ------------------------------
 CID_67965016_JID_1408_neutraal
 ------------------------------
 Charge =  0 Multiplicity = 1

 SCF Done:  E(RB3LYP) =  -519.046221184     A.U. after    1 cycles

  Exact polarizability: 111.577   3.013  85.930  -3.334  -1.199  84.266
 Approx polarizability: 157.170   7.104 124.290  -9.928  -9.662 132.609

                      1                      2                      3
                      A                      A                      A
 Frequencies --     27.0185                48.9566                83.0390
 Red. masses --      5.4442                 7.9580                 2.8140
 Frc consts  --      0.0023                 0.0112                 0.0114
 IR Inten    --      1.6274                 0.7189                 0.6913

                      4                      5                      6
                      A                      A                      A
 Frequencies --    177.2775               195.1761               234.8900
 Red. masses --      2.8473                 2.5671                 1.0685
 Frc consts  --      0.0527                 0.0576                 0.0347
 IR Inten    --      1.4223                 0.1694                 0.0040

                      7                      8                      9
                      A                      A                      A
 Frequencies --    248.4039               290.2869               316.4097
 Red. masses --      1.3023                 2.8598                 2.2679
 Frc consts  --      0.0473                 0.1420                 0.1338
 IR Inten    --      0.6481                 2.3724                 0.7350

                     10                     11                     12
                      A                      A                      A
 Frequencies --    326.2910               357.5775               407.0724
 Red. masses --      2.8346                 1.9078                 3.1989
 Frc consts  --      0.1778                 0.1437                 0.3123
 IR Inten    --      1.5021                 0.5390                 0.6198

                     13                     14                     15
                      A                      A                      A
 Frequencies --    441.0338               486.6568               557.6680
 Red. masses --      2.7621                 3.5862                 2.1870
 Frc consts  --      0.3165                 0.5004                 0.4007
 IR Inten    --      0.6382                 2.1647                 0.3795

                     16                     17                     18
                      A                      A                      A
 Frequencies --    630.8768               699.5881               762.2947
 Red. masses --      3.5127                 2.8868                 3.2782
 Frc consts  --      0.8237                 0.8324                 1.1224
 IR Inten    --      8.0350                 1.7139                 1.7239

                     19                     20                     21
                      A                      A                      A
 Frequencies --    804.6599               861.8370               872.8238
 Red. masses --      3.3247                 5.1765                 2.1839
 Frc consts  --      1.2683                 2.2654                 0.9802
 IR Inten    --      0.3044                25.8542                 1.3632

                     22                     23                     24
                      A                      A                      A
 Frequencies --    893.1079               934.4123               945.2783
 Red. masses --      2.4670                 2.0036                 1.2308
 Frc consts  --      1.1594                 1.0307                 0.6480
 IR Inten    --      0.4247                 1.1094                 0.7868

                     25                     26                     27
                      A                      A                      A
 Frequencies --    951.3228               977.6282               987.0852
 Red. masses --      2.3557                 1.4539                 1.6550
 Frc consts  --      1.2561                 0.8187                 0.9501
 IR Inten    --      5.4213                 1.0584                 4.2636

                     28                     29                     30
                      A                      A                      A
 Frequencies --    995.1421              1048.3963              1054.6808
 Red. masses --      1.8239                 1.6066                 2.1621
 Frc consts  --      1.0642                 1.0404                 1.4170
 IR Inten    --      0.6350                 1.5237                 1.2560

                     31                     32                     33
                      A                      A                      A
 Frequencies --   1094.2855              1148.3356              1169.6120
 Red. masses --      2.7857                 1.4184                 2.2599
 Frc consts  --      1.9654                 1.1020                 1.8215
 IR Inten    --      0.7776                 0.4660                 0.8393

                     34                     35                     36
                      A                      A                      A
 Frequencies --   1205.0594              1205.8013              1223.7311
 Red. masses --      1.5815                 1.5670                 1.5404
 Frc consts  --      1.3531                 1.3424                 1.3591
 IR Inten    --      4.9479                 5.4828                 1.0264

                     37                     38                     39
                      A                      A                      A
 Frequencies --   1262.0039              1290.0621              1317.1494
 Red. masses --      1.5393                 1.3957                 1.3241
 Frc consts  --      1.4444                 1.3685                 1.3534
 IR Inten    --      6.0856                 6.7790                 2.9237

                     40                     41                     42
                      A                      A                      A
 Frequencies --   1329.0881              1351.7018              1355.9796
 Red. masses --      1.2896                 1.3646                 1.3397
 Frc consts  --      1.3422                 1.4690                 1.4513
 IR Inten    --      1.1165                17.2784                 6.4991

                     43                     44                     45
                      A                      A                      A
 Frequencies --   1365.0824              1379.8598              1381.7802
 Red. masses --      1.3498                 1.4185                 1.3469
 Frc consts  --      1.4820                 1.5913                 1.5152
 IR Inten    --      7.2015                 3.2614                 5.7433

                     46                     47                     48
                      A                      A                      A
 Frequencies --   1411.0710              1431.5513              1434.4481
 Red. masses --      1.5803                 1.4946                 3.4709
 Frc consts  --      1.8539                 1.8046                 4.2079
 IR Inten    --      5.5348                19.3107                61.1628

                     49                     50                     51
                      A                      A                      A
 Frequencies --   1450.2727              1502.9261              1517.3376
 Red. masses --      1.2283                 1.0907                 1.0879
 Frc consts  --      1.5221                 1.4516                 1.4757
 IR Inten    --      5.2577                12.9815                 8.7926

                     52                     53                     54
                      A                      A                      A
 Frequencies --   1519.0554              1525.1410              1531.2481
 Red. masses --      1.0503                 1.0559                 1.1004
 Frc consts  --      1.4279                 1.4471                 1.5202
 IR Inten    --      0.5270                 3.8594                 3.7351

                     55                     56                     57
                      A                      A                      A
 Frequencies --   1536.5035              1542.9503              1660.3492
 Red. masses --      1.0600                 1.0495                 9.4374
 Frc consts  --      1.4744                 1.4721                15.3286
 IR Inten    --      3.8216                 8.8193               229.1912

                     58                     59                     60
                      A                      A                      A
 Frequencies --   3008.6671              3028.4098              3038.0438
 Red. masses --      1.0820                 1.0829                 1.0379
 Frc consts  --      5.7704                 5.8516                 5.6440
 IR Inten    --      9.2197                12.1496                22.4561

                     61                     62                     63
                      A                      A                      A
 Frequencies --   3044.3003              3062.7905              3070.9582
 Red. masses --      1.0407                 1.0674                 1.0610
 Frc consts  --      5.6825                 5.8997                 5.8955
 IR Inten    --     40.5705                15.4831                18.2891

                     64                     65                     66
                      A                      A                      A
 Frequencies --   3087.7469              3100.9981              3107.5289
 Red. masses --      1.0647                 1.0995                 1.0990
 Frc consts  --      5.9807                 6.2296                 6.2530
 IR Inten    --     18.5079                 5.6311                59.9967

                     67                     68                     69
                      A                      A                      A
 Frequencies --   3117.6177              3118.7076              3122.8621
 Red. masses --      1.1017                 1.1005                 1.1001
 Frc consts  --      6.3091                 6.3066                 6.3213
 IR Inten    --     21.2076                34.2623                49.6902

                     70                     71                     72
                      A                      A                      A
 Frequencies --   3126.5049              3138.1967              3157.5740
 Red. masses --      1.1035                 1.1008                 1.0885
 Frc consts  --      6.3556                 6.3871                 6.3940
 IR Inten    --     16.9267                 7.2939                10.2729

 - Thermochemistry -
 -------------------
 Temperature   298.150 Kelvin.  Pressure   1.00000 Atm.
 Atom     1 has atomic number  6 and mass  12.00000

 Molecular mass:   157.11028 amu.
 Principal axes and moments of inertia in atomic units:
                           1         2         3
     Eigenvalues --   862.162692753.509932930.24371
           X            0.99972   0.01952  -0.01316
           Y           -0.01804   0.99437   0.10438
           Z            0.01512  -0.10411   0.99445
 This molecule is an asymmetric top.
 Rotational symmetry number  1.
 Warning -- assumption of classical behavior for rotation
           may cause significant error
 Rotational temperatures (Kelvin)      0.10046     0.03146     0.02956
 Rotational constants (GHZ):           2.09327     0.65543     0.61590
 Zero-point vibrational energy     604653.6 (Joules/Mol)
                                  144.51567 (Kcal/Mol)
 Warning -- explicit consideration of  15 degrees of freedom as
           vibrations may cause significant error
 Vibrational temperatures:     38.87    70.44   119.47   255.06   280.81
          (Kelvin)            337.95   357.40   417.66   455.24   469.46
                              514.47   585.69   634.55   700.19   802.36
                              907.69  1006.55  1096.77  1157.73  1239.99
                             1255.80  1284.98  1344.41  1360.04  1368.74
                             1406.59  1420.20  1431.79  1508.41  1517.45
                             1574.43  1652.20  1682.81  1733.81  1734.88
                             1760.68  1815.74  1856.11  1895.08  1912.26
                             1944.80  1950.95  1964.05  1985.31  1988.07
                             2030.22  2059.68  2063.85  2086.62  2162.38
                             2183.11  2185.58  2194.34  2203.12  2210.69
                             2219.96  2388.87  4328.80  4357.21  4371.07
                             4380.07  4406.67  4418.42  4442.58  4461.64
                             4471.04  4485.56  4487.12  4493.10  4498.34
                             4515.17  4543.04

 Zero-point correction=                           0.230300 (Hartree/Particle)
 Thermal correction to Energy=                    0.241526
 Thermal correction to Enthalpy=                  0.242471
 Thermal correction to Gibbs Free Energy=         0.192364
 Sum of electronic and zero-point Energies=           -518.815921
 Sum of electronic and thermal Energies=              -518.804695
 Sum of electronic and thermal Enthalpies=            -518.803751
 Sum of electronic and thermal Free Energies=         -518.853858

                     E (Thermal)             CV                S
                      KCal/Mol        Cal/Mol-Kelvin    Cal/Mol-Kelvin
 Total                  151.560             42.257            105.459
 Electronic               0.000              0.000              0.000
 Translational            0.889              2.981             41.065
 Rotational               0.889              2.981             30.321
 Vibrational            149.783             36.296             34.074
 Vibration     1          0.593              1.984              6.037
 Vibration     2          0.595              1.978              4.859
 Vibration     3          0.600              1.961              3.818
 Vibration     4          0.628              1.870              2.357
 Vibration     5          0.636              1.847              2.178
 Vibration     6          0.655              1.787              1.841
 Vibration     7          0.662              1.765              1.742
 Vibration     8          0.686              1.692              1.472
 Vibration     9          0.703              1.642              1.329
 Vibration    10          0.710              1.623              1.278
 Vibration    11          0.733              1.560              1.133
 Vibration    12          0.772              1.455              0.937
 Vibration    13          0.801              1.381              0.823
 Vibration    14          0.843              1.280              0.692
 Vibration    15          0.913              1.123              0.529

 Optimization completed.
    -- Stationary point found.
 Normal termination of Gaussian 16 at Tue Dec  8 20:08:06 2020.

 ----------------------------------------------------------------------
 # B3LYP/6-311++G(d,p) empiricaldispersion=gd3bj scf=xqc pop=npa geom=c
 heck
 ----------------------------------------------------------------------

 --------------------------------------
 CID_67965016_JID_1408_Energie_neutraal
 --------------------------------------
 Structure from the checkpoint file:  "JID_1408.chk"
 Charge =  0 Multiplicity = 1

 SCF Done:  E(RB3LYP) =  -519.197109688     A.U. after   14 cycles
 Normal termination of Gaussian 16 at Tue Dec  8 20:10:09 2020.

 ----------------------------------------------------------------------
 # B3LYP/6-311++G(d,p) empiricaldispersion=gd3bj scf=xqc pop=npa geom=c
 heck
 ----------------------------------------------------------------------

 ------------------------------------
 CID_67965016_JID_1408_Energie_kation
 ------------------------------------
 Structure from the checkpoint file:  "JID_1408.chk"
 Charge =  1 Multiplicity = 2

 SCF Done:  E(UB3LYP) =  -518.821960004     A.U. after   33 cycles
 SCF Done:  E(UB3LYP) =  -518.821960005     a.u. after    2 cycles
 Normal termination of Gaussian 16 at Tue Dec  8 20:21:59 2020.
 Gaussian 16:  ES64L-G16RevA.03 25-Dec-2016

 ----------------------------------------------------------------------
 # B3LYP/6-311++G(d,p) empiricaldispersion=gd3bj scf=xqc pop=npa geom=c
 heck
 ----------------------------------------------------------------------

 -----------------------------------
 CID_67965016_JID_1408_Energie_anion
 -----------------------------------
 Structure from the checkpoint file:  "JID_1408.chk"
 Charge = -1 Multiplicity = 2

                         Standard orientation:
 ---------------------------------------------------------------------
 Center     Atomic      Atomic             Coordinates (Angstroms)
 Number     Number       Type             X           Y           Z
 ---------------------------------------------------------------------
      1          6           0       -3.017525    0.674206    0.954214
      2          6           0       -2.043774   -0.321981    0.311870
      3          6           0       -2.815025   -1.344829   -0.532897
      4          6           0       -0.968791    0.395313   -0.521731
      5          6           0       -0.171836    1.468522    0.253538
      6          6           0        1.163875    1.559272   -0.491936
      7          6           0        1.480596    0.093848   -0.848276
      8          6           0        0.116630   -0.565819   -1.098087
      9          7           0        2.193391   -0.519352    0.345822
     10          8           0        3.416881   -0.423484    0.358545
     11          8           0        1.515892   -1.019802    1.242038
     12          1           0       -3.529989    1.268301    0.186019
     13          1           0       -2.506887    1.367852    1.629905
     14          1           0       -3.785340    0.149456    1.533825
     15          1           0       -1.518668   -0.860067    1.114690
     16          1           0       -3.348293   -0.846618   -1.353207
     17          1           0       -2.153024   -2.097952   -0.973570
     18          1           0       -3.559117   -1.872100    0.074579
     19          1           0       -1.472394    0.890118   -1.365412
     20          1           0       -0.688932    2.431176    0.298461
     21          1           0       -0.000595    1.133716    1.282926
     22          1           0        1.973116    2.037756    0.067245
     23          1           0        1.041575    2.106348   -1.434620
     24          1           0        2.201844   -0.007424   -1.658193
     25          1           0        0.081454   -1.545081   -0.616010
     26          1           0       -0.015579   -0.724921   -2.172227
 ---------------------------------------------------------------------

 SCF Done:  E(UB3LYP) =  -519.202047522     A.U. after   33 cycles
 SCF Done:  E(UB3LYP) =  -519.202047522     a.u. after    1 cycles

 The electronic state is 2-A.
 Alpha  occ. eigenvalues --  -18.95550 -18.95475 -14.31599 -10.07706 -10.06370
 Alpha  occ. eigenvalues --  -10.05690 -10.05582 -10.05460 -10.04660 -10.04403
 Alpha  occ. eigenvalues --  -10.04314  -1.03099  -0.86124  -0.73308  -0.68648
 Alpha  occ. eigenvalues --   -0.61292  -0.59437  -0.57908  -0.51445  -0.48108
 Alpha  occ. eigenvalues --   -0.43949  -0.41257  -0.38352  -0.37090  -0.34890
 Alpha  occ. eigenvalues --   -0.34583  -0.33150  -0.32176  -0.30348  -0.29815
 Alpha  occ. eigenvalues --   -0.28589  -0.27899  -0.25109  -0.25042  -0.23030
 Alpha  occ. eigenvalues --   -0.22288  -0.21879  -0.20652  -0.20283  -0.19760
 Alpha  occ. eigenvalues --   -0.14141  -0.12246  -0.10905   0.04943
 Alpha virt. eigenvalues --    0.06969   0.08167   0.08679   0.09694   0.10544
 Alpha virt. eigenvalues --    0.10715   0.11861   0.12243   0.12723   0.13278
 Alpha virt. eigenvalues --    0.13697   0.15060   0.15269   0.15554   0.16826

  Beta  occ. eigenvalues --  -18.95160 -18.95105 -14.30789 -10.07747 -10.06369
  Beta  occ. eigenvalues --  -10.05682 -10.05572 -10.05451 -10.04601 -10.04399
  Beta  occ. eigenvalues --  -10.04296  -1.02013  -0.85383  -0.73235  -0.68574
  Beta  occ. eigenvalues --   -0.61062  -0.59352  -0.57873  -0.50892  -0.47978
  Beta  occ. eigenvalues --   -0.43875  -0.40705  -0.37843  -0.36731  -0.34544
  Beta  occ. eigenvalues --   -0.33427  -0.32673  -0.31408  -0.30301  -0.29357
  Beta  occ. eigenvalues --   -0.28545  -0.27601  -0.25073  -0.24947  -0.22981
  Beta  occ. eigenvalues --   -0.22210  -0.21565  -0.20616  -0.20258  -0.19719
  Beta  occ. eigenvalues --   -0.11973  -0.11480  -0.10540
  Beta virt. eigenvalues --    0.07059   0.08594   0.08720   0.09931   0.10628
  Beta virt. eigenvalues --    0.10942   0.11997   0.12083   0.12769   0.13198
  Beta virt. eigenvalues --    0.13404   0.13931   0.15293   0.15399   0.15512

 Mulliken charges and spin densities:
               1          2
     1  C   -0.271865  -0.373859
     2  C   -0.867055   0.906050
     3  C   -0.130120  -0.492491
     4  C    1.124536  -0.320075
     5  C   -0.429292  -0.004894
     6  C    0.145598  -1.169684
     7  C   -0.355984   1.058874
     8  C    0.065835  -1.209395
     9  N   -0.259519   0.214278
    10  O   -0.163445   0.147569
    11  O   -0.200173   0.159698
    12  H   -0.043437   0.175948
    13  H    0.126712   0.023960
    14  H    0.089708   0.034154
    15  H    0.172396   0.015217
    16  H   -0.027967   0.155694
    17  H    0.144125   0.000805
    18  H    0.023032   0.098518
    19  H   -0.075725   0.259620
    20  H    0.077085   0.057589
    21  H    0.193803  -0.011788
    22  H    0.292039  -0.112356
    23  H   -0.483001   0.624354
    24  H   -0.146816   0.435282
    25  H    0.135917   0.045461
    26  H   -0.136385   0.281471
 Sum of Mulliken charges =  -1.00000   1.00000

 Dipole moment (field-independent basis, Debye):
    X=             -5.6613    Y=              0.3395    Z=              0.9528  Tot=              5.7509
 Quadrupole moment (field-independent basis, Debye-Ang):
   XX=           -118.7881   YY=            -89.3212   ZZ=            -95.0629
   XY=              6.2485   XZ=             -6.4207   YZ=              8.4702

 Summary of Natural Population Analysis:

                                       Natural Population
                Natural  -----------------------------------------------
    Atom  No    Charge         Core      Valence    Rydberg      Total
 -----------------------------------------------------------------------
      C    1   -0.28426      0.99965     2.27897    0.00564     3.28426
      C    2   -0.11390      0.99959     2.10541    0.00890     3.11390
      C    3   -0.28266      0.99965     2.27844    0.00457     3.28266
      C    4   -0.10664      0.99958     2.09411    0.01295     3.10664
      C    5   -0.19568      0.99962     2.18704    0.00903     3.19568
      C    6   -0.18756      0.99961     2.17924    0.00871     3.18756
      C    7   -0.03681      0.99955     2.02320    0.01406     3.03681
      C    8   -0.20017      0.99961     2.19075    0.00982     3.20017
      N    9    0.32747      0.99975     2.14294    0.02984     3.17253
      O   10   -0.20947      0.99990     3.20163    0.00794     4.20947
      O   11   -0.20829      0.99989     3.20097    0.00742     4.20829
      H   12    0.09492      0.00000     0.40428    0.00080     0.40508
      H   13    0.10005      0.00000     0.39927    0.00067     0.39995
      H   14    0.09372      0.00000     0.40559    0.00070     0.40628
      H   15    0.10124      0.00000     0.39712    0.00164     0.39876
      H   16    0.09459      0.00000     0.40449    0.00092     0.40541
      H   17    0.10090      0.00000     0.39831    0.00079     0.39910
      H   18    0.09354      0.00000     0.40570    0.00076     0.40646
      H   19    0.09292      0.00000     0.40514    0.00193     0.40708
      H   20    0.09620      0.00000     0.40300    0.00080     0.40380
      H   21    0.10481      0.00000     0.39394    0.00125     0.39519
      H   22    0.10508      0.00000     0.39396    0.00096     0.39492
      H   23    0.09885      0.00000     0.39898    0.00217     0.40115
      H   24    0.10890      0.00000     0.38972    0.00137     0.39110
      H   25    0.11260      0.00000     0.38590    0.00150     0.38740
      H   26    0.09964      0.00000     0.39937    0.00099     0.40036
 =======================================================================
   * Total *   -0.00000     10.99641    31.86745    0.13613    43.00000

 Normal termination of Gaussian 16 at Tue Dec  8 20:29:23 2020.
