 Gaussian 16, Revision A.03,

 -----------------------------------------------------------
 # opt freq B3LYP/6-31G(d) empiricaldispersion=gd3bj scf=xqc
 -----------------------------------------------------------

 ------------------------------
 CID_15571009_JID_3447_neutraal
 ------------------------------
 Symbolic Z-matrix:
 Charge =  0 Multiplicity = 1

 SCF Done:  E(RB3LYP) =  -903.457043739     A.U. after   14 cycles
 SCF Done:  E(RB3LYP) =  -903.462554245     A.U. after   13 cycles
 SCF Done:  E(RB3LYP) =  -903.460568693     A.U. after   14 cycles
 SCF Done:  E(RB3LYP) =  -903.459204788     A.U. after   13 cycles
 SCF Done:  E(RB3LYP) =  -903.448096779     A.U. after   14 cycles
 SCF Done:  E(RB3LYP) =  -903.462554334     A.U. after    7 cycles
 SCF Done:  E(RB3LYP) =  -903.463786902     A.U. after   13 cycles
 SCF Done:  E(RB3LYP) =  -903.463883291     A.U. after   12 cycles
 SCF Done:  E(RB3LYP) =  -903.464161369     A.U. after   13 cycles
 SCF Done:  E(RB3LYP) =  -903.464271249     A.U. after   12 cycles
 SCF Done:  E(RB3LYP) =  -903.464344542     A.U. after   13 cycles
 SCF Done:  E(RB3LYP) =  -903.464375617     A.U. after    9 cycles
 SCF Done:  E(RB3LYP) =  -903.464379938     A.U. after   10 cycles
 SCF Done:  E(RB3LYP) =  -903.464381458     A.U. after    9 cycles
 SCF Done:  E(RB3LYP) =  -903.464381761     A.U. after    8 cycles
 SCF Done:  E(RB3LYP) =  -903.464381838     A.U. after    7 cycles
 Optimization completed.
    -- Stationary point found.
 Normal termination of Gaussian 16 at Wed Dec  9 23:23:50 2020.

 --------------------------------------------------------------------
 #N Geom=AllCheck Guess=TCheck SCRF=Check GenChk RB3LYP/6-31G(d) Freq
 --------------------------------------------------------------------

 Structure from the checkpoint file:  "JID_3447.chk"
 ------------------------------
 CID_15571009_JID_3447_neutraal
 ------------------------------
 Charge =  0 Multiplicity = 1

 SCF Done:  E(RB3LYP) =  -903.464381838     A.U. after    1 cycles

  Exact polarizability: 162.317   4.070 138.831   1.817  -0.281 104.021
 Approx polarizability: 224.725  15.973 208.694   0.726  -5.246 163.199

                      1                      2                      3
                      A                      A                      A
 Frequencies --     33.8444                63.4527                78.4426
 Red. masses --      3.7514                 3.0544                 2.9067
 Frc consts  --      0.0025                 0.0072                 0.0105
 IR Inten    --      1.6819                 1.2973                 0.6437

                      4                      5                      6
                      A                      A                      A
 Frequencies --    106.3704               154.6860               174.2300
 Red. masses --      2.7902                 1.0408                 2.9559
 Frc consts  --      0.0186                 0.0147                 0.0529
 IR Inten    --      0.5700                 0.1252                 2.0718

                      7                      8                      9
                      A                      A                      A
 Frequencies --    180.4638               189.2715               216.3000
 Red. masses --      2.9046                 2.4439                 1.1977
 Frc consts  --      0.0557                 0.0516                 0.0330
 IR Inten    --      1.5354                 1.9724                 0.0375

                     10                     11                     12
                      A                      A                      A
 Frequencies --    254.7686               258.1762               262.4396
 Red. masses --      1.3494                 3.1875                 2.7485
 Frc consts  --      0.0516                 0.1252                 0.1115
 IR Inten    --      0.3078                 1.7333                 1.2435

                     13                     14                     15
                      A                      A                      A
 Frequencies --    279.8426               324.1214               326.6684
 Red. masses --      3.5498                 3.3022                 1.2516
 Frc consts  --      0.1638                 0.2044                 0.0787
 IR Inten    --      0.4714                 0.2439                 0.0059

                     16                     17                     18
                      A                      A                      A
 Frequencies --    351.3773               353.7789               413.3303
 Red. masses --      2.9658                 2.2691                 2.2350
 Frc consts  --      0.2157                 0.1673                 0.2250
 IR Inten    --      0.5512                 0.3719                 0.3198

                     19                     20                     21
                      A                      A                      A
 Frequencies --    435.4548               527.0983               538.9457
 Red. masses --      2.9778                 2.6345                 3.4098
 Frc consts  --      0.3327                 0.4313                 0.5835
 IR Inten    --      0.6343                 3.1986                 9.0666

                     22                     23                     24
                      A                      A                      A
 Frequencies --    548.9909               625.2519               646.5450
 Red. masses --      3.0337                 2.4591                 5.6618
 Frc consts  --      0.5387                 0.5664                 1.3944
 IR Inten    --      6.1873                 4.6538                 3.1985

                     25                     26                     27
                      A                      A                      A
 Frequencies --    693.1648               701.0024               792.6644
 Red. masses --      4.6868                 5.3885                 4.4961
 Frc consts  --      1.3268                 1.5601                 1.6644
 IR Inten    --      0.7780                 1.4040                 0.8345

                     28                     29                     30
                      A                      A                      A
 Frequencies --    812.5971               850.0628               888.6598
 Red. masses --      4.0452                 2.0261                 1.5948
 Frc consts  --      1.5738                 0.8626                 0.7420
 IR Inten    --      1.1225                33.6293                 2.4606

                     31                     32                     33
                      A                      A                      A
 Frequencies --    935.6354               947.6234               948.8440
 Red. masses --      2.6199                 1.8464                 1.8420
 Frc consts  --      1.3513                 0.9769                 0.9771
 IR Inten    --      8.4057                 2.4078                 8.5364

                     34                     35                     36
                      A                      A                      A
 Frequencies --    972.2301               979.8877               987.7440
 Red. masses --      2.3324                 1.2000                 1.1835
 Frc consts  --      1.2990                 0.6788                 0.6803
 IR Inten    --     13.5567                 0.4259                 2.8702

                     37                     38                     39
                      A                      A                      A
 Frequencies --   1002.9097              1033.8124              1048.8988
 Red. masses --      1.3146                 1.8888                 1.7323
 Frc consts  --      0.7791                 1.1894                 1.1229
 IR Inten    --     16.1634                13.4599                 2.9729

                     40                     41                     42
                      A                      A                      A
 Frequencies --   1058.8184              1067.1427              1101.7114
 Red. masses --      1.6043                 1.3865                 3.1556
 Frc consts  --      1.0597                 0.9303                 2.2567
 IR Inten    --      0.3657                 0.2601                25.7014

                     43                     44                     45
                      A                      A                      A
 Frequencies --   1155.6709              1193.8142              1216.0456
 Red. masses --      1.3463                 4.3356                 1.4767
 Frc consts  --      1.0594                 3.6406                 1.2866
 IR Inten    --      3.3568               136.0212                 4.1787

                     46                     47                     48
                      A                      A                      A
 Frequencies --   1235.0780              1257.0775              1262.9608
 Red. masses --      2.5950                 2.7749                 1.6667
 Frc consts  --      2.3322                 2.5836                 1.5664
 IR Inten    --      3.0297                 1.4151                15.9108

                     49                     50                     51
                      A                      A                      A
 Frequencies --   1270.6297              1324.3393              1344.0040
 Red. masses --      1.7150                 1.4204                 1.4198
 Frc consts  --      1.6314                 1.4677                 1.5111
 IR Inten    --     14.6863                 3.2960                 6.4881

                     52                     53                     54
                      A                      A                      A
 Frequencies --   1361.1642              1383.7908              1420.4427
 Red. masses --      1.4323                 1.1559                 1.1987
 Frc consts  --      1.5635                 1.3041                 1.4250
 IR Inten    --      1.7616                 5.9436                 8.0250

                     55                     56                     57
                      A                      A                      A
 Frequencies --   1426.7625              1458.7182              1485.1256
 Red. masses --      1.2100                 1.2164                 1.0877
 Frc consts  --      1.4512                 1.5250                 1.4135
 IR Inten    --      8.1251                 7.9628                10.5615

                     58                     59                     60
                      A                      A                      A
 Frequencies --   1493.7489              1503.9406              1507.1728
 Red. masses --      1.0573                 1.0710                 1.0526
 Frc consts  --      1.3900                 1.4273                 1.4088
 IR Inten    --      7.0004                 3.2361                 2.2094

                     61                     62                     63
                      A                      A                      A
 Frequencies --   1512.2188              1515.0917              1527.2412
 Red. masses --      1.0495                 1.0525                 1.0486
 Frc consts  --      1.4141                 1.4234                 1.4411
 IR Inten    --      4.2619                 4.4872                 0.8404

                     64                     65                     66
                      A                      A                      A
 Frequencies --   1532.3615              1533.2206              1547.9982
 Red. masses --      1.0607                 1.0950                 1.0510
 Frc consts  --      1.4675                 1.5167                 1.4838
 IR Inten    --      6.0149                 2.2711                 2.7961

                     67                     68                     69
                      A                      A                      A
 Frequencies --   1558.9941              1612.2439              1794.0262
 Red. masses --      1.0553                 9.9872                12.1941
 Frc consts  --      1.5112                15.2952                23.1238
 IR Inten    --     13.2528               123.0331               160.0603

                     70                     71                     72
                      A                      A                      A
 Frequencies --   3033.2650              3038.7663              3048.9099
 Red. masses --      1.0707                 1.0741                 1.0411
 Frc consts  --      5.8040                 5.8438                 5.7019
 IR Inten    --      8.3060                11.8857                34.1086

                     73                     74                     75
                      A                      A                      A
 Frequencies --   3051.5012              3060.0219              3062.8710
 Red. masses --      1.0414                 1.0643                 1.0331
 Frc consts  --      5.7134                 5.8719                 5.7103
 IR Inten    --     19.2625                37.2941                25.5057

                     76                     77                     78
                      A                      A                      A
 Frequencies --   3065.1302              3105.4353              3108.1884
 Red. masses --      1.0353                 1.1021                 1.1014
 Frc consts  --      5.7310                 6.2620                 6.2691
 IR Inten    --     46.6025                17.9387                24.4148

                     79                     80                     81
                      A                      A                      A
 Frequencies --   3115.9334              3125.0210              3129.2697
 Red. masses --      1.0988                 1.0988                 1.0941
 Frc consts  --      6.2857                 6.3224                 6.3124
 IR Inten    --     33.6673                59.0077                17.5359

                     82                     83                     84
                      A                      A                      A
 Frequencies --   3138.4797              3148.2405              3149.8330
 Red. masses --      1.0915                 1.1064                 1.1026
 Frc consts  --      6.3346                 6.4608                 6.4453
 IR Inten    --     14.0719                12.2120                22.0557

                     85                     86                     87
                      A                      A                      A
 Frequencies --   3158.7187              3194.4032              3197.8448
 Red. masses --      1.1051                 1.0950                 1.0947
 Frc consts  --      6.4965                 6.5834                 6.5959
 IR Inten    --      8.6125                 1.3958                 3.1686

 - Thermochemistry -
 -------------------
 Temperature   298.150 Kelvin.  Pressure   1.00000 Atm.
 Atom     1 has atomic number  6 and mass  12.00000

 Molecular mass:   198.10784 amu.
 Principal axes and moments of inertia in atomic units:
                           1         2         3
     Eigenvalues --  1991.501052949.458254241.16562
           X            0.99732  -0.07224   0.01117
           Y            0.07195   0.99709   0.02506
           Z           -0.01295  -0.02419   0.99962
 This molecule is an asymmetric top.
 Rotational symmetry number  1.
 Warning -- assumption of classical behavior for rotation
           may cause significant error
 Rotational temperatures (Kelvin)      0.04349     0.02937     0.02042
 Rotational constants (GHZ):           0.90622     0.61189     0.42553
 Zero-point vibrational energy     708984.6 (Joules/Mol)
                                  169.45140 (Kcal/Mol)
 Warning -- explicit consideration of  22 degrees of freedom as
           vibrations may cause significant error
 Vibrational temperatures:     48.69    91.29   112.86   153.04   222.56
          (Kelvin)            250.68   259.65   272.32   311.21   366.56
                              371.46   377.59   402.63   466.34   470.00
                              505.55   509.01   594.69   626.52   758.38
                              775.42   789.88   899.60   930.23   997.31
                             1008.59  1140.47  1169.15  1223.05  1278.58
                             1346.17  1363.42  1365.17  1398.82  1409.84
                             1421.14  1442.96  1487.43  1509.13  1523.40
                             1535.38  1585.12  1662.75  1717.63  1749.62
                             1777.00  1808.65  1817.12  1828.15  1905.43
                             1933.72  1958.41  1990.97  2043.70  2052.79
                             2098.77  2136.76  2149.17  2163.84  2168.49
                             2175.75  2179.88  2197.36  2204.73  2205.96
                             2227.22  2243.04  2319.66  2581.20  4364.19
                             4372.11  4386.70  4390.43  4402.69  4406.79
                             4410.04  4468.03  4471.99  4483.13  4496.21
                             4502.32  4515.57  4529.62  4531.91  4544.69
                             4596.03  4600.99

 Zero-point correction=                           0.270038 (Hartree/Particle)
 Thermal correction to Energy=                    0.284961
 Thermal correction to Enthalpy=                  0.285906
 Thermal correction to Gibbs Free Energy=         0.228530
 Sum of electronic and zero-point Energies=           -903.194344
 Sum of electronic and thermal Energies=              -903.179420
 Sum of electronic and thermal Enthalpies=            -903.178476
 Sum of electronic and thermal Free Energies=         -903.235852

                     E (Thermal)             CV                S
                      KCal/Mol        Cal/Mol-Kelvin    Cal/Mol-Kelvin
 Total                  178.816             56.198            120.757
 Electronic               0.000              0.000              0.000
 Translational            0.889              2.981             41.756
 Rotational               0.889              2.981             31.588
 Vibrational            177.038             50.236             47.413
 Vibration     1          0.594              1.983              5.590
 Vibration     2          0.597              1.972              4.347
 Vibration     3          0.600              1.964              3.929
 Vibration     4          0.605              1.944              3.334
 Vibration     5          0.620              1.897              2.614
 Vibration     6          0.627              1.874              2.389
 Vibration     7          0.629              1.866              2.324
 Vibration     8          0.633              1.855              2.235
 Vibration     9          0.645              1.816              1.990
 Vibration    10          0.665              1.755              1.697
 Vibration    11          0.667              1.749              1.674
 Vibration    12          0.670              1.742              1.645
 Vibration    13          0.680              1.711              1.535
 Vibration    14          0.709              1.627              1.289
 Vibration    15          0.710              1.622              1.277
 Vibration    16          0.728              1.572              1.160
 Vibration    17          0.730              1.568              1.149
 Vibration    18          0.777              1.441              0.915
 Vibration    19          0.796              1.393              0.841
 Vibration    20          0.882              1.190              0.594
 Vibration    21          0.894              1.164              0.568
 Vibration    22          0.904              1.142              0.546

 Optimization completed.
    -- Stationary point found.
 Normal termination of Gaussian 16 at Wed Dec  9 23:33:38 2020.

 ----------------------------------------------------------------------
 # B3LYP/6-311++G(d,p) empiricaldispersion=gd3bj scf=xqc pop=npa geom=c
 heck
 ----------------------------------------------------------------------

 --------------------------------------
 CID_15571009_JID_3447_Energie_neutraal
 --------------------------------------
 Structure from the checkpoint file:  "JID_3447.chk"
 Charge =  0 Multiplicity = 1

 SCF Done:  E(RB3LYP) =  -903.629412988     A.U. after   15 cycles
 Normal termination of Gaussian 16 at Wed Dec  9 23:38:34 2020.

 ----------------------------------------------------------------------
 # B3LYP/6-311++G(d,p) empiricaldispersion=gd3bj scf=xqc pop=npa geom=c
 heck
 ----------------------------------------------------------------------

 ------------------------------------
 CID_15571009_JID_3447_Energie_kation
 ------------------------------------
 Structure from the checkpoint file:  "JID_3447.chk"
 Charge =  1 Multiplicity = 2

 SCF Done:  E(UB3LYP) =  -903.327601533     A.U. after   28 cycles
 Normal termination of Gaussian 16 at Wed Dec  9 23:51:33 2020.
 Gaussian 16:  ES64L-G16RevA.03 25-Dec-2016

 ----------------------------------------------------------------------
 # B3LYP/6-311++G(d,p) empiricaldispersion=gd3bj scf=xqc pop=npa geom=c
 heck
 ----------------------------------------------------------------------

 -----------------------------------
 CID_15571009_JID_3447_Energie_anion
 -----------------------------------
 Structure from the checkpoint file:  "JID_3447.chk"
 Charge = -1 Multiplicity = 2

                         Standard orientation:
 ---------------------------------------------------------------------
 Center     Atomic      Atomic             Coordinates (Angstroms)
 Number     Number       Type             X           Y           Z
 ---------------------------------------------------------------------
      1          6           0        1.185445   -1.651027    1.400763
      2          6           0        1.401059   -1.079371   -0.019155
      3          6           0        2.902246   -0.753620   -0.156736
      4          6           0        1.080980   -2.136170   -1.101984
      5          6           0        0.492908    0.154821   -0.222226
      6          6           0       -0.864500    0.203062   -0.165207
      7          6           0       -1.695220    1.468991   -0.356791
      8          6           0       -3.078479    1.148469    0.242254
      9          6           0       -3.257585   -0.342959   -0.042608
     10          6           0       -1.847318   -0.920215    0.063803
     11          8           0       -1.627972   -2.097607    0.291956
     12         16           0        1.301084    1.727745   -0.650994
     13          6           0        1.686130    2.343112    1.032449
     14          1           0        1.837959   -2.519946    1.546270
     15          1           0        0.156599   -1.970631    1.556474
     16          1           0        1.448576   -0.903180    2.157964
     17          1           0        3.468146   -1.677473    0.007069
     18          1           0        3.152832   -0.372181   -1.149148
     19          1           0        3.246301   -0.024549    0.582321
     20          1           0        0.052514   -2.486176   -1.038564
     21          1           0        1.261933   -1.722147   -2.100473
     22          1           0        1.743469   -3.000027   -0.971380
     23          1           0       -1.788777    1.691364   -1.428853
     24          1           0       -1.234077    2.347175    0.097087
     25          1           0       -3.872096    1.772558   -0.177990
     26          1           0       -3.061748    1.318696    1.325697
     27          1           0       -3.601579   -0.504954   -1.075114
     28          1           0       -3.943410   -0.877708    0.619312
     29          1           0        0.769734    2.465512    1.616249
     30          1           0        2.369526    1.672939    1.558714
     31          1           0        2.166535    3.317111    0.907248
 ---------------------------------------------------------------------

 SCF Done:  E(UB3LYP) =  -903.650997161     A.U. after   23 cycles

 The electronic state is 2-A.
 Alpha  occ. eigenvalues --  -88.69388 -18.91956 -10.06367 -10.06038 -10.05145
 Alpha  occ. eigenvalues --  -10.03761 -10.03117 -10.02848 -10.02843 -10.02534
 Alpha  occ. eigenvalues --  -10.01527 -10.01337 -10.01164  -7.77942  -5.74341
 Alpha  occ. eigenvalues --   -5.73972  -5.73322  -0.86127  -0.70028  -0.68026
 Alpha  occ. eigenvalues --   -0.64169  -0.59315  -0.54962  -0.54652  -0.54454
 Alpha  occ. eigenvalues --   -0.51472  -0.46764  -0.42736  -0.40587  -0.34443
 Alpha  occ. eigenvalues --   -0.33932  -0.31653  -0.31504  -0.30850  -0.29762
 Alpha  occ. eigenvalues --   -0.28991  -0.27902  -0.26877  -0.26263  -0.25459
 Alpha  occ. eigenvalues --   -0.24220  -0.24033  -0.23333  -0.23094  -0.22049
 Alpha  occ. eigenvalues --   -0.21260  -0.20710  -0.19859  -0.18873  -0.18610
 Alpha  occ. eigenvalues --   -0.16053  -0.10226  -0.08613  -0.07226   0.03581
 Alpha virt. eigenvalues --    0.08313   0.09313   0.09579   0.10648   0.11399
 Alpha virt. eigenvalues --    0.11572   0.11763   0.12101   0.12347   0.13204
 Alpha virt. eigenvalues --    0.14227   0.14466   0.14601   0.15058   0.15358

  Beta  occ. eigenvalues --  -88.69397 -18.91472 -10.06053 -10.05898 -10.05178
  Beta  occ. eigenvalues --  -10.03753 -10.02862 -10.02839 -10.02613 -10.02569
  Beta  occ. eigenvalues --  -10.01497 -10.01300 -10.01084  -7.77948  -5.74353
  Beta  occ. eigenvalues --   -5.73993  -5.73324  -0.85234  -0.69635  -0.67828
  Beta  occ. eigenvalues --   -0.63944  -0.59014  -0.54925  -0.54569  -0.54199
  Beta  occ. eigenvalues --   -0.50972  -0.46573  -0.42532  -0.40199  -0.34277
  Beta  occ. eigenvalues --   -0.33682  -0.31366  -0.31185  -0.30702  -0.29641
  Beta  occ. eigenvalues --   -0.28897  -0.27616  -0.26574  -0.25881  -0.25374
  Beta  occ. eigenvalues --   -0.23885  -0.23711  -0.23055  -0.22814  -0.21680
  Beta  occ. eigenvalues --   -0.21087  -0.20417  -0.19750  -0.18774  -0.17032
  Beta  occ. eigenvalues --   -0.15784  -0.08536  -0.08130  -0.06859
  Beta virt. eigenvalues --    0.08092   0.08950   0.09314   0.10371   0.11204
  Beta virt. eigenvalues --    0.11322   0.11503   0.11808   0.12095   0.12506
  Beta virt. eigenvalues --    0.13153   0.14216   0.14383   0.14577   0.14963

 Mulliken charges and spin densities:
               1          2
     1  C   -0.631770  -0.036670
     2  C    1.501207   0.017352
     3  C   -0.561093  -0.008165
     4  C   -0.678071  -0.034555
     5  C    0.039498   0.411770
     6  C    0.360391   0.119904
     7  C   -0.165537  -0.071013
     8  C   -0.362499   0.043288
     9  C   -0.204120  -0.033300
    10  C   -0.923847   0.118619
    11  O   -0.361648   0.180562
    12  S   -0.476846   0.069293
    13  C   -0.437169  -0.217033
    14  H    0.101965   0.008789
    15  H    0.192427   0.007502
    16  H    0.096478   0.002506
    17  H    0.108541   0.000042
    18  H    0.137492  -0.000579
    19  H    0.093340   0.015467
    20  H    0.175677   0.009679
    21  H    0.111021   0.008923
    22  H    0.100810   0.009985
    23  H    0.104783   0.044515
    24  H    0.096305   0.008804
    25  H    0.082477   0.050285
    26  H    0.105694  -0.002726
    27  H    0.071018   0.075577
    28  H    0.132982  -0.001672
    29  H    0.114837   0.034371
    30  H    0.067079   0.037881
    31  H    0.008576   0.130599
 Sum of Mulliken charges =  -1.00000   1.00000

 Dipole moment (field-independent basis, Debye):
    X=              1.4005    Y=              1.9367    Z=              0.6229  Tot=              2.4699
 Quadrupole moment (field-independent basis, Debye-Ang):
   XX=           -116.7980   YY=           -118.6324   ZZ=           -100.9214
   XY=             -8.2129   XZ=              1.1306   YZ=              3.2786

 Summary of Natural Population Analysis:

                                       Natural Population
                Natural  -----------------------------------------------
    Atom  No    Charge         Core      Valence    Rydberg      Total
 -----------------------------------------------------------------------
      C    1   -0.27920      0.99963     2.27419    0.00539     3.27920
      C    2   -0.06588      0.99955     2.05641    0.00992     3.06588
      C    3   -0.28014      0.99964     2.27444    0.00606     3.28014
      C    4   -0.27861      0.99963     2.27340    0.00558     3.27861
      C    5    0.05599      0.99932     1.92939    0.01529     2.94401
      C    6   -0.06160      0.99939     2.05027    0.01194     3.06160
      C    7   -0.19664      0.99962     2.18772    0.00930     3.19664
      C    8   -0.18510      0.99965     2.17980    0.00566     3.18510
      C    9   -0.23162      0.99961     2.22298    0.00902     3.23162
      C   10    0.31308      0.99961     1.66467    0.02264     2.68692
      O   11   -0.26585      0.99987     3.25917    0.00681     4.26585
      S   12    0.06947      4.99958     2.91083    0.02013     7.93053
      C   13   -0.33185      0.99962     2.32629    0.00595     3.33185
      H   14    0.08555      0.00000     0.41350    0.00095     0.41445
      H   15    0.12069      0.00000     0.37833    0.00098     0.37931
      H   16    0.09070      0.00000     0.40839    0.00091     0.40930
      H   17    0.08896      0.00000     0.41011    0.00093     0.41104
      H   18    0.10204      0.00000     0.39708    0.00087     0.39796
      H   19    0.09439      0.00000     0.40447    0.00114     0.40561
      H   20    0.12023      0.00000     0.37880    0.00097     0.37977
      H   21    0.09211      0.00000     0.40716    0.00073     0.40789
      H   22    0.08551      0.00000     0.41360    0.00090     0.41449
      H   23    0.09471      0.00000     0.40340    0.00189     0.40529
      H   24    0.10168      0.00000     0.39728    0.00104     0.39832
      H   25    0.08812      0.00000     0.41011    0.00177     0.41188
      H   26    0.08939      0.00000     0.40955    0.00106     0.41061
      H   27    0.09958      0.00000     0.39821    0.00221     0.40042
      H   28    0.10063      0.00000     0.39849    0.00088     0.39937
      H   29    0.09581      0.00000     0.40233    0.00186     0.40419
      H   30    0.09255      0.00000     0.40540    0.00205     0.40745
      H   31    0.09534      0.00000     0.40286    0.00180     0.40466
 =======================================================================
   * Total *   -0.00000     16.99471    36.84864    0.15665    54.00000

 Normal termination of Gaussian 16 at Thu Dec 10 00:02:24 2020.
