 Gaussian 16, Revision A.03,

 -----------------------------------------------------------
 # opt freq B3LYP/6-31G(d) empiricaldispersion=gd3bj scf=xqc
 -----------------------------------------------------------

 -------------------------------
 CID_108141043_JID_7497_neutraal
 -------------------------------
 Symbolic Z-matrix:
 Charge =  0 Multiplicity = 1

 SCF Done:  E(RB3LYP) =  -829.053625371     A.U. after   16 cycles
 SCF Done:  E(RB3LYP) =  -829.081117103     A.U. after   16 cycles
 SCF Done:  E(RB3LYP) =  -829.085675972     A.U. after   15 cycles
 SCF Done:  E(RB3LYP) =  -829.084339258     A.U. after   16 cycles
 SCF Done:  E(RB3LYP) =  -829.089747874     A.U. after   15 cycles
 SCF Done:  E(RB3LYP) =  -829.093484612     A.U. after   15 cycles
 SCF Done:  E(RB3LYP) =  -829.094687612     A.U. after   14 cycles
 SCF Done:  E(RB3LYP) =  -829.095136856     A.U. after   13 cycles
 SCF Done:  E(RB3LYP) =  -829.094981873     A.U. after   14 cycles
 SCF Done:  E(RB3LYP) =  -829.095327004     A.U. after   14 cycles
 SCF Done:  E(RB3LYP) =  -829.095563235     A.U. after   11 cycles
 SCF Done:  E(RB3LYP) =  -829.095567940     A.U. after   11 cycles
 SCF Done:  E(RB3LYP) =  -829.095579410     A.U. after   11 cycles
 SCF Done:  E(RB3LYP) =  -829.095584516     A.U. after    9 cycles
 SCF Done:  E(RB3LYP) =  -829.095588872     A.U. after   10 cycles
 SCF Done:  E(RB3LYP) =  -829.095589091     A.U. after    8 cycles
 Optimization completed.
    -- Stationary point found.
 Normal termination of Gaussian 16 at Fri Dec 11 12:39:41 2020.

 --------------------------------------------------------------------
 #N Geom=AllCheck Guess=TCheck SCRF=Check GenChk RB3LYP/6-31G(d) Freq
 --------------------------------------------------------------------

 Structure from the checkpoint file:  "JID_7497.chk"
 -------------------------------
 CID_108141043_JID_7497_neutraal
 -------------------------------
 Charge =  0 Multiplicity = 1

 SCF Done:  E(RB3LYP) =  -829.095589091     A.U. after    1 cycles

  Exact polarizability: 157.597   9.276 165.214 -22.598   3.757  98.661
 Approx polarizability: 234.107  17.277 286.541 -56.321   5.329 172.562

                      1                      2                      3
                      A                      A                      A
 Frequencies --     32.2048                38.5968                69.5674
 Red. masses --      5.4468                 5.8125                 5.8342
 Frc consts  --      0.0033                 0.0051                 0.0166
 IR Inten    --      4.3565                 1.9483                 1.8138

                      4                      5                      6
                      A                      A                      A
 Frequencies --     83.2343               106.0484               129.3292
 Red. masses --      5.9053                 7.8420                 2.7253
 Frc consts  --      0.0241                 0.0520                 0.0269
 IR Inten    --      0.4683                 6.3816                 3.0095

                      7                      8                      9
                      A                      A                      A
 Frequencies --    151.0349               183.4882               204.7430
 Red. masses --      7.1086                 3.5389                 1.7039
 Frc consts  --      0.0955                 0.0702                 0.0421
 IR Inten    --      1.9301                 0.8563                 4.3707

                     10                     11                     12
                      A                      A                      A
 Frequencies --    227.3265               233.1721               249.2029
 Red. masses --      4.1423                 3.8170                 1.4165
 Frc consts  --      0.1261                 0.1223                 0.0518
 IR Inten    --      1.0864                 3.8337               239.3932

                     13                     14                     15
                      A                      A                      A
 Frequencies --    257.7048               276.8993               290.1547
 Red. masses --      3.7729                 2.4762                 4.0096
 Frc consts  --      0.1476                 0.1119                 0.1989
 IR Inten    --     44.7307                24.9113                 9.0857

                     16                     17                     18
                      A                      A                      A
 Frequencies --    302.8225               355.1656               398.0735
 Red. masses --      1.1954                 5.1859                 4.7703
 Frc consts  --      0.0646                 0.3854                 0.4454
 IR Inten    --      2.7903                 5.5780                 6.3088

                     19                     20                     21
                      A                      A                      A
 Frequencies --    414.7516               433.3124               473.7416
 Red. masses --      3.9641                 3.8194                 2.9266
 Frc consts  --      0.4018                 0.4225                 0.3870
 IR Inten    --      1.5521                 2.4485                 1.3143

                     22                     23                     24
                      A                      A                      A
 Frequencies --    492.8732               560.4080               566.8112
 Red. masses --      4.3380                 1.7707                 1.6490
 Frc consts  --      0.6209                 0.3276                 0.3121
 IR Inten    --      7.5066                 3.8175                 0.8157

                     25                     26                     27
                      A                      A                      A
 Frequencies --    572.4404               613.0037               667.2562
 Red. masses --      4.2099                 4.8775                 5.8762
 Frc consts  --      0.8128                 1.0799                 1.5415
 IR Inten    --      0.5052                 7.8768                 7.1585

                     28                     29                     30
                      A                      A                      A
 Frequencies --    685.7223               721.6273               739.7551
 Red. masses --      5.0673                 9.8061                 5.3916
 Frc consts  --      1.4039                 3.0087                 1.7384
 IR Inten    --      5.2399                 1.4919                 3.3379

                     31                     32                     33
                      A                      A                      A
 Frequencies --    769.4973               785.1571               801.4772
 Red. masses --      9.8969                 3.6023                 8.7115
 Frc consts  --      3.4527                 1.3084                 3.2970
 IR Inten    --      2.0723                 9.7599                34.0871

                     34                     35                     36
                      A                      A                      A
 Frequencies --    850.2805               913.2966               916.6120
 Red. masses --     12.3595                 2.4639                 2.9133
 Frc consts  --      5.2647                 1.2109                 1.4421
 IR Inten    --     26.0135                 3.9455                 9.1521

                     37                     38                     39
                      A                      A                      A
 Frequencies --    970.6995               994.0619              1018.3999
 Red. masses --      2.2224                 1.4493                 2.4149
 Frc consts  --      1.2338                 0.8438                 1.4756
 IR Inten    --      8.0485                 4.2970                43.9189

                     40                     41                     42
                      A                      A                      A
 Frequencies --   1040.0991              1088.2099              1111.9004
 Red. masses --      1.7392                 2.2456                 1.8169
 Frc consts  --      1.1085                 1.5668                 1.3235
 IR Inten    --     12.9219                 1.0303                 3.8734

                     43                     44                     45
                      A                      A                      A
 Frequencies --   1142.2797              1155.0127              1158.7230
 Red. masses --      1.9500                 2.0903                 1.3264
 Frc consts  --      1.4991                 1.6429                 1.0493
 IR Inten    --      8.9293                 9.2425                13.8757

                     46                     47                     48
                      A                      A                      A
 Frequencies --   1189.4220              1275.6072              1299.1400
 Red. masses --      3.4281                 1.9768                 1.6446
 Frc consts  --      2.8574                 1.8952                 1.6354
 IR Inten    --      9.0644                24.6612                21.4526

                     49                     50                     51
                      A                      A                      A
 Frequencies --   1315.8669              1326.3582              1361.2209
 Red. masses --      1.5659                 5.6252                 1.7652
 Frc consts  --      1.5975                 5.8305                 1.9271
 IR Inten    --     22.5836               218.0318                26.4439

                     52                     53                     54
                      A                      A                      A
 Frequencies --   1385.0314              1387.3428              1406.9675
 Red. masses --      1.9900                 3.6510                 2.4136
 Frc consts  --      2.2491                 4.1403                 2.8150
 IR Inten    --     10.1963               219.4437                 1.7334

                     55                     56                     57
                      A                      A                      A
 Frequencies --   1411.6681              1446.7628              1465.8341
 Red. masses --      1.6478                 1.2176                 1.6361
 Frc consts  --      1.9347                 1.5016                 2.0712
 IR Inten    --    179.7852                 5.3101               209.4430

                     58                     59                     60
                      A                      A                      A
 Frequencies --   1503.5327              1511.5139              1517.7361
 Red. masses --      1.1627                 1.6412                 1.6391
 Frc consts  --      1.5486                 2.2092                 2.2246
 IR Inten    --     49.3479               110.1202                25.4217

                     61                     62                     63
                      A                      A                      A
 Frequencies --   1525.3217              1530.9027              1539.5307
 Red. masses --      1.0527                 1.2233                 1.1416
 Frc consts  --      1.4431                 1.6892                 1.5941
 IR Inten    --     19.9366                10.1327                21.0141

                     64                     65                     66
                      A                      A                      A
 Frequencies --   1551.9023              1577.4289              1611.0119
 Red. masses --      2.1944                 2.0461                 6.1631
 Frc consts  --      3.1139                 2.9997                 9.4243
 IR Inten    --     58.8636                86.1520               317.3416

                     67                     68                     69
                      A                      A                      A
 Frequencies --   1643.1989              1674.4071              2363.3027
 Red. masses --      4.7453                 2.1147                12.6475
 Frc consts  --      7.5491                 3.4931                41.6192
 IR Inten    --    481.7580               674.9475                 7.7008

                     70                     71                     72
                      A                      A                      A
 Frequencies --   3042.9301              3072.9154              3081.7950
 Red. masses --      1.0828                 1.0347                 1.0338
 Frc consts  --      5.9074                 5.7565                 5.7850
 IR Inten    --      5.8146                 8.5255                21.2362

                     73                     74                     75
                      A                      A                      A
 Frequencies --   3107.7653              3146.4171              3152.6061
 Red. masses --      1.0714                 1.1041                 1.1034
 Frc consts  --      6.0965                 6.4398                 6.4614
 IR Inten    --     31.9907                13.9637                14.6407

                     76                     77                     78
                      A                      A                      A
 Frequencies --   3155.1735              3176.8631              3198.7401
 Red. masses --      1.1034                 1.1055                 1.0939
 Frc consts  --      6.4717                 6.5736                 6.5945
 IR Inten    --     12.4234                14.8219                13.4861

                     79                     80                     81
                      A                      A                      A
 Frequencies --   3214.1602              3617.5188              3745.7300
 Red. masses --      1.0916                 1.0447                 1.1059
 Frc consts  --      6.6444                 8.0547                 9.1420
 IR Inten    --      0.4472               137.6583                54.9979

 - Thermochemistry -
 -------------------
 Temperature   298.150 Kelvin.  Pressure   1.00000 Atm.
 Atom     1 has atomic number  6 and mass  12.00000

 Molecular mass:   236.10217 amu.
 Principal axes and moments of inertia in atomic units:
                           1         2         3
     Eigenvalues --  3015.982724306.644885904.19682
           X            0.99874   0.04954  -0.00751
           Y           -0.04932   0.99844   0.02634
           Z            0.00880  -0.02593   0.99962
 This molecule is an asymmetric top.
 Rotational symmetry number  1.
 Warning -- assumption of classical behavior for rotation
           may cause significant error
 Rotational temperatures (Kelvin)      0.02872     0.02011     0.01467
 Rotational constants (GHZ):           0.59839     0.41906     0.30567
 Zero-point vibrational energy     596815.8 (Joules/Mol)
                                  142.64239 (Kcal/Mol)
 Warning -- explicit consideration of  26 degrees of freedom as
           vibrations may cause significant error
 Vibrational temperatures:     46.34    55.53   100.09   119.76   152.58
          (Kelvin)            186.08   217.31   264.00   294.58   327.07
                              335.48   358.55   370.78   398.40   417.47
                              435.69   511.00   572.74   596.74   623.44
                              681.61   709.13   806.30   815.51   823.61
                              881.98   960.03   986.60  1038.26  1064.34
                             1107.13  1129.67  1153.15  1223.36  1314.03
                             1318.80  1396.62  1430.23  1465.25  1496.47
                             1565.69  1599.78  1643.49  1661.81  1667.14
                             1711.31  1835.31  1869.17  1893.24  1908.33
                             1958.49  1992.75  1996.08  2024.31  2031.08
                             2081.57  2109.01  2163.25  2174.73  2183.68
                             2194.60  2202.63  2215.04  2232.84  2269.57
                             2317.89  2364.20  2409.10  3400.27  4378.10
                             4421.24  4434.02  4471.38  4526.99  4535.90
                             4539.59  4570.80  4602.27  4624.46  5204.80
                             5389.27

 Zero-point correction=                           0.227315 (Hartree/Particle)
 Thermal correction to Energy=                    0.243597
 Thermal correction to Enthalpy=                  0.244541
 Thermal correction to Gibbs Free Energy=         0.183023
 Sum of electronic and zero-point Energies=           -828.868274
 Sum of electronic and thermal Energies=              -828.851992
 Sum of electronic and thermal Enthalpies=            -828.851048
 Sum of electronic and thermal Free Energies=         -828.912566

                     E (Thermal)             CV                S
                      KCal/Mol        Cal/Mol-Kelvin    Cal/Mol-Kelvin
 Total                  152.859             60.074            129.475
 Electronic               0.000              0.000              0.000
 Translational            0.889              2.981             42.279
 Rotational               0.889              2.981             32.706
 Vibrational            151.082             54.112             54.491
 Vibration     1          0.594              1.983              5.689
 Vibration     2          0.594              1.981              5.330
 Vibration     3          0.598              1.969              4.166
 Vibration     4          0.600              1.961              3.813
 Vibration     5          0.605              1.944              3.340
 Vibration     6          0.612              1.924              2.956
 Vibration     7          0.618              1.902              2.659
 Vibration     8          0.631              1.862              2.293
 Vibration     9          0.640              1.833              2.090
 Vibration    10          0.651              1.799              1.900
 Vibration    11          0.654              1.790              1.854
 Vibration    12          0.662              1.764              1.736
 Vibration    13          0.667              1.750              1.677
 Vibration    14          0.678              1.716              1.553
 Vibration    15          0.686              1.692              1.473
 Vibration    16          0.694              1.668              1.401
 Vibration    17          0.731              1.565              1.143
 Vibration    18          0.764              1.474              0.970
 Vibration    19          0.778              1.438              0.910
 Vibration    20          0.794              1.398              0.848
 Vibration    21          0.831              1.308              0.727
 Vibration    22          0.849              1.266              0.676
 Vibration    23          0.916              1.117              0.523
 Vibration    24          0.923              1.103              0.510
 Vibration    25          0.929              1.091              0.500
 Vibration    26          0.972              1.004              0.428

                           ! Non-Optimized Parameters !
 Normal termination of Gaussian 16 at Fri Dec 11 12:52:30 2020.

 ----------------------------------------------------------------------
 # B3LYP/6-311++G(d,p) empiricaldispersion=gd3bj scf=xqc pop=npa geom=c
 heck
 ----------------------------------------------------------------------

 ---------------------------------------
 CID_108141043_JID_7497_Energie_neutraal
 ---------------------------------------
 Structure from the checkpoint file:  "JID_7497.chk"
 Charge =  0 Multiplicity = 1

 SCF Done:  E(RB3LYP) =  -829.333027300     A.U. after   16 cycles
 Normal termination of Gaussian 16 at Fri Dec 11 12:59:09 2020.

 ----------------------------------------------------------------------
 # B3LYP/6-311++G(d,p) empiricaldispersion=gd3bj scf=xqc pop=npa geom=c
 heck
 ----------------------------------------------------------------------

 -------------------------------------
 CID_108141043_JID_7497_Energie_kation
 -------------------------------------
 Structure from the checkpoint file:  "JID_7497.chk"
 Charge =  1 Multiplicity = 2

 SCF Done:  E(UB3LYP) =  -829.019665904     A.U. after   32 cycles
 Normal termination of Gaussian 16 at Fri Dec 11 13:14:43 2020.
 Gaussian 16:  ES64L-G16RevA.03 25-Dec-2016

 ----------------------------------------------------------------------
 # B3LYP/6-311++G(d,p) empiricaldispersion=gd3bj scf=xqc pop=npa geom=c
 heck
 ----------------------------------------------------------------------

 ------------------------------------
 CID_108141043_JID_7497_Energie_anion
 ------------------------------------
 Structure from the checkpoint file:  "JID_7497.chk"
 Charge = -1 Multiplicity = 2

                         Standard orientation:
 ---------------------------------------------------------------------
 Center     Atomic      Atomic             Coordinates (Angstroms)
 Number     Number       Type             X           Y           Z
 ---------------------------------------------------------------------
      1          6           0       -1.603691   -0.654767   -1.799690
      2          6           0       -2.545775   -0.491200   -0.592551
      3          6           0       -1.838492   -0.621404    0.784717
      4          7           0       -0.800047    0.369444    1.044317
      5          6           0       -1.251091    1.667888    1.565003
      6          6           0        0.463646    0.311044    0.532346
      7          7           0        1.084736    1.496333    0.409513
      8          6           0        2.268222    1.552235   -0.208496
      9          7           0        2.913562    0.528985   -0.825168
     10          6           0        2.337974   -0.648932   -0.658565
     11          6           0        1.155640   -0.852435    0.063688
     12          7           0        0.816559   -2.219504    0.344178
     13          8           0        0.279491   -2.481363    1.430605
     14          8           0        1.113873   -3.075758   -0.498054
     15          7           0        2.892275    2.752007   -0.238560
     16          6           0       -3.292921    0.770161   -0.693197
     17          7           0       -3.867387    1.776155   -0.767794
     18          1           0       -0.878100    0.161061   -1.845167
     19          1           0       -2.176132   -0.650247   -2.731342
     20          1           0       -1.060952   -1.602150   -1.729445
     21          1           0       -3.287398   -1.301663   -0.617133
     22          1           0       -2.585446   -0.520032    1.575765
     23          1           0       -1.434291   -1.626466    0.868205
     24          1           0       -0.490475    2.080017    2.228671
     25          1           0       -1.442623    2.389206    0.766147
     26          1           0       -2.174989    1.502901    2.121527
     27          1           0        2.836224   -1.516456   -1.081794
     28          1           0        3.713150    2.850466   -0.815586
     29          1           0        2.395165    3.570862    0.074799
 ---------------------------------------------------------------------

 SCF Done:  E(UB3LYP) =  -829.369290955     A.U. after   26 cycles

 The electronic state is 2-A.
 Alpha  occ. eigenvalues --  -18.93817 -18.93769 -14.30852 -14.22968 -14.21957
 Alpha  occ. eigenvalues --  -14.21249 -14.17627 -14.17234 -10.13763 -10.13370
 Alpha  occ. eigenvalues --  -10.12504 -10.11831 -10.10505 -10.09046 -10.07422
 Alpha  occ. eigenvalues --  -10.07090 -10.06685  -1.01782  -0.88366  -0.84960
 Alpha  occ. eigenvalues --   -0.84264  -0.81775  -0.78179  -0.75444  -0.71468
 Alpha  occ. eigenvalues --   -0.66591  -0.61179  -0.59598  -0.56055  -0.54118
 Alpha  occ. eigenvalues --   -0.49894  -0.47091  -0.44431  -0.43301  -0.40164
 Alpha  occ. eigenvalues --   -0.38873  -0.38047  -0.36877  -0.35084  -0.34766
 Alpha  occ. eigenvalues --   -0.34163  -0.33637  -0.31563  -0.30993  -0.30565
 Alpha  occ. eigenvalues --   -0.29715  -0.28783  -0.28364  -0.27672  -0.27220
 Alpha  occ. eigenvalues --   -0.26120  -0.24310  -0.23551  -0.21965  -0.19906
 Alpha  occ. eigenvalues --   -0.19677  -0.13474  -0.13145  -0.12887  -0.11941
 Alpha  occ. eigenvalues --   -0.10749  -0.08606   0.02956
 Alpha virt. eigenvalues --    0.07391   0.07737   0.09102   0.09892   0.10073
 Alpha virt. eigenvalues --    0.10796   0.11095   0.11855   0.12272   0.12444
 Alpha virt. eigenvalues --    0.12650   0.13459   0.13756   0.13977   0.15044

  Beta  occ. eigenvalues --  -18.93283 -18.93234 -14.29980 -14.22938 -14.21951
  Beta  occ. eigenvalues --  -14.21181 -14.17698 -14.17331 -10.13517 -10.13259
  Beta  occ. eigenvalues --  -10.12492 -10.11830 -10.10501 -10.09047 -10.07422
  Beta  occ. eigenvalues --  -10.06849 -10.06757  -1.00473  -0.88210  -0.84713
  Beta  occ. eigenvalues --   -0.83353  -0.81760  -0.78044  -0.75427  -0.71451
  Beta  occ. eigenvalues --   -0.66202  -0.61156  -0.59409  -0.55841  -0.53589
  Beta  occ. eigenvalues --   -0.49725  -0.46432  -0.44335  -0.43082  -0.40087
  Beta  occ. eigenvalues --   -0.38817  -0.37871  -0.36408  -0.34450  -0.34161
  Beta  occ. eigenvalues --   -0.33549  -0.32362  -0.31449  -0.30587  -0.29893
  Beta  occ. eigenvalues --   -0.29065  -0.28543  -0.28230  -0.27487  -0.27201
  Beta  occ. eigenvalues --   -0.25835  -0.24215  -0.23540  -0.21519  -0.19896
  Beta  occ. eigenvalues --   -0.19099  -0.13136  -0.12868  -0.11498  -0.10450
  Beta  occ. eigenvalues --   -0.09607  -0.08000
  Beta virt. eigenvalues --    0.07355   0.07713   0.09053   0.09854   0.10140
  Beta virt. eigenvalues --    0.10711   0.10806   0.11168   0.12002   0.12401
  Beta virt. eigenvalues --    0.12537   0.12655   0.13738   0.13995   0.15010

 Mulliken charges and spin densities:
               1          2
     1  C   -0.764968  -0.022304
     2  C    0.822483  -0.000097
     3  C   -0.595893   0.001734
     4  N    0.165279   0.013048
     5  C   -0.315975  -0.007193
     6  C   -0.142254   0.089048
     7  N   -0.191450  -0.036082
     8  C   -0.002160   0.116550
     9  N   -0.219062  -0.057608
    10  C   -0.059985   0.217020
    11  C   -0.364972  -0.110722
    12  N   -0.370600   0.281610
    13  O   -0.161772   0.205884
    14  O   -0.167651   0.208012
    15  N   -0.324864   0.038427
    16  C   -0.335570  -0.001505
    17  N   -0.335960   0.002819
    18  H    0.234904   0.005462
    19  H    0.159602  -0.000395
    20  H    0.146290   0.033734
    21  H    0.214860  -0.000818
    22  H    0.161130  -0.001036
    23  H    0.234767   0.019052
    24  H    0.179019  -0.000401
    25  H    0.187901   0.007060
    26  H    0.115399  -0.000281
    27  H    0.215352  -0.003616
    28  H    0.269056  -0.000562
    29  H    0.247093   0.003161
 Sum of Mulliken charges =  -1.00000   1.00000

 Dipole moment (field-independent basis, Debye):
    X=             -2.6704    Y=              5.8948    Z=             -0.5194  Tot=              6.4922
 Quadrupole moment (field-independent basis, Debye-Ang):
   XX=           -131.4002   YY=           -138.9429   ZZ=           -111.7759
   XY=             22.0873   XZ=             -2.7168   YZ=              6.7872

 Summary of Natural Population Analysis:

                                       Natural Population
                Natural  -----------------------------------------------
    Atom  No    Charge         Core      Valence    Rydberg      Total
 -----------------------------------------------------------------------
      C    1   -0.28324      0.99965     2.27866    0.00493     3.28324
      C    2   -0.16803      0.99952     2.16041    0.00811     3.16803
      C    3   -0.07924      0.99957     2.06817    0.01150     3.07924
      N    4   -0.23928      0.99964     2.72855    0.01110     3.73928
      C    5   -0.17470      0.99965     2.16870    0.00635     3.17470
      C    6    0.24312      0.99950     1.74012    0.01726     2.75688
      N    7   -0.32155      0.99963     2.81178    0.01013     3.82155
      C    8    0.33460      0.99965     1.64874    0.01701     2.66540
      N    9   -0.31077      0.99968     2.79898    0.01211     3.81077
      C   10    0.10272      0.99958     1.88425    0.01346     2.89728
      C   11   -0.04606      0.99940     2.03421    0.01245     3.04606
      N   12    0.32558      0.99970     2.14664    0.02809     3.17442
      O   13   -0.20704      0.99990     3.19910    0.00804     4.20704
      O   14   -0.19646      0.99990     3.18923    0.00733     4.19646
      N   15   -0.38734      0.99969     2.87937    0.00828     3.88734
      C   16    0.16248      0.99965     1.81777    0.02010     2.83752
      N   17   -0.19457      0.99979     2.68314    0.01164     3.69457
      H   18    0.10839      0.00000     0.39040    0.00121     0.39161
      H   19    0.09731      0.00000     0.40192    0.00077     0.40269
      H   20    0.11773      0.00000     0.38017    0.00210     0.38227
      H   21    0.11477      0.00000     0.38355    0.00168     0.38523
      H   22    0.09453      0.00000     0.40470    0.00077     0.40547
      H   23    0.13269      0.00000     0.36585    0.00145     0.36731
      H   24    0.10310      0.00000     0.39603    0.00087     0.39690
      H   25    0.09733      0.00000     0.40109    0.00158     0.40267
      H   26    0.08980      0.00000     0.40944    0.00076     0.41020
      H   27    0.10038      0.00000     0.39835    0.00127     0.39962
      H   28    0.19263      0.00000     0.30628    0.00108     0.30737
      H   29    0.19114      0.00000     0.30778    0.00108     0.30886
 =======================================================================
   * Total *   -0.00000     16.99409    44.78339    0.22251    62.00000

 Normal termination of Gaussian 16 at Fri Dec 11 13:27:40 2020.
