 Gaussian 16, Revision A.03,

 -----------------------------------------------------------
 # opt freq B3LYP/6-31G(d) empiricaldispersion=gd3bj scf=xqc
 -----------------------------------------------------------

 -------------------------------
 CID_103092253_JID_4832_neutraal
 -------------------------------
 Symbolic Z-matrix:
 Charge =  0 Multiplicity = 1

 SCF Done:  E(RB3LYP) =  -937.703225623     A.U. after   15 cycles
 SCF Done:  E(RB3LYP) =  -937.709670946     A.U. after   12 cycles
 SCF Done:  E(RB3LYP) =  -937.710240716     A.U. after   11 cycles
 SCF Done:  E(RB3LYP) =  -937.710395145     A.U. after   11 cycles
 SCF Done:  E(RB3LYP) =  -937.710469352     A.U. after   10 cycles
 SCF Done:  E(RB3LYP) =  -937.710501493     A.U. after   10 cycles
 SCF Done:  E(RB3LYP) =  -937.710534643     A.U. after   10 cycles
 SCF Done:  E(RB3LYP) =  -937.710547508     A.U. after   10 cycles
 SCF Done:  E(RB3LYP) =  -937.710553273     A.U. after    9 cycles
 SCF Done:  E(RB3LYP) =  -937.710557378     A.U. after    9 cycles
 SCF Done:  E(RB3LYP) =  -937.710559374     A.U. after    8 cycles
 SCF Done:  E(RB3LYP) =  -937.710559649     A.U. after    9 cycles
 SCF Done:  E(RB3LYP) =  -937.710559837     A.U. after    9 cycles
 SCF Done:  E(RB3LYP) =  -937.710559981     A.U. after    8 cycles
 SCF Done:  E(RB3LYP) =  -937.710560103     A.U. after    8 cycles
 SCF Done:  E(RB3LYP) =  -937.710560149     A.U. after    7 cycles
 Optimization completed.
    -- Stationary point found.
 Normal termination of Gaussian 16 at Thu Dec 10 10:45:41 2020.

 --------------------------------------------------------------------
 #N Geom=AllCheck Guess=TCheck SCRF=Check GenChk RB3LYP/6-31G(d) Freq
 --------------------------------------------------------------------

 Structure from the checkpoint file:  "JID_4832.chk"
 -------------------------------
 CID_103092253_JID_4832_neutraal
 -------------------------------
 Charge =  0 Multiplicity = 1

 SCF Done:  E(RB3LYP) =  -937.710560149     A.U. after    1 cycles

  Exact polarizability: 257.429   9.665 140.959  -0.887 -11.525  94.343
 Approx polarizability: 349.919  15.064 225.522  -9.369 -32.492 147.909

                      1                      2                      3
                      A                      A                      A
 Frequencies --     16.1330                42.7834                52.3850
 Red. masses --      3.2654                 3.4202                 3.9560
 Frc consts  --      0.0005                 0.0037                 0.0064
 IR Inten    --      0.0847                 0.3352                 2.0557

                      4                      5                      6
                      A                      A                      A
 Frequencies --     68.7900                99.0068               121.9521
 Red. masses --      4.3800                 2.6298                 2.7302
 Frc consts  --      0.0122                 0.0152                 0.0239
 IR Inten    --      0.2975                 0.2846                 4.2198

                      7                      8                      9
                      A                      A                      A
 Frequencies --    156.4610               173.8367               182.7152
 Red. masses --      3.2722                 1.4303                 1.4003
 Frc consts  --      0.0472                 0.0255                 0.0275
 IR Inten    --      2.2267                 1.9387                 5.0580

                     10                     11                     12
                      A                      A                      A
 Frequencies --    204.5691               232.7520               242.0544
 Red. masses --      1.5101                 1.5456                 1.5689
 Frc consts  --      0.0372                 0.0493                 0.0542
 IR Inten    --      1.7554                 0.2858                 2.5533

                     13                     14                     15
                      A                      A                      A
 Frequencies --    246.6314               257.3652               293.2657
 Red. masses --      2.0938                 1.5878                 2.4666
 Frc consts  --      0.0750                 0.0620                 0.1250
 IR Inten    --      3.7572                 3.8439                 9.2389

                     16                     17                     18
                      A                      A                      A
 Frequencies --    308.7419               370.1505               388.3650
 Red. masses --      2.7706                 3.0280                 3.9478
 Frc consts  --      0.1556                 0.2444                 0.3508
 IR Inten    --      0.7627                 9.0382                 0.2366

                     19                     20                     21
                      A                      A                      A
 Frequencies --    412.8189               449.8407               497.3966
 Red. masses --      3.0960                 4.8194                 3.0929
 Frc consts  --      0.3109                 0.5746                 0.4508
 IR Inten    --      3.8503                 3.8430                 9.1403

                     22                     23                     24
                      A                      A                      A
 Frequencies --    516.4589               554.0542               583.7631
 Red. masses --      3.8599                 4.0576                 3.3271
 Frc consts  --      0.6066                 0.7339                 0.6680
 IR Inten    --      9.0033                 8.3869                 2.8822

                     25                     26                     27
                      A                      A                      A
 Frequencies --    597.3230               687.3358               729.4163
 Red. masses --      2.9023                 5.3150                 2.7302
 Frc consts  --      0.6101                 1.4794                 0.8558
 IR Inten    --     11.5999                 3.8495                95.8213

                     28                     29                     30
                      A                      A                      A
 Frequencies --    741.3730               765.4069               822.4789
 Red. masses --      3.5703                 1.3491                 3.3170
 Frc consts  --      1.1562                 0.4657                 1.3221
 IR Inten    --     36.1594                40.7218                15.1552

                     31                     32                     33
                      A                      A                      A
 Frequencies --    830.8686               862.2685               868.3639
 Red. masses --      1.8366                 1.6001                 1.5943
 Frc consts  --      0.7470                 0.7009                 0.7083
 IR Inten    --      7.1235                14.9936                 9.3435

                     34                     35                     36
                      A                      A                      A
 Frequencies --    943.6197               951.3115              1003.1251
 Red. masses --      3.3673                 1.7878                 1.0924
 Frc consts  --      1.7665                 0.9533                 0.6476
 IR Inten    --     37.6399                 0.1678                24.3688

                     37                     38                     39
                      A                      A                      A
 Frequencies --   1026.9181              1061.8273              1080.5967
 Red. masses --      1.7442                 1.6587                 2.1601
 Frc consts  --      1.0837                 1.1018                 1.4861
 IR Inten    --     10.3732                44.9624                 5.2076

                     40                     41                     42
                      A                      A                      A
 Frequencies --   1091.0961              1105.4750              1136.9687
 Red. masses --      1.5355                 1.6929                 1.2418
 Frc consts  --      1.0770                 1.2189                 0.9458
 IR Inten    --     12.4967                11.6918                 3.8704

                     43                     44                     45
                      A                      A                      A
 Frequencies --   1159.4436              1168.4164              1172.4700
 Red. masses --      1.9194                 1.8167                 1.7845
 Frc consts  --      1.5202                 1.4613                 1.4454
 IR Inten    --     12.4906                32.0168                27.1218

                     46                     47                     48
                      A                      A                      A
 Frequencies --   1176.7112              1178.0453              1247.8065
 Red. masses --      2.1646                 1.5158                 1.8369
 Frc consts  --      1.7659                 1.2394                 1.6851
 IR Inten    --     50.8651                22.1883                 9.0647

                     49                     50                     51
                      A                      A                      A
 Frequencies --   1253.6901              1301.8650              1320.6316
 Red. masses --      2.3438                 2.3774                 1.3487
 Frc consts  --      2.1705                 2.3740                 1.3859
 IR Inten    --      6.7354                23.7056                 3.4899

                     52                     53                     54
                      A                      A                      A
 Frequencies --   1330.0850              1355.7876              1362.6310
 Red. masses --      1.5225                 1.4643                 2.8723
 Frc consts  --      1.5869                 1.5859                 3.1422
 IR Inten    --     49.8183                16.4501                18.4979

                     55                     56                     57
                      A                      A                      A
 Frequencies --   1387.6999              1409.0038              1427.8280
 Red. masses --      1.4038                 2.7420                 1.2415
 Frc consts  --      1.5927                 3.2073                 1.4912
 IR Inten    --     35.9722                24.4363                 6.7216

                     58                     59                     60
                      A                      A                      A
 Frequencies --   1470.8839              1482.2028              1489.5360
 Red. masses --      1.1555                 1.1633                 1.4604
 Frc consts  --      1.4729                 1.5057                 1.9091
 IR Inten    --      0.6424                 2.0656               181.0285

                     61                     62                     63
                      A                      A                      A
 Frequencies --   1500.7231              1512.6300              1516.9521
 Red. masses --      1.1730                 1.0531                 1.0546
 Frc consts  --      1.5565                 1.4196                 1.4298
 IR Inten    --     16.7100                16.1834                 2.7561

                     64                     65                     66
                      A                      A                      A
 Frequencies --   1519.9451              1521.5988              1526.8557
 Red. masses --      1.0922                 1.0501                 1.0722
 Frc consts  --      1.4867                 1.4325                 1.4727
 IR Inten    --     49.5896                 9.5008                 1.6952

                     67                     68                     69
                      A                      A                      A
 Frequencies --   1530.6875              1541.7706              1554.4725
 Red. masses --      1.0983                 1.1625                 1.0490
 Frc consts  --      1.5161                 1.6281                 1.4934
 IR Inten    --      1.5127                 1.4106                 7.0686

                     70                     71                     72
                      A                      A                      A
 Frequencies --   1566.6996              1610.4191              1713.0869
 Red. masses --      2.4531                 4.7801                 5.4804
 Frc consts  --      3.5476                 7.3040                 9.4759
 IR Inten    --    332.9471               101.2209                 5.8651

                     73                     74                     75
                      A                      A                      A
 Frequencies --   2989.5805              2998.0557              2998.3566
 Red. masses --      1.0545                 1.0526                 1.0557
 Frc consts  --      5.5530                 5.5743                 5.5918
 IR Inten    --     62.8526                29.4743               150.9224

                     76                     77                     78
                      A                      A                      A
 Frequencies --   3009.6731              3048.0201              3074.3485
 Red. masses --      1.0815                 1.0351                 1.0836
 Frc consts  --      5.7718                 5.6658                 6.0342
 IR Inten    --     37.7347                30.9969                59.7440

                     79                     80                     81
                      A                      A                      A
 Frequencies --   3097.7040              3098.3898              3114.9973
 Red. masses --      1.0795                 1.0802                 1.1014
 Frc consts  --      6.1029                 6.1097                 6.2965
 IR Inten    --     14.1746                41.0546                25.8311

                     82                     83                     84
                      A                      A                      A
 Frequencies --   3116.6730              3134.1382              3139.1419
 Red. masses --      1.1021                 1.1035                 1.1036
 Frc consts  --      6.3076                 6.3864                 6.4075
 IR Inten    --     36.7595                42.5894                10.8636

                     85                     86                     87
                      A                      A                      A
 Frequencies --   3145.3767              3145.7266              3150.9906
 Red. masses --      1.0898                 1.1025                 1.0849
 Frc consts  --      6.3527                 6.4279                 6.3464
 IR Inten    --     10.9738                36.5548                32.8557

                     88                     89                     90
                      A                      A                      A
 Frequencies --   3214.1681              3244.1144              3491.9413
 Red. masses --      1.0903                 1.0938                 1.0735
 Frc consts  --      6.6363                 6.7825                 7.7121
 IR Inten    --     13.2275                12.2192                 1.3910

 - Thermochemistry -
 -------------------
 Temperature   298.150 Kelvin.  Pressure   1.00000 Atm.
 Atom     1 has atomic number  6 and mass  12.00000

 Molecular mass:   210.11907 amu.
 Principal axes and moments of inertia in atomic units:
                           1         2         3
     Eigenvalues --  1108.552647791.601808553.74856
           X            1.00000   0.00070   0.00264
           Y           -0.00073   0.99994   0.01080
           Z           -0.00264  -0.01080   0.99994
 This molecule is an asymmetric top.
 Rotational symmetry number  1.
 Warning -- assumption of classical behavior for rotation
           may cause significant error
 Rotational temperatures (Kelvin)      0.07813     0.01112     0.01013
 Rotational constants (GHZ):           1.62802     0.23163     0.21099
 Zero-point vibrational energy     725535.4 (Joules/Mol)
                                  173.40711 (Kcal/Mol)
 Warning -- explicit consideration of  25 degrees of freedom as
           vibrations may cause significant error
 Vibrational temperatures:     23.21    61.56    75.37    98.97   142.45
          (Kelvin)            175.46   225.11   250.11   262.89   294.33
                              334.88   348.26   354.85   370.29   421.94
                              444.21   532.56   558.77   593.95   647.22
                              715.64   743.07   797.16   839.90   859.41
                              988.92  1049.47  1066.67  1101.25  1183.36
                             1195.43  1240.61  1249.38  1357.66  1368.73
                             1443.27  1477.51  1527.73  1554.74  1569.84
                             1590.53  1635.84  1668.18  1681.09  1686.92
                             1693.02  1694.94  1795.32  1803.78  1873.09
                             1900.09  1913.70  1950.68  1960.52  1996.59
                             2027.24  2054.33  2116.27  2132.56  2143.11
                             2159.21  2176.34  2182.56  2186.86  2189.24
                             2196.80  2202.32  2218.26  2236.54  2254.13
                             2317.03  2464.75  4301.34  4313.53  4313.97
                             4330.25  4385.42  4423.30  4456.91  4457.89
                             4481.79  4484.20  4509.33  4516.53  4525.50
                             4526.00  4533.57  4624.47  4667.56  5024.12

 Zero-point correction=                           0.276342 (Hartree/Particle)
 Thermal correction to Energy=                    0.292572
 Thermal correction to Enthalpy=                  0.293516
 Thermal correction to Gibbs Free Energy=         0.231172
 Sum of electronic and zero-point Energies=           -937.434218
 Sum of electronic and thermal Energies=              -937.417989
 Sum of electronic and thermal Enthalpies=            -937.417044
 Sum of electronic and thermal Free Energies=         -937.479388

                     E (Thermal)             CV                S
                      KCal/Mol        Cal/Mol-Kelvin    Cal/Mol-Kelvin
 Total                  183.591             59.061            131.213
 Electronic               0.000              0.000              0.000
 Translational            0.889              2.981             41.931
 Rotational               0.889              2.981             32.669
 Vibrational            181.814             53.099             56.613
 Vibration     1          0.593              1.986              7.061
 Vibration     2          0.595              1.980              5.126
 Vibration     3          0.596              1.977              4.725
 Vibration     4          0.598              1.969              4.188
 Vibration     5          0.604              1.950              3.474
 Vibration     6          0.609              1.931              3.069
 Vibration     7          0.620              1.895              2.592
 Vibration     8          0.627              1.875              2.394
 Vibration     9          0.630              1.863              2.300
 Vibration    10          0.640              1.833              2.092
 Vibration    11          0.654              1.791              1.858
 Vibration    12          0.658              1.776              1.788
 Vibration    13          0.661              1.768              1.755
 Vibration    14          0.667              1.750              1.680
 Vibration    15          0.688              1.686              1.455
 Vibration    16          0.698              1.657              1.369
 Vibration    17          0.742              1.534              1.079
 Vibration    18          0.757              1.495              1.006
 Vibration    19          0.777              1.442              0.917
 Vibration    20          0.809              1.361              0.796
 Vibration    21          0.853              1.256              0.665
 Vibration    22          0.871              1.214              0.618
 Vibration    23          0.909              1.131              0.536
 Vibration    24          0.941              1.066              0.478
 Vibration    25          0.955              1.037              0.454

 Optimization completed.
    -- Stationary point found.
 Normal termination of Gaussian 16 at Thu Dec 10 10:54:06 2020.

 ----------------------------------------------------------------------
 # B3LYP/6-311++G(d,p) empiricaldispersion=gd3bj scf=xqc pop=npa geom=c
 heck
 ----------------------------------------------------------------------

 ---------------------------------------
 CID_103092253_JID_4832_Energie_neutraal
 ---------------------------------------
 Structure from the checkpoint file:  "JID_4832.chk"
 Charge =  0 Multiplicity = 1

 SCF Done:  E(RB3LYP) =  -937.888002742     A.U. after   15 cycles
 Normal termination of Gaussian 16 at Thu Dec 10 10:58:52 2020.

 ----------------------------------------------------------------------
 # B3LYP/6-311++G(d,p) empiricaldispersion=gd3bj scf=xqc pop=npa geom=c
 heck
 ----------------------------------------------------------------------

 -------------------------------------
 CID_103092253_JID_4832_Energie_kation
 -------------------------------------
 Structure from the checkpoint file:  "JID_4832.chk"
 Charge =  1 Multiplicity = 2

 SCF Done:  E(UB3LYP) =  -937.646452158     A.U. after   23 cycles
 Normal termination of Gaussian 16 at Thu Dec 10 11:09:31 2020.
 Gaussian 16:  ES64L-G16RevA.03 25-Dec-2016

 ----------------------------------------------------------------------
 # B3LYP/6-311++G(d,p) empiricaldispersion=gd3bj scf=xqc pop=npa geom=c
 heck
 ----------------------------------------------------------------------

 ------------------------------------
 CID_103092253_JID_4832_Energie_anion
 ------------------------------------
 Structure from the checkpoint file:  "JID_4832.chk"
 Charge = -1 Multiplicity = 2

                         Standard orientation:
 ---------------------------------------------------------------------
 Center     Atomic      Atomic             Coordinates (Angstroms)
 Number     Number       Type             X           Y           Z
 ---------------------------------------------------------------------
      1          6           0       -4.506723   -1.401421   -0.856245
      2          6           0       -3.885425   -0.449862    0.179474
      3          6           0       -2.414101   -0.775645    0.363913
      4          6           0       -1.392106   -0.036481   -0.096875
      5          6           0        0.016915   -0.370663   -0.002137
      6          6           0        0.650055   -1.522317    0.396113
      7          6           0        2.070373   -1.452054    0.385952
      8          6           0        2.549290   -0.232055   -0.049257
      9         16           0        1.217984    0.853809   -0.423576
     10          7           0        3.862059    0.158868   -0.253326
     11          6           0        4.172534    1.578241   -0.172341
     12          6           0        4.876638   -0.743732    0.264056
     13          7           0       -4.210145    0.926417   -0.186787
     14          6           0       -3.904963    1.923799    0.833583
     15          1           0       -4.058156   -1.229033   -1.842061
     16          1           0       -5.585104   -1.229612   -0.927258
     17          1           0       -4.326892   -2.448651   -0.589791
     18          1           0       -4.387867   -0.632893    1.141663
     19          1           0       -2.205408   -1.713450    0.879643
     20          1           0       -1.620259    0.906505   -0.592555
     21          1           0        0.106381   -2.411946    0.695791
     22          1           0        2.708578   -2.273548    0.684459
     23          1           0        4.043163    1.989081    0.842398
     24          1           0        5.208089    1.732275   -0.486251
     25          1           0        3.530251    2.141240   -0.856302
     26          1           0        4.848564   -0.833378    1.362964
     27          1           0        4.738181   -1.739824   -0.166762
     28          1           0        5.861675   -0.377218   -0.034787
     29          1           0       -3.754696    1.164407   -1.066021
     30          1           0       -2.855394    1.943990    1.168598
     31          1           0       -4.167461    2.916392    0.453027
     32          1           0       -4.529708    1.730870    1.713823
 ---------------------------------------------------------------------

 SCF Done:  E(UB3LYP) =  -937.878759701     A.U. after   30 cycles

 The electronic state is 2-A.
 Alpha  occ. eigenvalues --  -88.75146 -14.23051 -14.20565 -10.11518 -10.10522
 Alpha  occ. eigenvalues --  -10.09657 -10.09502 -10.09355 -10.07538 -10.06422
 Alpha  occ. eigenvalues --  -10.06091 -10.05160 -10.05109 -10.04746  -7.83816
 Alpha  occ. eigenvalues --   -5.80124  -5.79771  -5.79359  -0.84906  -0.81500
 Alpha  occ. eigenvalues --   -0.75198  -0.68348  -0.65003  -0.63138  -0.60845
 Alpha  occ. eigenvalues --   -0.59956  -0.57005  -0.54640  -0.51798  -0.47003
 Alpha  occ. eigenvalues --   -0.43348  -0.41908  -0.40123  -0.39175  -0.36538
 Alpha  occ. eigenvalues --   -0.36352  -0.35993  -0.34944  -0.33061  -0.32666
 Alpha  occ. eigenvalues --   -0.30360  -0.30064  -0.29548  -0.29258  -0.28184
 Alpha  occ. eigenvalues --   -0.27912  -0.26939  -0.26430  -0.26291  -0.24599
 Alpha  occ. eigenvalues --   -0.24469  -0.22149  -0.19720  -0.14618  -0.13883
 Alpha  occ. eigenvalues --   -0.13548  -0.07057   0.04319
 Alpha virt. eigenvalues --    0.06088   0.07010   0.07394   0.07968   0.08241
 Alpha virt. eigenvalues --    0.08756   0.09511   0.10099   0.10458   0.10863
 Alpha virt. eigenvalues --    0.11158   0.11607   0.11653   0.12247   0.12765

  Beta  occ. eigenvalues --  -88.75125 -14.23049 -14.20560 -10.11397 -10.10534
  Beta  occ. eigenvalues --  -10.09654 -10.09453 -10.09310 -10.07480 -10.06387
  Beta  occ. eigenvalues --  -10.06042 -10.05167 -10.05053 -10.04589  -7.83796
  Beta  occ. eigenvalues --   -5.80114  -5.79761  -5.79293  -0.84840  -0.81482
  Beta  occ. eigenvalues --   -0.75081  -0.68171  -0.64885  -0.63060  -0.60696
  Beta  occ. eigenvalues --   -0.59828  -0.56984  -0.54499  -0.51725  -0.46828
  Beta  occ. eigenvalues --   -0.43254  -0.41780  -0.40051  -0.39132  -0.36470
  Beta  occ. eigenvalues --   -0.36260  -0.35952  -0.34883  -0.33015  -0.32591
  Beta  occ. eigenvalues --   -0.30300  -0.30011  -0.29473  -0.29212  -0.28123
  Beta  occ. eigenvalues --   -0.27836  -0.26684  -0.26363  -0.26160  -0.24519
  Beta  occ. eigenvalues --   -0.24399  -0.22058  -0.19257  -0.14210  -0.13594
  Beta  occ. eigenvalues --   -0.13466  -0.06555
  Beta virt. eigenvalues --    0.06400   0.07028   0.07312   0.07949   0.08341
  Beta virt. eigenvalues --    0.08585   0.09073   0.10053   0.10278   0.10552
  Beta virt. eigenvalues --    0.10794   0.11165   0.11879   0.11937   0.12377

 Mulliken charges and spin densities:
               1          2
     1  C    0.023461  -0.614720
     2  C   -0.864372   0.251338
     3  C    0.635869  -0.025088
     4  C   -0.635823  -0.136103
     5  C    0.628562  -0.256439
     6  C    0.224750   0.172006
     7  C   -0.332501   0.431845
     8  C   -0.589032   0.126083
     9  S   -0.277545  -0.343892
    10  N   -0.048737   0.255546
    11  C    0.662939  -1.076074
    12  C    0.733508  -1.105233
    13  N   -0.079249   0.026379
    14  C   -0.268236  -0.042330
    15  H    0.058666   0.076913
    16  H   -0.037468   0.178414
    17  H   -0.055198   0.188435
    18  H    0.047558   0.080338
    19  H    0.208686  -0.086072
    20  H    0.082838   0.069291
    21  H   -0.081158   0.197429
    22  H    0.070432   0.060929
    23  H   -0.165260   0.323220
    24  H   -0.332233   0.461810
    25  H   -0.190388   0.326565
    26  H   -0.154998   0.301927
    27  H   -0.208518   0.349418
    28  H   -0.578225   0.721571
    29  H    0.231354  -0.001178
    30  H    0.124485   0.004370
    31  H    0.081950   0.040536
    32  H    0.083882   0.042765
 Sum of Mulliken charges =  -1.00000   1.00000

 Dipole moment (field-independent basis, Debye):
    X=             -6.4614    Y=              0.5170    Z=              0.5742  Tot=              6.5074
 Quadrupole moment (field-independent basis, Debye-Ang):
   XX=           -214.3331   YY=           -121.1289   ZZ=           -117.2340
   XY=             -8.8451   XZ=             -2.9769   YZ=             -2.8284

 Summary of Natural Population Analysis:

                                       Natural Population
                Natural  -----------------------------------------------
    Atom  No    Charge         Core      Valence    Rydberg      Total
 -----------------------------------------------------------------------
      C    1   -0.27808      0.99964     2.27344    0.00499     3.27808
      C    2   -0.02613      0.99960     2.01229    0.01424     3.02613
      C    3   -0.07131      0.99952     2.06361    0.00817     3.07131
      C    4   -0.11143      0.99948     2.10246    0.00949     3.11143
      C    5   -0.10909      0.99949     2.09770    0.01190     3.10909
      C    6   -0.09738      0.99949     2.08855    0.00935     3.09738
      C    7   -0.17840      0.99949     2.16855    0.01036     3.17840
      C    8    0.04493      0.99947     1.94089    0.01471     2.95507
      S    9    0.18050      4.99942     2.80065    0.01943     7.81950
      N   10   -0.25946      0.99965     2.74664    0.01318     3.75946
      C   11   -0.17433      0.99964     2.16574    0.00895     3.17433
      C   12   -0.17340      0.99964     2.16476    0.00900     3.17340
      N   13   -0.34113      0.99975     2.82984    0.01154     3.84113
      C   14   -0.17946      0.99966     2.17270    0.00709     3.17946
      H   15    0.09635      0.00000     0.40258    0.00107     0.40365
      H   16    0.09815      0.00000     0.39980    0.00205     0.40185
      H   17    0.09828      0.00000     0.40069    0.00103     0.40172
      H   18    0.08874      0.00000     0.40918    0.00208     0.41126
      H   19    0.09050      0.00000     0.40847    0.00103     0.40950
      H   20    0.08926      0.00000     0.40880    0.00194     0.41074
      H   21    0.10071      0.00000     0.39823    0.00106     0.39929
      H   22    0.10585      0.00000     0.39318    0.00097     0.39415
      H   23    0.08896      0.00000     0.40931    0.00173     0.41104
      H   24    0.09911      0.00000     0.39935    0.00155     0.40089
      H   25    0.09821      0.00000     0.40030    0.00148     0.40179
      H   26    0.08870      0.00000     0.40916    0.00214     0.41130
      H   27    0.09663      0.00000     0.40180    0.00157     0.40337
      H   28    0.09973      0.00000     0.39870    0.00157     0.40027
      H   29    0.16934      0.00000     0.32779    0.00287     0.33066
      H   30    0.08715      0.00000     0.41118    0.00167     0.41285
      H   31    0.08988      0.00000     0.40922    0.00089     0.41012
      H   32    0.08861      0.00000     0.41032    0.00107     0.41139
 =======================================================================
   * Total *   -0.00000     17.99393    38.82587    0.18020    57.00000

 Normal termination of Gaussian 16 at Thu Dec 10 11:22:35 2020.
