 Gaussian 16, Revision A.03,

 -----------------------------------------------------------
 # opt freq B3LYP/6-31G(d) empiricaldispersion=gd3bj scf=xqc
 -----------------------------------------------------------

 ------------------------------
 CID_24977069_JID_7804_neutraal
 ------------------------------
 Symbolic Z-matrix:
 Charge =  0 Multiplicity = 1

 SCF Done:  E(RB3LYP) =  -808.368168029     A.U. after   15 cycles
 SCF Done:  E(RB3LYP) =  -808.373714310     A.U. after   12 cycles
 SCF Done:  E(RB3LYP) =  -808.374464658     A.U. after   12 cycles
 SCF Done:  E(RB3LYP) =  -808.374277359     A.U. after   12 cycles
 SCF Done:  E(RB3LYP) =  -808.374932741     A.U. after   12 cycles
 SCF Done:  E(RB3LYP) =  -808.375440912     A.U. after   12 cycles
 SCF Done:  E(RB3LYP) =  -808.375862435     A.U. after   14 cycles
 SCF Done:  E(RB3LYP) =  -808.375735193     A.U. after   13 cycles
 SCF Done:  E(RB3LYP) =  -808.376076506     A.U. after   12 cycles
 SCF Done:  E(RB3LYP) =  -808.376080090     A.U. after   10 cycles
 SCF Done:  E(RB3LYP) =  -808.376187386     A.U. after   11 cycles
 SCF Done:  E(RB3LYP) =  -808.376193713     A.U. after   10 cycles
 SCF Done:  E(RB3LYP) =  -808.376194707     A.U. after    8 cycles
 SCF Done:  E(RB3LYP) =  -808.376195039     A.U. after    8 cycles
 SCF Done:  E(RB3LYP) =  -808.376195141     A.U. after    7 cycles
 Optimization completed.
    -- Stationary point found.
 Normal termination of Gaussian 16 at Fri Dec 11 13:11:00 2020.

 --------------------------------------------------------------------
 #N Geom=AllCheck Guess=TCheck SCRF=Check GenChk RB3LYP/6-31G(d) Freq
 --------------------------------------------------------------------

 Structure from the checkpoint file:  "JID_7804.chk"
 ------------------------------
 CID_24977069_JID_7804_neutraal
 ------------------------------
 Charge =  0 Multiplicity = 1

 SCF Done:  E(RB3LYP) =  -808.376195141     A.U. after    1 cycles

  Exact polarizability: 166.532  -8.776 137.244   4.119  -6.944 121.693
 Approx polarizability: 214.692 -14.502 190.023   3.903  -5.729 190.285

                      1                      2                      3
                      A                      A                      A
 Frequencies --     32.5103                40.3828                56.0941
 Red. masses --      3.7566                 3.2606                 3.5185
 Frc consts  --      0.0023                 0.0031                 0.0065
 IR Inten    --      0.3529                 2.9742                 1.9946

                      4                      5                      6
                      A                      A                      A
 Frequencies --     64.5568                95.2649               107.9113
 Red. masses --      3.9780                 4.2070                 3.1482
 Frc consts  --      0.0098                 0.0225                 0.0216
 IR Inten    --      0.5449                 0.6003                 0.2869

                      7                      8                      9
                      A                      A                      A
 Frequencies --    151.9817               171.7190               189.4813
 Red. masses --      3.1288                 2.9483                 3.9390
 Frc consts  --      0.0426                 0.0512                 0.0833
 IR Inten    --      1.3418                 0.8107                 1.4503

                     10                     11                     12
                      A                      A                      A
 Frequencies --    215.0738               228.8181               246.9313
 Red. masses --      1.8908                 1.2827                 1.2430
 Frc consts  --      0.0515                 0.0396                 0.0447
 IR Inten    --      1.5969                 1.4046                 2.5981

                     13                     14                     15
                      A                      A                      A
 Frequencies --    280.2527               307.1836               310.9006
 Red. masses --      2.7223                 2.6189                 3.1190
 Frc consts  --      0.1260                 0.1456                 0.1776
 IR Inten    --      0.8994                 1.0761                 1.4709

                     16                     17                     18
                      A                      A                      A
 Frequencies --    329.4228               343.0622               375.7978
 Red. masses --      2.9842                 3.4966                 4.1455
 Frc consts  --      0.1908                 0.2425                 0.3449
 IR Inten    --      0.1593                 1.4281                12.2581

                     19                     20                     21
                      A                      A                      A
 Frequencies --    384.1008               427.8832               466.1642
 Red. masses --      2.8830                 2.7400                 3.0375
 Frc consts  --      0.2506                 0.2956                 0.3889
 IR Inten    --      0.8263                 5.8354                 6.1695

                     22                     23                     24
                      A                      A                      A
 Frequencies --    482.9724               494.3510               511.3046
 Red. masses --      2.6696                 2.8844                 3.2412
 Frc consts  --      0.3669                 0.4153                 0.4992
 IR Inten    --      1.7699                 3.1433                 7.3126

                     25                     26                     27
                      A                      A                      A
 Frequencies --    643.2538               649.7355               657.6330
 Red. masses --      3.5584                 2.4497                 3.5895
 Frc consts  --      0.8675                 0.6093                 0.9146
 IR Inten    --      4.9213                 4.0278                 2.6698

                     28                     29                     30
                      A                      A                      A
 Frequencies --    703.4188               732.7162               751.8392
 Red. masses --      3.0556                 1.1831                 3.0557
 Frc consts  --      0.8908                 0.3742                 1.0177
 IR Inten    --      8.9928                 3.6223                 7.5595

                     31                     32                     33
                      A                      A                      A
 Frequencies --    762.7262               797.7835               814.9393
 Red. masses --      4.3629                 2.7606                 1.6131
 Frc consts  --      1.4954                 1.0352                 0.6312
 IR Inten    --      4.9787                 5.4266                 3.1994

                     34                     35                     36
                      A                      A                      A
 Frequencies --    860.3877               876.5773               888.9986
 Red. masses --      2.1441                 2.6670                 2.5721
 Frc consts  --      0.9352                 1.2074                 1.1977
 IR Inten    --      4.4885                 8.1292                 7.1193

                     37                     38                     39
                      A                      A                      A
 Frequencies --    918.3940               922.1395               936.2155
 Red. masses --      1.3834                 1.9146                 1.8507
 Frc consts  --      0.6875                 0.9592                 0.9557
 IR Inten    --     19.7700                 3.5750                13.4641

                     40                     41                     42
                      A                      A                      A
 Frequencies --    955.3707               959.9945               970.7542
 Red. masses --      2.1622                 2.0707                 2.5095
 Frc consts  --      1.1627                 1.1244                 1.3933
 IR Inten    --     17.4577                15.5707                 7.9980

                     43                     44                     45
                      A                      A                      A
 Frequencies --    984.1341              1024.7644              1040.8437
 Red. masses --      1.9981                 2.5075                 2.1684
 Frc consts  --      1.1402                 1.5515                 1.3841
 IR Inten    --      6.9060                12.0203                 3.5998

                     46                     47                     48
                      A                      A                      A
 Frequencies --   1049.0315              1069.1839              1085.1091
 Red. masses --      2.5783                 2.6837                 5.0820
 Frc consts  --      1.6717                 1.8076                 3.5256
 IR Inten    --     14.8629                52.4667                17.3659

                     49                     50                     51
                      A                      A                      A
 Frequencies --   1119.9176              1133.1146              1151.1781
 Red. masses --      2.5785                 1.9437                 1.9869
 Frc consts  --      1.9054                 1.4703                 1.5513
 IR Inten    --    143.0264                10.3465               157.9796

                     52                     53                     54
                      A                      A                      A
 Frequencies --   1157.5269              1168.3000              1194.6179
 Red. masses --      2.4010                 1.9812                 2.6436
 Frc consts  --      1.8954                 1.5933                 2.2228
 IR Inten    --    113.5035                35.2988                 6.2447

                     55                     56                     57
                      A                      A                      A
 Frequencies --   1205.3799              1213.9725              1228.8155
 Red. masses --      2.1240                 1.8809                 1.4734
 Frc consts  --      1.8182                 1.6331                 1.3108
 IR Inten    --     53.1080                24.5303                49.8250

                     58                     59                     60
                      A                      A                      A
 Frequencies --   1243.5189              1259.0496              1265.8161
 Red. masses --      1.3096                 1.5173                 2.1188
 Frc consts  --      1.1931                 1.4171                 2.0002
 IR Inten    --     34.7945                34.9779               145.0404

                     61                     62                     63
                      A                      A                      A
 Frequencies --   1281.7420              1315.2065              1330.2929
 Red. masses --      2.5594                 1.7420                 1.4999
 Frc consts  --      2.4773                 1.7753                 1.5639
 IR Inten    --    102.6240                30.7605                14.4343

                     64                     65                     66
                      A                      A                      A
 Frequencies --   1343.8751              1363.1252              1375.7838
 Red. masses --      1.1347                 1.4022                 1.7737
 Frc consts  --      1.2074                 1.5351                 1.9780
 IR Inten    --     13.5856                 1.2290                 6.6681

                     67                     68                     69
                      A                      A                      A
 Frequencies --   1391.9269              1401.6197              1406.4958
 Red. masses --      1.4139                 1.3389                 1.6457
 Frc consts  --      1.6140                 1.5498                 1.9181
 IR Inten    --      5.2530                 5.2075                23.6004

                     70                     71                     72
                      A                      A                      A
 Frequencies --   1418.4866              1440.2232              1443.5549
 Red. masses --      1.2710                 1.2242                 1.3125
 Frc consts  --      1.5068                 1.4961                 1.6114
 IR Inten    --      2.6746                 9.1394                12.3789

                     73                     74                     75
                      A                      A                      A
 Frequencies --   1484.7870              1500.8397              1511.1425
 Red. masses --      1.1890                 1.0892                 1.0896
 Frc consts  --      1.5443                 1.4455                 1.4660
 IR Inten    --      0.9424                 4.2291                 3.7853

                     76                     77                     78
                      A                      A                      A
 Frequencies --   1515.9553              1518.5491              1518.9247
 Red. masses --      1.0553                 1.0861                 1.0797
 Frc consts  --      1.4289                 1.4757                 1.4677
 IR Inten    --      8.1975                12.0398                 5.7397

                     79                     80                     81
                      A                      A                      A
 Frequencies --   1524.0577              1535.0872              1538.2998
 Red. masses --      1.0697                 1.0567                 1.0564
 Frc consts  --      1.4639                 1.4671                 1.4728
 IR Inten    --      8.2771                 4.7625                 5.3858

                     82                     83                     84
                      A                      A                      A
 Frequencies --   1541.2703              1550.0402              1731.3962
 Red. masses --      1.0919                 1.1040                 5.1801
 Frc consts  --      1.5283                 1.5628                 9.1491
 IR Inten    --      2.1353                 1.3856                12.1912

                     85                     86                     87
                      A                      A                      A
 Frequencies --   1809.4722              3019.9053              3029.7026
 Red. masses --     11.4820                 1.0732                 1.0659
 Frc consts  --     22.1498                 5.7665                 5.7647
 IR Inten    --    179.9330                37.2556                74.4247

                     88                     89                     90
                      A                      A                      A
 Frequencies --   3048.9328              3061.2740              3066.1438
 Red. masses --      1.0637                 1.0362                 1.0609
 Frc consts  --      5.8260                 5.7215                 5.8762
 IR Inten    --     15.7689                16.1909                16.7929

                     91                     92                     93
                      A                      A                      A
 Frequencies --   3069.0386              3076.5678              3093.0717
 Red. masses --      1.0648                 1.0425                 1.0588
 Frc consts  --      5.9090                 5.8140                 5.9681
 IR Inten    --     22.1942                25.0131                24.3637

                     94                     95                     96
                      A                      A                      A
 Frequencies --   3098.5281              3114.8670              3116.1309
 Red. masses --      1.0981                 1.0993                 1.1030
 Frc consts  --      6.2114                 6.2844                 6.3105
 IR Inten    --     31.4979                41.4901                24.6309

                     97                     98                     99
                      A                      A                      A
 Frequencies --   3127.0377              3131.0416              3139.2326
 Red. masses --      1.1018                 1.0975                 1.1047
 Frc consts  --      6.3475                 6.3389                 6.4139
 IR Inten    --     26.8538                37.1808                 7.6755

                    100                    101                    102
                      A                      A                      A
 Frequencies --   3141.1908              3147.4521              3159.0037
 Red. masses --      1.0959                 1.0971                 1.1070
 Frc consts  --      6.3710                 6.4034                 6.5088
 IR Inten    --      7.7649                19.6571                27.1977

                    103                    104                    105
                      A                      A                      A
 Frequencies --   3165.1797              3183.5567              3240.5539
 Red. masses --      1.0608                 1.1026                 1.1152
 Frc consts  --      6.2616                 6.5841                 6.9002
 IR Inten    --      9.6918                 8.8404                17.5432

 - Thermochemistry -
 -------------------
 Temperature   298.150 Kelvin.  Pressure   1.00000 Atm.
 Atom     1 has atomic number  6 and mass  12.00000

 Molecular mass:   240.13616 amu.
 Principal axes and moments of inertia in atomic units:
                           1         2         3
     Eigenvalues --  2342.360565697.388926475.67148
           X            0.99987   0.01316   0.00901
           Y           -0.01296   0.99970  -0.02096
           Z           -0.00928   0.02084   0.99974
 This molecule is an asymmetric top.
 Rotational symmetry number  1.
 Warning -- assumption of classical behavior for rotation
           may cause significant error
 Rotational temperatures (Kelvin)      0.03698     0.01520     0.01338
 Rotational constants (GHZ):           0.77048     0.31677     0.27870
 Zero-point vibrational energy     841763.3 (Joules/Mol)
                                  201.18626 (Kcal/Mol)
 Warning -- explicit consideration of  24 degrees of freedom as
           vibrations may cause significant error
 Vibrational temperatures:     46.78    58.10    80.71    92.88   137.06
          (Kelvin)            155.26   218.67   247.07   272.62   309.44
                              329.22   355.28   403.22   441.97   447.32
                              473.97   493.59   540.69   552.64   615.63
                              670.71   694.89   711.26   735.65   925.50
                              934.82   946.19  1012.06  1054.22  1081.73
                             1097.39  1147.83  1172.52  1237.91  1261.20
                             1279.07  1321.36  1326.75  1347.01  1374.57
                             1381.22  1396.70  1415.95  1474.41  1497.54
                             1509.32  1538.32  1561.23  1611.31  1630.30
                             1656.29  1665.42  1680.92  1718.79  1734.27
                             1746.64  1767.99  1789.15  1811.49  1821.23
                             1844.14  1892.29  1913.99  1933.54  1961.23
                             1979.45  2002.67  2016.62  2023.63  2040.89
                             2072.16  2076.95  2136.28  2159.37  2174.20
                             2181.12  2184.85  2185.39  2192.78  2208.65
                             2213.27  2217.54  2230.16  2491.09  2603.43
                             4344.97  4359.07  4386.73  4404.49  4411.50
                             4415.66  4426.49  4450.24  4458.09  4481.60
                             4483.42  4499.11  4504.87  4516.66  4519.47
                             4528.48  4545.10  4553.99  4580.43  4662.43

 Zero-point correction=                           0.320611 (Hartree/Particle)
 Thermal correction to Energy=                    0.337475
 Thermal correction to Enthalpy=                  0.338419
 Thermal correction to Gibbs Free Energy=         0.275562
 Sum of electronic and zero-point Energies=           -808.055584
 Sum of electronic and thermal Energies=              -808.038720
 Sum of electronic and thermal Enthalpies=            -808.037776
 Sum of electronic and thermal Free Energies=         -808.100633

                     E (Thermal)             CV                S
                      KCal/Mol        Cal/Mol-Kelvin    Cal/Mol-Kelvin
 Total                  211.769             64.662            132.295
 Electronic               0.000              0.000              0.000
 Translational            0.889              2.981             42.329
 Rotational               0.889              2.981             32.824
 Vibrational            209.991             58.701             57.141
 Vibration     1          0.594              1.983              5.670
 Vibration     2          0.594              1.981              5.240
 Vibration     3          0.596              1.975              4.590
 Vibration     4          0.597              1.971              4.313
 Vibration     5          0.603              1.953              3.549
 Vibration     6          0.606              1.943              3.306
 Vibration     7          0.619              1.900              2.647
 Vibration     8          0.626              1.877              2.417
 Vibration     9          0.633              1.854              2.233
 Vibration    10          0.645              1.818              2.000
 Vibration    11          0.651              1.797              1.888
 Vibration    12          0.661              1.768              1.752
 Vibration    13          0.680              1.710              1.532
 Vibration    14          0.697              1.660              1.377
 Vibration    15          0.700              1.653              1.358
 Vibration    16          0.712              1.617              1.263
 Vibration    17          0.722              1.589              1.198
 Vibration    18          0.747              1.522              1.056
 Vibration    19          0.753              1.504              1.023
 Vibration    20          0.789              1.410              0.866
 Vibration    21          0.824              1.325              0.748
 Vibration    22          0.839              1.288              0.702
 Vibration    23          0.850              1.263              0.672
 Vibration    24          0.866              1.225              0.630

 Optimization completed.
    -- Stationary point found.
 Normal termination of Gaussian 16 at Fri Dec 11 13:25:18 2020.

 ----------------------------------------------------------------------
 # B3LYP/6-311++G(d,p) empiricaldispersion=gd3bj scf=xqc pop=npa geom=c
 heck
 ----------------------------------------------------------------------

 --------------------------------------
 CID_24977069_JID_7804_Energie_neutraal
 --------------------------------------
 Structure from the checkpoint file:  "JID_7804.chk"
 Charge =  0 Multiplicity = 1

 SCF Done:  E(RB3LYP) =  -808.604989868     A.U. after   16 cycles
 Normal termination of Gaussian 16 at Fri Dec 11 13:31:46 2020.

 ----------------------------------------------------------------------
 # B3LYP/6-311++G(d,p) empiricaldispersion=gd3bj scf=xqc pop=npa geom=c
 heck
 ----------------------------------------------------------------------

 ------------------------------------
 CID_24977069_JID_7804_Energie_kation
 ------------------------------------
 Structure from the checkpoint file:  "JID_7804.chk"
 Charge =  1 Multiplicity = 2

 SCF Done:  E(UB3LYP) =  -808.289621768     A.U. after   26 cycles
 Normal termination of Gaussian 16 at Fri Dec 11 13:45:48 2020.
 Gaussian 16:  ES64L-G16RevA.03 25-Dec-2016

 ----------------------------------------------------------------------
 # B3LYP/6-311++G(d,p) empiricaldispersion=gd3bj scf=xqc pop=npa geom=c
 heck
 ----------------------------------------------------------------------

 -----------------------------------
 CID_24977069_JID_7804_Energie_anion
 -----------------------------------
 Structure from the checkpoint file:  "JID_7804.chk"
 Charge = -1 Multiplicity = 2

                         Standard orientation:
 ---------------------------------------------------------------------
 Center     Atomic      Atomic             Coordinates (Angstroms)
 Number     Number       Type             X           Y           Z
 ---------------------------------------------------------------------
      1          6           0       -3.864574   -2.280164   -0.294655
      2          6           0       -3.681654   -0.873210   -0.840342
      3          8           0       -2.313395   -0.431846   -0.694188
      4          6           0       -1.970196    0.078056    0.509203
      5          8           0       -2.747910    0.176338    1.434779
      6          6           0       -0.503443    0.528616    0.546239
      7          6           0        0.377189   -0.604126   -0.055339
      8          6           0        1.813392   -0.195316   -0.391204
      9          6           0        1.851077    1.060131   -1.252812
     10          6           0        1.092500    2.207068   -0.569738
     11          6           0       -0.337469    1.821526   -0.264491
     12          6           0       -1.361170    2.586808   -0.647884
     13          8           0        2.423503   -1.301032   -1.072047
     14          6           0        3.613540   -1.655946   -0.376423
     15          6           0        3.337427   -1.149648    1.034733
     16          8           0        2.603457    0.041053    0.778807
     17          6           0       -0.132491    0.799166    2.019665
     18          1           0       -3.169874   -2.975107   -0.777512
     19          1           0       -4.887032   -2.625611   -0.484818
     20          1           0       -3.690432   -2.295261    0.784395
     21          1           0       -3.864304   -0.830920   -1.916570
     22          1           0       -4.337368   -0.163115   -0.330628
     23          1           0       -0.073362   -0.957410   -0.984973
     24          1           0        0.403834   -1.454315    0.635983
     25          1           0        1.387134    0.822511   -2.216571
     26          1           0        2.896250    1.330309   -1.434758
     27          1           0        1.106850    3.101917   -1.200232
     28          1           0        1.618488    2.462318    0.359395
     29          1           0       -2.395752    2.340099   -0.430040
     30          1           0       -1.192785    3.511747   -1.193269
     31          1           0        4.488946   -1.154511   -0.813513
     32          1           0        3.747904   -2.739305   -0.443811
     33          1           0        4.231532   -0.885477    1.604529
     34          1           0        2.739001   -1.871024    1.610286
     35          1           0       -0.784181    1.570143    2.435358
     36          1           0       -0.263691   -0.111240    2.613432
     37          1           0        0.908833    1.110374    2.102799
 ---------------------------------------------------------------------

 SCF Done:  E(UB3LYP) =  -808.590499944     A.U. after   33 cycles
 SCF Done:  E(UB3LYP) =  -808.590499944     a.u. after    1 cycles

 The electronic state is 2-A.
 Alpha  occ. eigenvalues --  -19.07736 -19.04136 -19.03779 -19.02495 -10.21214
 Alpha  occ. eigenvalues --  -10.18512 -10.13901 -10.12786 -10.12603 -10.11629
 Alpha  occ. eigenvalues --  -10.10178 -10.08761 -10.08037 -10.08021 -10.07570
 Alpha  occ. eigenvalues --  -10.07565 -10.06718  -1.01985  -1.00209  -0.93321
 Alpha  occ. eigenvalues --   -0.90686  -0.76960  -0.70729  -0.69271  -0.67606
 Alpha  occ. eigenvalues --   -0.63826  -0.60953  -0.58255  -0.55953  -0.54411
 Alpha  occ. eigenvalues --   -0.53071  -0.49133  -0.47147  -0.45141  -0.42379
 Alpha  occ. eigenvalues --   -0.41125  -0.40786  -0.40089  -0.39164  -0.37773
 Alpha  occ. eigenvalues --   -0.36822  -0.36343  -0.35350  -0.33881  -0.32743
 Alpha  occ. eigenvalues --   -0.32433  -0.32070  -0.31557  -0.31240  -0.29988
 Alpha  occ. eigenvalues --   -0.29604  -0.29437  -0.27917  -0.27380  -0.26403
 Alpha  occ. eigenvalues --   -0.25953  -0.25346  -0.24701  -0.24509  -0.23552
 Alpha  occ. eigenvalues --   -0.21967  -0.19392  -0.18437  -0.17036  -0.16358
 Alpha  occ. eigenvalues --    0.04185
 Alpha virt. eigenvalues --    0.05547   0.06349   0.07561   0.07677   0.07999
 Alpha virt. eigenvalues --    0.08283   0.08526   0.08807   0.09251   0.09819
 Alpha virt. eigenvalues --    0.09962   0.10770   0.10973   0.11705   0.12076

  Beta  occ. eigenvalues --  -19.07735 -19.04131 -19.03778 -19.02490 -10.21211
  Beta  occ. eigenvalues --  -10.18512 -10.13882 -10.12752 -10.12569 -10.11628
  Beta  occ. eigenvalues --  -10.10177 -10.08753 -10.08028 -10.08010 -10.07552
  Beta  occ. eigenvalues --  -10.07536 -10.06711  -1.01977  -1.00199  -0.93313
  Beta  occ. eigenvalues --   -0.90676  -0.76949  -0.70707  -0.69250  -0.67577
  Beta  occ. eigenvalues --   -0.63792  -0.60929  -0.58213  -0.55926  -0.54340
  Beta  occ. eigenvalues --   -0.53032  -0.49107  -0.47120  -0.45126  -0.42346
  Beta  occ. eigenvalues --   -0.41087  -0.40758  -0.40066  -0.39137  -0.37739
  Beta  occ. eigenvalues --   -0.36795  -0.36312  -0.35323  -0.33856  -0.32720
  Beta  occ. eigenvalues --   -0.32413  -0.32042  -0.31533  -0.31216  -0.29963
  Beta  occ. eigenvalues --   -0.29569  -0.29413  -0.27895  -0.27358  -0.26386
  Beta  occ. eigenvalues --   -0.25929  -0.25333  -0.24679  -0.24492  -0.23534
  Beta  occ. eigenvalues --   -0.21950  -0.19383  -0.18411  -0.17009  -0.16342
  Beta virt. eigenvalues --    0.06179   0.06682   0.07011   0.07747   0.08003
  Beta virt. eigenvalues --    0.08409   0.08612   0.08818   0.09237   0.09557
  Beta virt. eigenvalues --    0.10085   0.10356   0.10978   0.11310   0.12031

 Mulliken charges and spin densities:
               1          2
     1  C    0.787894  -1.211707
     2  C   -0.234599   0.175458
     3  O    0.058246   0.020241
     4  C   -1.339588   0.381926
     5  O   -0.179984   0.016563
     6  C    1.120351   0.409749
     7  C    2.042130  -2.384747
     8  C   -2.594637   0.941560
     9  C   -0.288626   0.122707
    10  C   -0.307188  -0.005134
    11  C   -0.723116   0.615470
    12  C    0.776214  -1.027181
    13  O    0.025354   0.029462
    14  C    1.032061  -1.130936
    15  C    0.536194  -0.519009
    16  O    0.029085   0.046219
    17  C   -0.429406  -0.227646
    18  H   -0.035051   0.176324
    19  H   -0.445182   0.595473
    20  H   -0.123368   0.298467
    21  H   -0.448162   0.623846
    22  H    0.154158  -0.003998
    23  H    0.388339  -0.103316
    24  H    0.107826   0.090971
    25  H    0.087779   0.091603
    26  H   -0.151366   0.342848
    27  H   -0.029766   0.195244
    28  H    0.093517   0.094385
    29  H    0.134241   0.043351
    30  H   -0.039222   0.171162
    31  H    0.021633   0.115257
    32  H   -0.667788   0.835082
    33  H   -0.700732   0.874567
    34  H    0.001534   0.138942
    35  H    0.094182   0.081626
    36  H    0.094658   0.071876
    37  H    0.152386   0.013295
 Sum of Mulliken charges =  -1.00000   1.00000

 Dipole moment (field-independent basis, Debye):
    X=             -1.7217    Y=              4.7883    Z=             -0.1712  Tot=              5.0913
 Quadrupole moment (field-independent basis, Debye-Ang):
   XX=           -205.0910   YY=           -151.2876   ZZ=           -140.2403
   XY=             -0.2911   XZ=             -7.4342   YZ=             -2.4178

 Summary of Natural Population Analysis:

                                       Natural Population
                Natural  -----------------------------------------------
    Atom  No    Charge         Core      Valence    Rydberg      Total
 -----------------------------------------------------------------------
      C    1   -0.29957      0.99966     2.29499    0.00492     3.29957
      C    2   -0.01647      0.99957     2.00461    0.01229     3.01647
      O    3   -0.28315      0.99985     3.27424    0.00905     4.28315
      C    4    0.42356      0.99962     1.54785    0.02897     2.57644
      O    5   -0.30769      0.99987     3.30247    0.00535     4.30769
      C    6   -0.09077      0.99947     2.07903    0.01227     3.09077
      C    7   -0.20833      0.99952     2.19455    0.01426     3.20833
      C    8    0.30621      0.99951     1.67231    0.02198     2.69379
      C    9   -0.20255      0.99954     2.19235    0.01067     3.20255
      C   10   -0.20703      0.99957     2.19759    0.00986     3.20703
      C   11    0.01476      0.99950     1.97342    0.01233     2.98524
      C   12   -0.19227      0.99948     2.18537    0.00743     3.19227
      O   13   -0.30716      0.99987     3.29849    0.00880     4.30716
      C   14   -0.02095      0.99958     2.00932    0.01205     3.02095
      C   15   -0.02283      0.99959     2.01106    0.01218     3.02283
      O   16   -0.31213      0.99987     3.30292    0.00933     4.31213
      C   17   -0.28211      0.99963     2.27601    0.00647     3.28211
      H   18    0.10184      0.00000     0.39698    0.00118     0.39816
      H   19    0.10401      0.00000     0.39441    0.00159     0.39599
      H   20    0.10520      0.00000     0.39372    0.00108     0.39480
      H   21    0.09221      0.00000     0.40641    0.00138     0.40779
      H   22    0.09295      0.00000     0.40566    0.00139     0.40705
      H   23    0.11892      0.00000     0.37924    0.00185     0.38108
      H   24    0.10739      0.00000     0.39115    0.00147     0.39261
      H   25    0.10359      0.00000     0.39519    0.00122     0.39641
      H   26    0.10790      0.00000     0.39087    0.00123     0.39210
      H   27    0.10293      0.00000     0.39587    0.00120     0.39707
      H   28    0.10788      0.00000     0.39051    0.00160     0.39212
      H   29    0.09605      0.00000     0.40288    0.00107     0.40395
      H   30    0.09359      0.00000     0.40530    0.00111     0.40641
      H   31    0.08205      0.00000     0.41617    0.00178     0.41795
      H   32    0.09467      0.00000     0.40323    0.00211     0.40533
      H   33    0.09754      0.00000     0.40003    0.00243     0.40246
      H   34    0.08142      0.00000     0.41688    0.00171     0.41858
      H   35    0.10546      0.00000     0.39372    0.00082     0.39454
      H   36    0.10306      0.00000     0.39605    0.00089     0.39694
      H   37    0.10983      0.00000     0.38901    0.00115     0.39017
 =======================================================================
   * Total *    0.00000     16.99371    47.77984    0.22645    65.00000

 Normal termination of Gaussian 16 at Fri Dec 11 14:04:07 2020.
