 Gaussian 16, Revision A.03,

 -----------------------------------------------------------
 # opt freq B3LYP/6-31G(d) empiricaldispersion=gd3bj scf=xqc
 -----------------------------------------------------------

 -------------------------------
 CID_151465768_JID_2739_neutraal
 -------------------------------
 Symbolic Z-matrix:
 Charge =  0 Multiplicity = 1

 SCF Done:  E(RB3LYP) =  -553.247309107     A.U. after   16 cycles
 SCF Done:  E(RB3LYP) =  -553.249637772     A.U. after   14 cycles
 SCF Done:  E(RB3LYP) =  -553.251625424     A.U. after   14 cycles
 SCF Done:  E(RB3LYP) =  -553.251941427     A.U. after   14 cycles
 SCF Done:  E(RB3LYP) =  -553.251996174     A.U. after   13 cycles
 SCF Done:  E(RB3LYP) =  -553.252138936     A.U. after   12 cycles
 SCF Done:  E(RB3LYP) =  -553.252283737     A.U. after   15 cycles
 SCF Done:  E(RB3LYP) =  -553.252291987     A.U. after   16 cycles
 SCF Done:  E(RB3LYP) =  -553.252406751     A.U. after   15 cycles
 SCF Done:  E(RB3LYP) =  -553.252409319     A.U. after   12 cycles
 SCF Done:  E(RB3LYP) =  -553.252434414     A.U. after   12 cycles
 SCF Done:  E(RB3LYP) =  -553.252433045     A.U. after   10 cycles
 SCF Done:  E(RB3LYP) =  -553.252434015     A.U. after    9 cycles
 SCF Done:  E(RB3LYP) =  -553.252434511     A.U. after    9 cycles
 SCF Done:  E(RB3LYP) =  -553.252434017     A.U. after    9 cycles
 Optimization completed.
    -- Stationary point found.
 Normal termination of Gaussian 16 at Wed Dec  9 17:53:59 2020.

 --------------------------------------------------------------------
 #N Geom=AllCheck Guess=TCheck SCRF=Check GenChk RB3LYP/6-31G(d) Freq
 --------------------------------------------------------------------

 Structure from the checkpoint file:  "JID_2739.chk"
 -------------------------------
 CID_151465768_JID_2739_neutraal
 -------------------------------
 Charge =  0 Multiplicity = 1

 SCF Done:  E(RB3LYP) =  -553.252434017     A.U. after    1 cycles

  Exact polarizability: 123.152   4.431 125.718   4.653  15.451  82.450
 Approx polarizability: 163.601  13.509 184.806  16.221  40.618 139.931

                      1                      2                      3
                      A                      A                      A
 Frequencies --     27.1838                45.0299                49.2773
 Red. masses --      7.3625                 3.3829                 4.7454
 Frc consts  --      0.0032                 0.0040                 0.0068
 IR Inten    --      0.2707                 0.0502                 0.1174

                      4                      5                      6
                      A                      A                      A
 Frequencies --     56.2115                79.6331               122.4026
 Red. masses --      3.1482                 3.0640                 2.1429
 Frc consts  --      0.0059                 0.0114                 0.0189
 IR Inten    --      0.0112                 0.0120                 0.1193

                      7                      8                      9
                      A                      A                      A
 Frequencies --    144.3993               189.1375               204.5176
 Red. masses --      4.3751                 2.6134                 3.8116
 Frc consts  --      0.0537                 0.0551                 0.0939
 IR Inten    --      1.3726                 0.8282                 0.3321

                     10                     11                     12
                      A                      A                      A
 Frequencies --    237.1192               289.8504               298.3556
 Red. masses --      1.3735                 4.1292                 2.4988
 Frc consts  --      0.0455                 0.2044                 0.1311
 IR Inten    --      0.0636                 5.7154                 0.8223

                     13                     14                     15
                      A                      A                      A
 Frequencies --    321.2594               376.0009               396.5872
 Red. masses --      2.2883                 2.1964                 2.8149
 Frc consts  --      0.1391                 0.1830                 0.2608
 IR Inten    --      0.6202                 0.4500                 0.5256

                     16                     17                     18
                      A                      A                      A
 Frequencies --    443.8305               504.9159               518.2610
 Red. masses --      2.0053                 3.5110                 8.0342
 Frc consts  --      0.2327                 0.5274                 1.2714
 IR Inten    --      0.6836                 1.1329                 9.4794

                     19                     20                     21
                      A                      A                      A
 Frequencies --    576.9314               661.4260               677.0116
 Red. masses --      2.1593                 2.8669                 2.2545
 Frc consts  --      0.4235                 0.7390                 0.6088
 IR Inten    --      2.9490                 4.6971                 4.4196

                     22                     23                     24
                      A                      A                      A
 Frequencies --    749.5894               806.7684               847.6395
 Red. masses --      1.5633                 1.9018                 1.8710
 Frc consts  --      0.5175                 0.7293                 0.7921
 IR Inten    --      4.3672                 1.0956                 2.6490

                     25                     26                     27
                      A                      A                      A
 Frequencies --    883.8958               894.0046               920.0777
 Red. masses --      2.8210                 2.3719                 2.5325
 Frc consts  --      1.2985                 1.1169                 1.2631
 IR Inten    --      5.5596                 9.4151                36.6876

                     28                     29                     30
                      A                      A                      A
 Frequencies --    937.9791               946.4089               963.7571
 Red. masses --      1.3537                 1.6377                 2.3780
 Frc consts  --      0.7017                 0.8643                 1.3014
 IR Inten    --     34.5153                 3.9583                22.2354

                     31                     32                     33
                      A                      A                      A
 Frequencies --   1003.0270              1036.2399              1060.6955
 Red. masses --      1.7960                 1.0918                 1.8430
 Frc consts  --      1.0646                 0.6907                 1.2217
 IR Inten    --     26.0283                10.6004                 3.2213

                     34                     35                     36
                      A                      A                      A
 Frequencies --   1074.8740              1089.9120              1112.9304
 Red. masses --      2.1123                 1.7561                 1.7454
 Frc consts  --      1.4379                 1.2291                 1.2738
 IR Inten    --     21.9560                 2.0624                17.3620

                     37                     38                     39
                      A                      A                      A
 Frequencies --   1168.6582              1177.2394              1215.1496
 Red. masses --      2.0888                 2.2414                 7.4802
 Frc consts  --      1.6808                 1.8302                 6.5076
 IR Inten    --      3.8543                 0.4903                42.3428

                     40                     41                     42
                      A                      A                      A
 Frequencies --   1238.6535              1275.2494              1299.2887
 Red. masses --      1.4077                 1.3020                 1.2806
 Frc consts  --      1.2725                 1.2476                 1.2738
 IR Inten    --      4.1792                 7.0010                 2.4394

                     43                     44                     45
                      A                      A                      A
 Frequencies --   1308.1631              1341.1107              1367.8419
 Red. masses --      1.2324                 1.2127                 1.2435
 Frc consts  --      1.2425                 1.2851                 1.3708
 IR Inten    --      1.9838                 0.1046                 2.4344

                     46                     47                     48
                      A                      A                      A
 Frequencies --   1374.8088              1392.8286              1400.4188
 Red. masses --      1.3284                 1.3975                 1.4196
 Frc consts  --      1.4793                 1.5974                 1.6403
 IR Inten    --      6.5797                 2.0278                10.6603

                     49                     50                     51
                      A                      A                      A
 Frequencies --   1408.1459              1433.7437              1446.4131
 Red. masses --      1.4259                 1.3853                 1.2665
 Frc consts  --      1.6659                 1.6777                 1.5611
 IR Inten    --     11.1335                 9.2813                 4.2483

                     52                     53                     54
                      A                      A                      A
 Frequencies --   1478.0284              1500.9600              1511.1399
 Red. masses --      1.1868                 1.0844                 1.1063
 Frc consts  --      1.5276                 1.4393                 1.4884
 IR Inten    --      1.0772                 5.3287                11.3987

                     55                     56                     57
                      A                      A                      A
 Frequencies --   1524.9837              1528.1041              1538.2214
 Red. masses --      1.0555                 1.0626                 1.0683
 Frc consts  --      1.4463                 1.4619                 1.4894
 IR Inten    --      0.5998                 3.7635                 6.1970

                     58                     59                     60
                      A                      A                      A
 Frequencies --   1539.7775              1734.9652              2194.8576
 Red. masses --      1.0754                 4.4595                13.9841
 Frc consts  --      1.5022                 7.9090                39.6914
 IR Inten    --      7.0076                 6.3870               378.5871

                     61                     62                     63
                      A                      A                      A
 Frequencies --   3031.3149              3042.6484              3045.1897
 Red. masses --      1.0634                 1.0605                 1.0590
 Frc consts  --      5.7570                 5.7842                 5.7862
 IR Inten    --     25.3031                15.5208                17.7710

                     64                     65                     66
                      A                      A                      A
 Frequencies --   3049.4987              3051.8651              3060.4233
 Red. masses --      1.0490                 1.0653                 1.0764
 Frc consts  --      5.7473                 5.8457                 5.9402
 IR Inten    --      6.3886                11.1078                44.8086

                     67                     68                     69
                      A                      A                      A
 Frequencies --   3073.2896              3075.7689              3093.2565
 Red. masses --      1.0988                 1.0953                 1.1029
 Frc consts  --      6.1149                 6.1048                 6.2177
 IR Inten    --     10.2258                47.5926                46.6601

                     70                     71                     72
                      A                      A                      A
 Frequencies --   3100.7392              3114.0512              3118.0616
 Red. masses --      1.1010                 1.1025                 1.1018
 Frc consts  --      6.2370                 6.2989                 6.3112
 IR Inten    --     29.6553                51.7009                43.7150

                     73                     74                     75
                      A                      A                      A
 Frequencies --   3152.5921              3182.6904              3234.6350
 Red. masses --      1.0598                 1.0909                 1.1147
 Frc consts  --      6.2058                 6.5105                 6.8718
 IR Inten    --     14.4270                 7.2121                21.7615

 - Thermochemistry -
 -------------------
 Temperature   298.150 Kelvin.  Pressure   1.00000 Atm.
 Atom     1 has atomic number  6 and mass  12.00000

 Molecular mass:   169.12151 amu.
 Principal axes and moments of inertia in atomic units:
                           1         2         3
     Eigenvalues --  2362.195182392.297494219.61958
           X            0.36690   0.93026  -0.00118
           Y            0.93026  -0.36690   0.00133
           Z           -0.00081   0.00158   1.00000
 This molecule is an asymmetric top.
 Rotational symmetry number  1.
 Warning -- assumption of classical behavior for rotation
           may cause significant error
 Rotational temperatures (Kelvin)      0.03667     0.03621     0.02053
 Rotational constants (GHZ):           0.76401     0.75440     0.42770
 Zero-point vibrational energy     606338.7 (Joules/Mol)
                                  144.91843 (Kcal/Mol)
 Warning -- explicit consideration of  19 degrees of freedom as
           vibrations may cause significant error
 Vibrational temperatures:     39.11    64.79    70.90    80.88   114.57
          (Kelvin)            176.11   207.76   272.13   294.26   341.16
                              417.03   429.27   462.22   540.98   570.60
                              638.57   726.46   745.66   830.08   951.64
                              974.07  1078.49  1160.76  1219.56  1271.73
                             1286.27  1323.79  1349.54  1361.67  1386.63
                             1443.13  1490.92  1526.10  1546.50  1568.14
                             1601.26  1681.44  1693.78  1748.33  1782.15
                             1834.80  1869.39  1882.15  1929.56  1968.02
                             1978.04  2003.97  2014.89  2026.01  2062.84
                             2081.07  2126.55  2159.55  2174.19  2194.11
                             2198.60  2213.16  2215.40  2496.23  3157.91
                             4361.39  4377.69  4381.35  4387.55  4390.95
                             4403.27  4421.78  4425.35  4450.51  4461.27
                             4480.43  4486.20  4535.88  4579.18  4653.92

 Zero-point correction=                           0.230942 (Hartree/Particle)
 Thermal correction to Energy=                    0.244845
 Thermal correction to Enthalpy=                  0.245789
 Thermal correction to Gibbs Free Energy=         0.188311
 Sum of electronic and zero-point Energies=           -553.021492
 Sum of electronic and thermal Energies=              -553.007589
 Sum of electronic and thermal Enthalpies=            -553.006645
 Sum of electronic and thermal Free Energies=         -553.064123

                     E (Thermal)             CV                S
                      KCal/Mol        Cal/Mol-Kelvin    Cal/Mol-Kelvin
 Total                  153.642             49.164            120.972
 Electronic               0.000              0.000              0.000
 Translational            0.889              2.981             41.284
 Rotational               0.889              2.981             31.545
 Vibrational            151.865             43.202             48.143
 Vibration     1          0.593              1.984              6.025
 Vibration     2          0.595              1.979              5.025
 Vibration     3          0.595              1.978              4.846
 Vibration     4          0.596              1.975              4.586
 Vibration     5          0.600              1.963              3.900
 Vibration     6          0.610              1.930              3.062
 Vibration     7          0.616              1.909              2.745
 Vibration     8          0.633              1.855              2.236
 Vibration     9          0.640              1.833              2.092
 Vibration    10          0.656              1.784              1.824
 Vibration    11          0.686              1.693              1.475
 Vibration    12          0.691              1.677              1.426
 Vibration    13          0.707              1.633              1.304
 Vibration    14          0.747              1.521              1.055
 Vibration    15          0.763              1.477              0.975
 Vibration    16          0.803              1.375              0.815
 Vibration    17          0.860              1.239              0.646
 Vibration    18          0.873              1.210              0.614
 Vibration    19          0.933              1.081              0.491

                           ! Non-Optimized Parameters !
 Normal termination of Gaussian 16 at Wed Dec  9 17:59:56 2020.

 ----------------------------------------------------------------------
 # B3LYP/6-311++G(d,p) empiricaldispersion=gd3bj scf=xqc pop=npa geom=c
 heck
 ----------------------------------------------------------------------

 ---------------------------------------
 CID_151465768_JID_2739_Energie_neutraal
 ---------------------------------------
 Structure from the checkpoint file:  "JID_2739.chk"
 Charge =  0 Multiplicity = 1

 SCF Done:  E(RB3LYP) =  -553.410494737     A.U. after   15 cycles
 Normal termination of Gaussian 16 at Wed Dec  9 18:02:15 2020.

 ----------------------------------------------------------------------
 # B3LYP/6-311++G(d,p) empiricaldispersion=gd3bj scf=xqc pop=npa geom=c
 heck
 ----------------------------------------------------------------------

 -------------------------------------
 CID_151465768_JID_2739_Energie_kation
 -------------------------------------
 Structure from the checkpoint file:  "JID_2739.chk"
 Charge =  1 Multiplicity = 2

 SCF Done:  E(UB3LYP) =  -553.088427380     A.U. after   31 cycles
 Normal termination of Gaussian 16 at Wed Dec  9 18:12:48 2020.
 Gaussian 16:  ES64L-G16RevA.03 25-Dec-2016

 ----------------------------------------------------------------------
 # B3LYP/6-311++G(d,p) empiricaldispersion=gd3bj scf=xqc pop=npa geom=c
 heck
 ----------------------------------------------------------------------

 ------------------------------------
 CID_151465768_JID_2739_Energie_anion
 ------------------------------------
 Structure from the checkpoint file:  "JID_2739.chk"
 Charge = -1 Multiplicity = 2

                         Standard orientation:
 ---------------------------------------------------------------------
 Center     Atomic      Atomic             Coordinates (Angstroms)
 Number     Number       Type             X           Y           Z
 ---------------------------------------------------------------------
      1          6           0        3.518203    0.991936    0.158158
      2          6           0        2.401739    1.094258   -0.886662
      3          6           0        1.290438    0.046841   -0.720662
      4          6           0        0.555002    0.101606    0.619788
      5          6           0       -0.130732    1.433296    0.941401
      6          6           0       -1.046613    2.033069   -0.145142
      7          6           0       -2.298408    1.243426   -0.416123
      8          6           0       -3.533868    1.709329   -0.234648
      9          8           0       -0.491074   -0.900975    0.665636
     10          7           0        0.123944   -2.200610    0.783454
     11          7           0       -0.429314   -2.956090   -0.046074
     12          7           0       -0.874480   -3.764895   -0.719515
     13          1           0        3.156381    1.215100    1.168200
     14          1           0        4.326977    1.696799   -0.062572
     15          1           0        3.948262   -0.016716    0.176800
     16          1           0        1.970102    2.103280   -0.865022
     17          1           0        2.834537    0.973798   -1.887585
     18          1           0        0.556255    0.153876   -1.528357
     19          1           0        1.725185   -0.955108   -0.822559
     20          1           0        1.251535   -0.130127    1.434706
     21          1           0       -0.701283    1.302294    1.867557
     22          1           0        0.666443    2.154727    1.160401
     23          1           0       -1.324198    3.047244    0.167303
     24          1           0       -0.472941    2.145952   -1.075822
     25          1           0       -2.157143    0.223463   -0.767310
     26          1           0       -4.411257    1.102339   -0.440493
     27          1           0       -3.715870    2.719474    0.127961
 ---------------------------------------------------------------------

 SCF Done:  E(UB3LYP) =  -553.417934650     A.U. after   33 cycles
 SCF Done:  E(UB3LYP) =  -553.417934650     a.u. after    1 cycles

 The electronic state is 2-A.
 Alpha  occ. eigenvalues --  -19.00286 -14.26969 -14.22080 -14.18858 -10.09515
 Alpha  occ. eigenvalues --  -10.06777 -10.06743 -10.06348 -10.05849 -10.05800
 Alpha  occ. eigenvalues --  -10.05675 -10.04882  -0.97244  -0.90073  -0.76213
 Alpha  occ. eigenvalues --   -0.70018  -0.68322  -0.63716  -0.59192  -0.55053
 Alpha  occ. eigenvalues --   -0.49989  -0.46079  -0.43380  -0.42030  -0.38245
 Alpha  occ. eigenvalues --   -0.35562  -0.34354  -0.33985  -0.33575  -0.32680
 Alpha  occ. eigenvalues --   -0.31302  -0.30684  -0.29051  -0.28076  -0.26989
 Alpha  occ. eigenvalues --   -0.26763  -0.25548  -0.24024  -0.23670  -0.22597
 Alpha  occ. eigenvalues --   -0.22240  -0.21225  -0.17981  -0.15838  -0.14016
 Alpha  occ. eigenvalues --   -0.07251   0.04756
 Alpha virt. eigenvalues --    0.06639   0.07847   0.08793   0.09075   0.10086
 Alpha virt. eigenvalues --    0.10440   0.10692   0.11625   0.12262   0.12754
 Alpha virt. eigenvalues --    0.13154   0.13768   0.14320   0.15583   0.15947

  Beta  occ. eigenvalues --  -18.99976 -14.26526 -14.22088 -14.18082 -10.09500
  Beta  occ. eigenvalues --  -10.06772 -10.06736 -10.06337 -10.05835 -10.05782
  Beta  occ. eigenvalues --  -10.05651 -10.04880  -0.96377  -0.89270  -0.75624
  Beta  occ. eigenvalues --   -0.69895  -0.68283  -0.63611  -0.59131  -0.54948
  Beta  occ. eigenvalues --   -0.49915  -0.45892  -0.43191  -0.41625  -0.38162
  Beta  occ. eigenvalues --   -0.35343  -0.34147  -0.33566  -0.32705  -0.32428
  Beta  occ. eigenvalues --   -0.30987  -0.30423  -0.28798  -0.26928  -0.26626
  Beta  occ. eigenvalues --   -0.26234  -0.25486  -0.23929  -0.23413  -0.22286
  Beta  occ. eigenvalues --   -0.22119  -0.21078  -0.17054  -0.15727  -0.13574
  Beta  occ. eigenvalues --   -0.06937
  Beta virt. eigenvalues --    0.07072   0.07965   0.08868   0.09195   0.10096
  Beta virt. eigenvalues --    0.10571   0.10730   0.11533   0.12359   0.12576
  Beta virt. eigenvalues --    0.13009   0.13388   0.13837   0.14353   0.15603

 Mulliken charges and spin densities:
               1          2
     1  C    0.397981  -0.995319
     2  C   -0.670951   0.360969
     3  C    0.040968  -0.094234
     4  C   -0.192050  -0.050621
     5  C   -0.004700  -0.498369
     6  C   -0.281401  -0.027241
     7  C    0.263685   0.074537
     8  C   -0.518974  -0.193001
     9  O    0.045760   0.020443
    10  N   -0.657225   0.213254
    11  N    0.474601   0.005550
    12  N   -0.256746   0.371690
    13  H   -0.038576   0.174850
    14  H   -0.326355   0.459981
    15  H    0.069153   0.068402
    16  H   -0.048013   0.178835
    17  H    0.040290   0.096614
    18  H    0.150026   0.005146
    19  H    0.116467   0.051321
    20  H    0.049916   0.155692
    21  H    0.163445   0.009085
    22  H   -0.205899   0.361686
    23  H   -0.071894   0.227325
    24  H    0.078569   0.027799
    25  H    0.185472  -0.006579
    26  H    0.110947  -0.003798
    27  H    0.085504   0.005982
 Sum of Mulliken charges =  -1.00000   1.00000

 Dipole moment (field-independent basis, Debye):
    X=             -0.7495    Y=              4.4543    Z=             -0.9074  Tot=              4.6071
 Quadrupole moment (field-independent basis, Debye-Ang):
   XX=           -109.0164   YY=           -129.4762   ZZ=            -90.9415
   XY=            -12.6800   XZ=             -3.6442   YZ=             -3.6529

 Summary of Natural Population Analysis:

                                       Natural Population
                Natural  -----------------------------------------------
    Atom  No    Charge         Core      Valence    Rydberg      Total
 -----------------------------------------------------------------------
      C    1   -0.28783      0.99967     2.28298    0.00519     3.28783
      C    2   -0.19192      0.99964     2.18382    0.00846     3.19192
      C    3   -0.20611      0.99960     2.19676    0.00975     3.20611
      C    4    0.06482      0.99954     1.91964    0.01600     2.93518
      C    5   -0.19587      0.99959     2.18640    0.00988     3.19587
      C    6   -0.21160      0.99961     2.20133    0.01066     3.21160
      C    7   -0.07281      0.99956     2.06251    0.01073     3.07281
      C    8   -0.20651      0.99957     2.20080    0.00615     3.20651
      O    9   -0.21623      0.99989     3.20678    0.00956     4.21623
      N   10   -0.10119      0.99973     2.58615    0.01531     3.60119
      N   11    0.12605      0.99972     2.35805    0.01618     3.37395
      N   12    0.04898      0.99982     2.43800    0.01320     3.45102
      H   13    0.09789      0.00000     0.40106    0.00105     0.40211
      H   14    0.09677      0.00000     0.40221    0.00102     0.40323
      H   15    0.09594      0.00000     0.40311    0.00095     0.40406
      H   16    0.09272      0.00000     0.40601    0.00127     0.40728
      H   17    0.09231      0.00000     0.40680    0.00089     0.40769
      H   18    0.09733      0.00000     0.40149    0.00118     0.40267
      H   19    0.10633      0.00000     0.39223    0.00144     0.39367
      H   20    0.08886      0.00000     0.40917    0.00197     0.41114
      H   21    0.10347      0.00000     0.39524    0.00129     0.39653
      H   22    0.10208      0.00000     0.39649    0.00143     0.39792
      H   23    0.09610      0.00000     0.40266    0.00124     0.40390
      H   24    0.10051      0.00000     0.39823    0.00125     0.39949
      H   25    0.10526      0.00000     0.39335    0.00139     0.39474
      H   26    0.09047      0.00000     0.40859    0.00094     0.40953
      H   27    0.08417      0.00000     0.41463    0.00120     0.41583
 =======================================================================
   * Total *   -0.00000     11.99594    33.85449    0.14958    46.00000

 Normal termination of Gaussian 16 at Wed Dec  9 18:22:03 2020.
