 Gaussian 16, Revision A.03,

 -----------------------------------------------------------
 # opt freq B3LYP/6-31G(d) empiricaldispersion=gd3bj scf=xqc
 -----------------------------------------------------------

 ----------------------------
 CID_21907087_JID_29_neutraal
 ----------------------------
 Symbolic Z-matrix:
 Charge =  0 Multiplicity = 1

 SCF Done:  E(RB3LYP) =  -453.831117294     A.U. after   16 cycles
 SCF Done:  E(RB3LYP) =  -453.839627894     A.U. after   14 cycles
 SCF Done:  E(RB3LYP) =  -453.840202415     A.U. after   13 cycles
 SCF Done:  E(RB3LYP) =  -453.840298419     A.U. after   11 cycles
 SCF Done:  E(RB3LYP) =  -453.840314090     A.U. after   10 cycles
 SCF Done:  E(RB3LYP) =  -453.840317707     A.U. after   10 cycles
 SCF Done:  E(RB3LYP) =  -453.840318977     A.U. after    9 cycles
 Optimization completed.
    -- Stationary point found.
 Normal termination of Gaussian 16 at Tue Dec  8 10:13:11 2020.

 --------------------------------------------------------------------
 #N Geom=AllCheck Guess=TCheck SCRF=Check GenChk RB3LYP/6-31G(d) Freq
 --------------------------------------------------------------------

 Structure from the checkpoint file:  "JID_29.chk"
 ----------------------------
 CID_21907087_JID_29_neutraal
 ----------------------------
 Charge =  0 Multiplicity = 1

 SCF Done:  E(RB3LYP) =  -453.840318977     A.U. after    1 cycles

  Exact polarizability: 138.628   4.930  80.890   0.000  -0.000  30.654
 Approx polarizability: 270.878  13.327 146.463   0.000  -0.000  48.876

                      1                      2                      3
                      A                      A                      A
 Frequencies --    114.6779               198.2712               243.6771
 Red. masses --      7.6727                 4.9249                 5.2735
 Frc consts  --      0.0595                 0.1141                 0.1845
 IR Inten    --      0.1622                 0.1827                 2.4520

                      4                      5                      6
                      A                      A                      A
 Frequencies --    342.3154               463.4234               488.7187
 Red. masses --      7.8622                 3.5849                 2.9556
 Frc consts  --      0.5428                 0.4536                 0.4159
 IR Inten    --      0.3859                 0.0666                 0.7406

                      7                      8                      9
                      A                      A                      A
 Frequencies --    509.5297               566.3609               573.2380
 Red. masses --      9.6863                 7.0081                 5.0273
 Frc consts  --      1.4817                 1.3244                 0.9733
 IR Inten    --      0.0341                 4.7550                 8.7417

                     10                     11                     12
                      A                      A                      A
 Frequencies --    665.3378               698.0695               786.5863
 Red. masses --      8.1127                 1.7978                 2.7134
 Frc consts  --      2.1159                 0.5162                 0.9892
 IR Inten    --      1.7779                 7.4174                23.2625

                     13                     14                     15
                      A                      A                      A
 Frequencies --    797.2306               802.6671               853.1992
 Red. masses --      3.4293                 6.5130                 1.8204
 Frc consts  --      1.2842                 2.4723                 0.7808
 IR Inten    --      3.6793                 0.9225                45.2690

                     16                     17                     18
                      A                      A                      A
 Frequencies --    866.1232               941.8180               981.6109
 Red. masses --      5.4271                 6.8133                 3.1794
 Frc consts  --      2.3987                 3.5608                 1.8050
 IR Inten    --      8.2277                13.7298                12.3468

                     19                     20                     21
                      A                      A                      A
 Frequencies --    988.4198              1003.0418              1007.5789
 Red. masses --      1.4255                 1.3614                 7.1887
 Frc consts  --      0.8205                 0.8070                 4.2999
 IR Inten    --      0.1317                 0.0471                 8.1952

                     22                     23                     24
                      A                      A                      A
 Frequencies --   1165.4928              1179.6090              1245.5083
 Red. masses --      1.6241                 1.2223                 3.1040
 Frc consts  --      1.2998                 1.0021                 2.8371
 IR Inten    --      2.9778                 9.5948                38.1106

                     25                     26                     27
                      A                      A                      A
 Frequencies --   1327.2116              1419.3538              1450.7695
 Red. masses --      3.1108                 1.5533                 1.7438
 Frc consts  --      3.2285                 1.8437                 2.1624
 IR Inten    --     18.3852                 6.1058                42.1037

                     28                     29                     30
                      A                      A                      A
 Frequencies --   1558.1498              1602.6647              1670.1681
 Red. masses --      9.9172                 9.7652                 5.9332
 Frc consts  --     14.1859                14.7780                 9.7512
 IR Inten    --    164.2361                66.1690                 2.3262

                     31                     32                     33
                      A                      A                      A
 Frequencies --   1711.4535              1839.5534              3155.2533
 Red. masses --      8.0304                12.6793                 1.0900
 Frc consts  --     13.8585                25.2795                 6.3934
 IR Inten    --     68.8471               133.5411                29.9484

                     34                     35                     36
                      A                      A                      A
 Frequencies --   3202.2602              3223.4101              3268.2638
 Red. masses --      1.0885                 1.0975                 1.0980
 Frc consts  --      6.5765                 6.7186                 6.9103
 IR Inten    --      2.4391                12.6864                 0.2387

 - Thermochemistry -
 -------------------
 Temperature   298.150 Kelvin.  Pressure   1.00000 Atm.
 Atom     1 has atomic number  6 and mass  12.00000

 Molecular mass:   132.03236 amu.
 Principal axes and moments of inertia in atomic units:
                           1         2         3
     Eigenvalues --   482.884661637.610922120.49558
           X            1.00000   0.00201  -0.00000
           Y           -0.00201   1.00000   0.00000
           Z            0.00000  -0.00000   1.00000
 This molecule is an asymmetric top.
 Rotational symmetry number  1.
 Warning -- assumption of classical behavior for rotation
           may cause significant error
 Rotational temperatures (Kelvin)      0.17937     0.05289     0.04085
 Rotational constants (GHZ):           3.73742     1.10206     0.85109
 Zero-point vibrational energy     256664.9 (Joules/Mol)
                                   61.34438 (Kcal/Mol)
 Warning -- explicit consideration of   9 degrees of freedom as
           vibrations may cause significant error
 Vibrational temperatures:    165.00   285.27   350.60   492.52   666.76
          (Kelvin)            703.16   733.10   814.87   824.76   957.27
                             1004.37  1131.72  1147.04  1154.86  1227.56
                             1246.16  1355.07  1412.32  1422.12  1443.15
                             1449.68  1676.88  1697.19  1792.01  1909.56
                             2042.13  2087.33  2241.83  2305.88  2403.00
                             2462.40  2646.71  4539.71  4607.34  4637.77
                             4702.30

 Zero-point correction=                           0.097758 (Hartree/Particle)
 Thermal correction to Energy=                    0.104673
 Thermal correction to Enthalpy=                  0.105617
 Thermal correction to Gibbs Free Energy=         0.066092
 Sum of electronic and zero-point Energies=           -453.742560
 Sum of electronic and thermal Energies=              -453.735646
 Sum of electronic and thermal Enthalpies=            -453.734702
 Sum of electronic and thermal Free Energies=         -453.774227

                     E (Thermal)             CV                S
                      KCal/Mol        Cal/Mol-Kelvin    Cal/Mol-Kelvin
 Total                   65.683             27.088             83.187
 Electronic               0.000              0.000              0.000
 Translational            0.889              2.981             40.546
 Rotational               0.889              2.981             28.907
 Vibrational             63.906             21.126             13.733
 Vibration     1          0.608              1.937              3.188
 Vibration     2          0.637              1.842              2.149
 Vibration     3          0.659              1.773              1.776
 Vibration     4          0.721              1.591              1.201
 Vibration     5          0.821              1.331              0.756
 Vibration     6          0.845              1.275              0.687
 Vibration     7          0.865              1.229              0.635
 Vibration     8          0.922              1.104              0.511
 Vibration     9          0.929              1.089              0.498

 Optimization completed.
    -- Stationary point found.
 Normal termination of Gaussian 16 at Tue Dec  8 10:15:35 2020.

 ----------------------------------------------------------------------
 # B3LYP/6-311++G(d,p) empiricaldispersion=gd3bj scf=xqc pop=npa geom=c
 heck
 ----------------------------------------------------------------------

 ------------------------------------
 CID_21907087_JID_29_Energie_neutraal
 ------------------------------------
 Structure from the checkpoint file:  "JID_29.chk"
 Charge =  0 Multiplicity = 1

 SCF Done:  E(RB3LYP) =  -453.959760526     A.U. after   16 cycles
 Normal termination of Gaussian 16 at Tue Dec  8 10:16:09 2020.

 ----------------------------------------------------------------------
 # B3LYP/6-311++G(d,p) empiricaldispersion=gd3bj scf=xqc pop=npa geom=c
 heck
 ----------------------------------------------------------------------

 ----------------------------------
 CID_21907087_JID_29_Energie_kation
 ----------------------------------
 Structure from the checkpoint file:  "JID_29.chk"
 Charge =  1 Multiplicity = 2

 SCF Done:  E(UB3LYP) =  -453.621848969     A.U. after   23 cycles
 Normal termination of Gaussian 16 at Tue Dec  8 10:17:18 2020.
 Gaussian 16:  ES64L-G16RevA.03 25-Dec-2016

 ----------------------------------------------------------------------
 # B3LYP/6-311++G(d,p) empiricaldispersion=gd3bj scf=xqc pop=npa geom=c
 heck
 ----------------------------------------------------------------------

 ---------------------------------
 CID_21907087_JID_29_Energie_anion
 ---------------------------------
 Structure from the checkpoint file:  "JID_29.chk"
 Charge = -1 Multiplicity = 2

                         Standard orientation:
 ---------------------------------------------------------------------
 Center     Atomic      Atomic             Coordinates (Angstroms)
 Number     Number       Type             X           Y           Z
 ---------------------------------------------------------------------
      1          6           0       -2.482184    0.617260    0.000001
      2          6           0       -1.403097    1.434274    0.000000
      3          6           0       -0.108677    0.803176   -0.000001
      4          6           0        1.166278    1.231011    0.000001
      5          6           0        2.015037   -0.033782   -0.000009
      6          8           0        3.222594   -0.068769    0.000004
      7          7           0        1.161432   -1.192437    0.000003
      8          6           0       -0.040676   -0.709369   -0.000001
      9          7           0       -1.187161   -1.491857    0.000000
     10          6           0       -2.308219   -0.838401   -0.000004
     11          1           0       -3.494227    1.008768    0.000005
     12          1           0       -1.494030    2.516636    0.000002
     13          1           0        1.572402    2.233799    0.000005
     14          1           0       -3.215570   -1.444005    0.000011
 ---------------------------------------------------------------------

 SCF Done:  E(UB3LYP) =  -454.051582063     A.U. after   23 cycles

 The electronic state is 2-A.
 Alpha  occ. eigenvalues --  -18.94316 -14.15700 -14.12288 -10.09915 -10.07661
 Alpha  occ. eigenvalues --  -10.06968 -10.04925 -10.04036 -10.03534 -10.02099
 Alpha  occ. eigenvalues --   -0.88748  -0.80995  -0.74833  -0.67296  -0.60558
 Alpha  occ. eigenvalues --   -0.55371  -0.46140  -0.44944  -0.40512  -0.35918
 Alpha  occ. eigenvalues --   -0.33694  -0.32874  -0.28685  -0.27957  -0.26421
 Alpha  occ. eigenvalues --   -0.25634  -0.24753  -0.24147  -0.17605  -0.16761
 Alpha  occ. eigenvalues --   -0.14002  -0.10619  -0.09403  -0.08419  -0.02323
 Alpha virt. eigenvalues --    0.08626   0.10190   0.11410   0.11791   0.13032
 Alpha virt. eigenvalues --    0.14676   0.15798   0.15948   0.17600   0.18244
 Alpha virt. eigenvalues --    0.18929   0.18983   0.19839   0.19950   0.21208

  Beta  occ. eigenvalues --  -18.93742 -14.15677 -14.12201 -10.09902 -10.07513
  Beta  occ. eigenvalues --  -10.06694 -10.04705 -10.04011 -10.03592 -10.01687
  Beta  occ. eigenvalues --   -0.87818  -0.80619  -0.74470  -0.66905  -0.60095
  Beta  occ. eigenvalues --   -0.54509  -0.45719  -0.44424  -0.40170  -0.35680
  Beta  occ. eigenvalues --   -0.33498  -0.32463  -0.27658  -0.27403  -0.26185
  Beta  occ. eigenvalues --   -0.25376  -0.24389  -0.22293  -0.16533  -0.14600
  Beta  occ. eigenvalues --   -0.13780  -0.10439  -0.08982  -0.07111
  Beta virt. eigenvalues --    0.04007   0.08616   0.10193   0.11406   0.13037
  Beta virt. eigenvalues --    0.13316   0.15744   0.15978   0.16280   0.17636
  Beta virt. eigenvalues --    0.18247   0.18927   0.19441   0.19975   0.20039

 Mulliken charges and spin densities:
               1          2
     1  C   -0.022736   0.055504
     2  C   -0.413353   0.139090
     3  C    0.900571  -0.085098
     4  C   -0.263967   0.389457
     5  C    0.007284   0.012108
     6  O   -0.398054   0.205705
     7  N   -0.249031   0.050684
     8  C   -0.759930   0.090029
     9  N   -0.079945   0.007171
    10  C   -0.209348   0.187449
    11  H    0.119864  -0.001660
    12  H    0.111056  -0.013890
    13  H    0.119985  -0.018786
    14  H    0.137605  -0.017762
 Sum of Mulliken charges =  -1.00000   1.00000

 Dipole moment (field-independent basis, Debye):
    X=             -5.2727    Y=              4.3452    Z=             -0.0000  Tot=              6.8324
 Quadrupole moment (field-independent basis, Debye-Ang):
   XX=            -87.2874   YY=            -70.4646   ZZ=            -62.4362
   XY=              2.2109   XZ=             -0.0001   YZ=              0.0000

 Summary of Natural Population Analysis:

                                       Natural Population
                Natural  -----------------------------------------------
    Atom  No    Charge         Core      Valence    Rydberg      Total
 -----------------------------------------------------------------------
      C    1   -0.14372      0.99956     2.13472    0.00944     3.14372
      C    2   -0.02983      0.99952     2.02151    0.00879     3.02983
      C    3   -0.08891      0.99948     2.08040    0.00903     3.08891
      C    4   -0.01318      0.99944     2.00508    0.00866     3.01318
      C    5    0.31388      0.99971     1.66124    0.02517     2.68612
      O    6   -0.20752      0.99986     3.20014    0.00752     4.20752
      N    7   -0.27972      0.99966     2.76585    0.01420     3.77972
      C    8    0.24151      0.99954     1.73950    0.01945     2.75849
      N    9   -0.24867      0.99968     2.73574    0.01325     3.74867
      C   10    0.11552      0.99964     1.86957    0.01527     2.88448
      H   11    0.09054      0.00000     0.40817    0.00129     0.40946
      H   12    0.08866      0.00000     0.40950    0.00184     0.41134
      H   13    0.08980      0.00000     0.40899    0.00121     0.41020
      H   14    0.07163      0.00000     0.42669    0.00168     0.42837
 =======================================================================
   * Total *    0.00000      9.99609    23.86710    0.13680    34.00000

 Normal termination of Gaussian 16 at Tue Dec  8 10:18:25 2020.
