 Gaussian 16, Revision A.03,

 -----------------------------------------------------------
 # opt freq B3LYP/6-31G(d) empiricaldispersion=gd3bj scf=xqc
 -----------------------------------------------------------

 ------------------------------
 CID_123450674_JID_169_neutraal
 ------------------------------
 Symbolic Z-matrix:
 Charge =  0 Multiplicity = 1

 SCF Done:  E(RB3LYP) =  -442.616836629     A.U. after   14 cycles
 SCF Done:  E(RB3LYP) =  -442.620991374     A.U. after   13 cycles
 SCF Done:  E(RB3LYP) =  -442.621845423     A.U. after   13 cycles
 SCF Done:  E(RB3LYP) =  -442.620695657     A.U. after   13 cycles
 SCF Done:  E(RB3LYP) =  -442.622278020     A.U. after   13 cycles
 SCF Done:  E(RB3LYP) =  -442.622458371     A.U. after   11 cycles
 SCF Done:  E(RB3LYP) =  -442.622482417     A.U. after   10 cycles
 SCF Done:  E(RB3LYP) =  -442.622493381     A.U. after    9 cycles
 SCF Done:  E(RB3LYP) =  -442.622494697     A.U. after    9 cycles
 SCF Done:  E(RB3LYP) =  -442.622494942     A.U. after    8 cycles
 Optimization completed.
    -- Stationary point found.
 Normal termination of Gaussian 16 at Tue Dec  8 10:18:49 2020.

 --------------------------------------------------------------------
 #N Geom=AllCheck Guess=TCheck SCRF=Check GenChk RB3LYP/6-31G(d) Freq
 --------------------------------------------------------------------

 Structure from the checkpoint file:  "JID_169.chk"
 ------------------------------
 CID_123450674_JID_169_neutraal
 ------------------------------
 Charge =  0 Multiplicity = 1

 SCF Done:  E(RB3LYP) =  -442.622494942     A.U. after    1 cycles

  Exact polarizability: 152.594 -26.228 106.124  -0.897   0.148  58.662
 Approx polarizability: 235.890 -63.496 167.454  -2.596   0.349  82.633

                      1                      2                      3
                      A                      A                      A
 Frequencies --     61.1285               131.2081               161.7393
 Red. masses --      3.0272                 3.2522                 2.3272
 Frc consts  --      0.0067                 0.0330                 0.0359
 IR Inten    --      2.3449                 2.0604                 2.9504

                      4                      5                      6
                      A                      A                      A
 Frequencies --    172.9372               192.0450               210.9119
 Red. masses --      2.7817                 1.3534                 1.6535
 Frc consts  --      0.0490                 0.0294                 0.0433
 IR Inten    --      1.8455                 0.7660                 1.9249

                      7                      8                      9
                      A                      A                      A
 Frequencies --    242.6710               245.4198               301.1834
 Red. masses --      1.8605                 1.7245                 2.1481
 Frc consts  --      0.0646                 0.0612                 0.1148
 IR Inten    --      5.0942                 0.5140                 9.0275

                     10                     11                     12
                      A                      A                      A
 Frequencies --    309.8835               370.2989               392.0678
 Red. masses --      2.5460                 3.7826                 1.2006
 Frc consts  --      0.1440                 0.3056                 0.1087
 IR Inten    --      0.8607                 2.3424               107.3674

                     13                     14                     15
                      A                      A                      A
 Frequencies --    396.6114               434.4895               439.8930
 Red. masses --      2.7248                 2.3169                 3.3239
 Frc consts  --      0.2525                 0.2577                 0.3790
 IR Inten    --      1.0213                13.8564                 3.5810

                     16                     17                     18
                      A                      A                      A
 Frequencies --    516.7350               542.7327               612.6244
 Red. masses --      2.0143                 3.6101                 2.7752
 Frc consts  --      0.3169                 0.6265                 0.6137
 IR Inten    --     10.2153                 9.7588                 6.2400

                     19                     20                     21
                      A                      A                      A
 Frequencies --    704.3935               770.8169               781.0255
 Red. masses --      1.2737                 3.2277                 2.7362
 Frc consts  --      0.3724                 1.1299                 0.9834
 IR Inten    --      1.5287                 1.3083                 1.0668

                     22                     23                     24
                      A                      A                      A
 Frequencies --    880.2122               928.8439               946.6681
 Red. masses --      2.6818                 1.3545                 1.5313
 Frc consts  --      1.2242                 0.6885                 0.8085
 IR Inten    --      5.7363                36.1849                 2.0876

                     25                     26                     27
                      A                      A                      A
 Frequencies --    961.5685               970.9281              1009.5194
 Red. masses --      1.4410                 2.3970                 1.6710
 Frc consts  --      0.7850                 1.3313                 1.0033
 IR Inten    --      3.0085                17.7883                12.6679

                     28                     29                     30
                      A                      A                      A
 Frequencies --   1024.6587              1035.5280              1065.8858
 Red. masses --      1.3825                 1.2950                 1.1207
 Frc consts  --      0.8552                 0.8182                 0.7502
 IR Inten    --     18.9819                 3.6792                11.3332

                     31                     32                     33
                      A                      A                      A
 Frequencies --   1102.3267              1130.0284              1191.3654
 Red. masses --      2.2816                 1.7517                 1.9056
 Frc consts  --      1.6335                 1.3179                 1.5936
 IR Inten    --      1.9872                34.1007                27.5602

                     34                     35                     36
                      A                      A                      A
 Frequencies --   1222.1474              1257.5997              1298.7267
 Red. masses --      2.3814                 2.3003                 2.2171
 Frc consts  --      2.0957                 2.1435                 2.2033
 IR Inten    --     18.4447                25.1848                28.4815

                     37                     38                     39
                      A                      A                      A
 Frequencies --   1360.3901              1375.1905              1386.1179
 Red. masses --      1.2835                 1.5728                 1.5783
 Frc consts  --      1.3995                 1.7525                 1.7867
 IR Inten    --      2.2517                56.5194                 1.2205

                     40                     41                     42
                      A                      A                      A
 Frequencies --   1425.8259              1445.7154              1483.3070
 Red. masses --      1.2772                 1.2732                 1.2527
 Frc consts  --      1.5298                 1.5679                 1.6239
 IR Inten    --     12.7843                 5.3054                 1.4649

                     43                     44                     45
                      A                      A                      A
 Frequencies --   1511.8418              1512.6284              1515.5133
 Red. masses --      1.0555                 1.2230                 1.0616
 Frc consts  --      1.4214                 1.6487                 1.4366
 IR Inten    --      1.2027                 4.7163                 1.4577

                     46                     47                     48
                      A                      A                      A
 Frequencies --   1525.8010              1538.9236              1647.7690
 Red. masses --      1.0592                 1.0696                 5.6331
 Frc consts  --      1.4528                 1.4925                 9.0114
 IR Inten    --      8.2210                 3.8727                 0.5408

                     49                     50                     51
                      A                      A                      A
 Frequencies --   1693.9372              1712.2467              3030.3642
 Red. masses --      4.1556                 4.6880                 1.0647
 Frc consts  --      7.0255                 8.0978                 5.7605
 IR Inten    --     11.3800                 0.9508                49.8046

                     52                     53                     54
                      A                      A                      A
 Frequencies --   3052.7502              3072.2049              3121.3359
 Red. masses --      1.0436                 1.0368                 1.0976
 Frc consts  --      5.7300                 5.7655                 6.3006
 IR Inten    --     24.4333                17.6668                25.7773

                     55                     56                     57
                      A                      A                      A
 Frequencies --   3136.4594              3141.2605              3167.3249
 Red. masses --      1.0872                 1.1029                 1.0995
 Frc consts  --      6.3012                 6.4121                 6.4986
 IR Inten    --     12.0273                23.8639                 8.2204

                     58                     59                     60
                      A                      A                      A
 Frequencies --   3171.6681              3181.1400              3181.4189
 Red. masses --      1.0911                 1.0911                 1.0795
 Frc consts  --      6.4670                 6.5056                 6.4372
 IR Inten    --     10.9339                15.5871                24.3094

                     61                     62                     63
                      A                      A                      A
 Frequencies --   3197.3382              3258.2189              3719.1212
 Red. masses --      1.0900                 1.1130                 1.0658
 Frc consts  --      6.5652                 6.9612                 8.6854
 IR Inten    --      7.6090                19.6110                 7.4253

 - Thermochemistry -
 -------------------
 Temperature   298.150 Kelvin.  Pressure   1.00000 Atm.
 Atom     1 has atomic number  6 and mass  12.00000

 Molecular mass:   139.09971 amu.
 Principal axes and moments of inertia in atomic units:
                           1         2         3
     Eigenvalues --  1008.497431890.090892497.64151
           X            0.99967  -0.02550   0.00091
           Y            0.02550   0.99967   0.00433
           Z           -0.00102  -0.00431   0.99999
 This molecule is an asymmetric top.
 Rotational symmetry number  1.
 Warning -- assumption of classical behavior for rotation
           may cause significant error
 Rotational temperatures (Kelvin)      0.08588     0.04583     0.03468
 Rotational constants (GHZ):           1.78953     0.95484     0.72258
 Zero-point vibrational energy     517879.2 (Joules/Mol)
                                  123.77609 (Kcal/Mol)
 Warning -- explicit consideration of  18 degrees of freedom as
           vibrations may cause significant error
 Vibrational temperatures:     87.95   188.78   232.71   248.82   276.31
          (Kelvin)            303.46   349.15   353.10   433.34   445.85
                              532.78   564.10   570.64   625.13   632.91
                              743.47   780.87   881.43  1013.47  1109.03
                             1123.72  1266.43  1336.40  1362.04  1383.48
                             1396.95  1452.47  1474.26  1489.89  1533.57
                             1586.00  1625.86  1714.11  1758.40  1809.41
                             1868.58  1957.30  1978.59  1994.31  2051.45
                             2080.06  2134.15  2175.20  2176.33  2180.49
                             2195.29  2214.17  2370.77  2437.20  2463.54
                             4360.02  4392.23  4420.22  4490.91  4512.67
                             4519.57  4557.07  4563.32  4576.95  4577.35
                             4600.26  4687.85  5350.99

 Zero-point correction=                           0.197250 (Hartree/Particle)
 Thermal correction to Energy=                    0.208634
 Thermal correction to Enthalpy=                  0.209578
 Thermal correction to Gibbs Free Energy=         0.161146
 Sum of electronic and zero-point Energies=           -442.425245
 Sum of electronic and thermal Energies=              -442.413861
 Sum of electronic and thermal Enthalpies=            -442.412916
 Sum of electronic and thermal Free Energies=         -442.461349

                     E (Thermal)             CV                S
                      KCal/Mol        Cal/Mol-Kelvin    Cal/Mol-Kelvin
 Total                  130.920             42.984            101.934
 Electronic               0.000              0.000              0.000
 Translational            0.889              2.981             40.702
 Rotational               0.889              2.981             29.944
 Vibrational            129.143             37.022             31.289
 Vibration     1          0.597              1.973              4.420
 Vibration     2          0.612              1.922              2.928
 Vibration     3          0.622              1.889              2.529
 Vibration     4          0.626              1.876              2.403
 Vibration     5          0.634              1.851              2.208
 Vibration     6          0.643              1.824              2.036
 Vibration     7          0.659              1.775              1.783
 Vibration     8          0.660              1.770              1.763
 Vibration     9          0.693              1.671              1.410
 Vibration    10          0.699              1.655              1.363
 Vibration    11          0.742              1.533              1.079
 Vibration    12          0.760              1.487              0.992
 Vibration    13          0.763              1.477              0.975
 Vibration    14          0.795              1.395              0.844
 Vibration    15          0.800              1.383              0.827
 Vibration    16          0.872              1.213              0.618
 Vibration    17          0.898              1.156              0.559
 Vibration    18          0.972              1.005              0.428

                           ! Non-Optimized Parameters !
 Normal termination of Gaussian 16 at Tue Dec  8 10:22:46 2020.

 ----------------------------------------------------------------------
 # B3LYP/6-311++G(d,p) empiricaldispersion=gd3bj scf=xqc pop=npa geom=c
 heck
 ----------------------------------------------------------------------

 --------------------------------------
 CID_123450674_JID_169_Energie_neutraal
 --------------------------------------
 Structure from the checkpoint file:  "JID_169.chk"
 Charge =  0 Multiplicity = 1

 SCF Done:  E(RB3LYP) =  -442.757032116     A.U. after   16 cycles
 Normal termination of Gaussian 16 at Tue Dec  8 10:24:35 2020.

 ----------------------------------------------------------------------
 # B3LYP/6-311++G(d,p) empiricaldispersion=gd3bj scf=xqc pop=npa geom=c
 heck
 ----------------------------------------------------------------------

 ------------------------------------
 CID_123450674_JID_169_Energie_kation
 ------------------------------------
 Structure from the checkpoint file:  "JID_169.chk"
 Charge =  1 Multiplicity = 2

 SCF Done:  E(UB3LYP) =  -442.457595309     A.U. after   23 cycles
 Normal termination of Gaussian 16 at Tue Dec  8 10:28:16 2020.
 Gaussian 16:  ES64L-G16RevA.03 25-Dec-2016

 ----------------------------------------------------------------------
 # B3LYP/6-311++G(d,p) empiricaldispersion=gd3bj scf=xqc pop=npa geom=c
 heck
 ----------------------------------------------------------------------

 -----------------------------------
 CID_123450674_JID_169_Energie_anion
 -----------------------------------
 Structure from the checkpoint file:  "JID_169.chk"
 Charge = -1 Multiplicity = 2

                         Standard orientation:
 ---------------------------------------------------------------------
 Center     Atomic      Atomic             Coordinates (Angstroms)
 Number     Number       Type             X           Y           Z
 ---------------------------------------------------------------------
      1          6           0       -1.873803   -0.463091    1.352409
      2          6           0       -1.161131   -0.615083    0.003187
      3          6           0       -2.086299   -0.280806   -1.179553
      4          6           0        0.124854    0.223445   -0.030889
      5          6           0        1.320542   -0.419623   -0.007513
      6          7           0        2.536948    0.261929   -0.047343
      7          6           0        3.608483   -0.427380    0.038879
      8          6           0        0.114413    1.687816   -0.066976
      9          6           0       -0.917953    2.536877    0.052891
     10          8           0       -0.859616   -2.018289   -0.069074
     11          1           0       -2.131114    0.576941    1.559918
     12          1           0       -1.217543   -0.822431    2.150156
     13          1           0       -2.786916   -1.066516    1.353458
     14          1           0       -2.443055    0.749509   -1.166277
     15          1           0       -1.553331   -0.427904   -2.127422
     16          1           0       -2.947804   -0.955309   -1.155306
     17          1           0        1.343530   -1.507699    0.068091
     18          1           0        3.617174   -1.521752    0.149205
     19          1           0        4.572983    0.078519    0.004482
     20          1           0        1.108318    2.111414   -0.180580
     21          1           0       -0.744899    3.608606    0.021785
     22          1           0       -1.947531    2.229597    0.196366
     23          1           0       -0.526160   -2.193089   -0.964502
 ---------------------------------------------------------------------

 SCF Done:  E(UB3LYP) =  -442.761985095     A.U. after   26 cycles

 The electronic state is 2-A.
 Alpha  occ. eigenvalues --  -18.99420 -14.12805 -10.09957 -10.03656 -10.03126
 Alpha  occ. eigenvalues --  -10.01183 -10.01120 -10.00546  -9.99639  -9.99331
 Alpha  occ. eigenvalues --   -0.89858  -0.74802  -0.66477  -0.61393  -0.57140
 Alpha  occ. eigenvalues --   -0.56692  -0.48198  -0.44421  -0.42187  -0.38802
 Alpha  occ. eigenvalues --   -0.34242  -0.32864  -0.32622  -0.30237  -0.28890
 Alpha  occ. eigenvalues --   -0.27534  -0.26482  -0.25598  -0.24438  -0.23430
 Alpha  occ. eigenvalues --   -0.21797  -0.21130  -0.20043  -0.18612  -0.14631
 Alpha  occ. eigenvalues --   -0.14035  -0.08505  -0.06601   0.05658
 Alpha virt. eigenvalues --    0.08781   0.10519   0.10719   0.10892   0.11649
 Alpha virt. eigenvalues --    0.12730   0.12981   0.13480   0.13975   0.14884
 Alpha virt. eigenvalues --    0.15667   0.15794   0.17337   0.18095   0.18532

  Beta  occ. eigenvalues --  -18.99422 -14.12722 -10.09975 -10.03639 -10.03110
  Beta  occ. eigenvalues --  -10.00889 -10.00643 -10.00523  -9.99375  -9.99070
  Beta  occ. eigenvalues --   -0.89858  -0.74213  -0.66225  -0.61075  -0.56983
  Beta  occ. eigenvalues --   -0.56310  -0.47533  -0.43917  -0.41749  -0.38467
  Beta  occ. eigenvalues --   -0.34055  -0.32706  -0.32475  -0.30059  -0.28730
  Beta  occ. eigenvalues --   -0.27420  -0.26353  -0.25341  -0.24398  -0.23272
  Beta  occ. eigenvalues --   -0.21691  -0.20713  -0.18754  -0.18240  -0.14550
  Beta  occ. eigenvalues --   -0.12530  -0.08364  -0.04385
  Beta virt. eigenvalues --    0.08740   0.10497   0.10685   0.10860   0.11592
  Beta virt. eigenvalues --    0.11869   0.12649   0.12905   0.13554   0.14441
  Beta virt. eigenvalues --    0.14977   0.15655   0.16191   0.17396   0.18136

 Mulliken charges and spin densities:
               1          2
     1  C   -0.541782   0.014189
     2  C    0.140073  -0.058436
     3  C   -0.630905   0.001585
     4  C    1.265005   0.208641
     5  C   -1.291545   0.130612
     6  N   -0.029547  -0.009510
     7  C   -0.387368   0.558870
     8  C    0.027153  -0.090238
     9  C   -0.811084   0.318335
    10  O   -0.218375  -0.000162
    11  H    0.119260   0.003539
    12  H    0.169304  -0.000202
    13  H    0.109914   0.002950
    14  H    0.127812   0.002240
    15  H    0.127410  -0.001140
    16  H    0.121205   0.006431
    17  H    0.029100  -0.009669
    18  H   -0.006175  -0.027165
    19  H    0.113026  -0.024773
    20  H    0.204571  -0.004647
    21  H    0.094210  -0.012438
    22  H    0.047091  -0.011046
    23  H    0.221645   0.002034
 Sum of Mulliken charges =  -1.00000   1.00000

 Dipole moment (field-independent basis, Debye):
    X=             -4.9766    Y=             -2.1649    Z=             -0.8648  Tot=              5.4956
 Quadrupole moment (field-independent basis, Debye-Ang):
   XX=            -96.4950   YY=            -82.2286   ZZ=            -72.4861
   XY=              0.5187   XZ=              0.5995   YZ=              2.6203

 Summary of Natural Population Analysis:

                                       Natural Population
                Natural  -----------------------------------------------
    Atom  No    Charge         Core      Valence    Rydberg      Total
 -----------------------------------------------------------------------
      C    1   -0.28431      0.99962     2.27897    0.00572     3.28431
      C    2    0.12407      0.99953     1.86271    0.01369     2.87593
      C    3   -0.29133      0.99963     2.28645    0.00525     3.29133
      C    4   -0.02294      0.99943     2.00825    0.01527     3.02294
      C    5    0.03882      0.99945     1.94881    0.01292     2.96118
      N    6   -0.24468      0.99968     2.73147    0.01354     3.74468
      C    7    0.07663      0.99968     1.90856    0.01514     2.92337
      C    8   -0.09705      0.99955     2.08695    0.01055     3.09705
      C    9   -0.17318      0.99960     2.16523    0.00835     3.17318
      O   10   -0.37962      0.99989     3.37279    0.00694     4.37962
      H   11    0.10303      0.00000     0.39610    0.00087     0.39697
      H   12    0.10364      0.00000     0.39548    0.00088     0.39636
      H   13    0.09004      0.00000     0.40896    0.00100     0.40996
      H   14    0.10635      0.00000     0.39266    0.00099     0.39365
      H   15    0.09608      0.00000     0.40301    0.00091     0.40392
      H   16    0.09122      0.00000     0.40780    0.00098     0.40878
      H   17    0.07030      0.00000     0.42710    0.00260     0.42970
      H   18    0.04551      0.00000     0.45109    0.00339     0.45449
      H   19    0.06246      0.00000     0.43626    0.00128     0.43754
      H   20    0.10491      0.00000     0.39271    0.00239     0.39509
      H   21    0.08135      0.00000     0.41751    0.00114     0.41865
      H   22    0.07401      0.00000     0.42486    0.00113     0.42599
      H   23    0.22469      0.00000     0.27271    0.00259     0.27531
 =======================================================================
   * Total *    0.00000      9.99605    27.87643    0.12753    38.00000

 Normal termination of Gaussian 16 at Tue Dec  8 10:33:23 2020.
