 Gaussian 16, Revision A.03,

 -----------------------------------------------------------
 # opt freq B3LYP/6-31G(d) empiricaldispersion=gd3bj scf=xqc
 -----------------------------------------------------------

 ------------------------------
 CID_61389404_JID_7573_neutraal
 ------------------------------
 Symbolic Z-matrix:
 Charge =  0 Multiplicity = 1

 SCF Done:  E(RB3LYP) =  -1146.20852067     A.U. after   15 cycles
 SCF Done:  E(RB3LYP) =  -1146.21429520     A.U. after   13 cycles
 SCF Done:  E(RB3LYP) =  -1146.21442626     A.U. after   12 cycles
 SCF Done:  E(RB3LYP) =  -1146.21446122     A.U. after   13 cycles
 SCF Done:  E(RB3LYP) =  -1146.21519592     A.U. after   12 cycles
 SCF Done:  E(RB3LYP) =  -1146.21530280     A.U. after   12 cycles
 SCF Done:  E(RB3LYP) =  -1146.21537128     A.U. after   12 cycles
 SCF Done:  E(RB3LYP) =  -1146.21546189     A.U. after   11 cycles
 SCF Done:  E(RB3LYP) =  -1146.21554642     A.U. after   11 cycles
 SCF Done:  E(RB3LYP) =  -1146.21562672     A.U. after   12 cycles
 SCF Done:  E(RB3LYP) =  -1146.21634834     A.U. after    8 cycles
 SCF Done:  E(RB3LYP) =  -1146.21634876     A.U. after    8 cycles
 SCF Done:  E(RB3LYP) =  -1146.21634899     A.U. after    8 cycles
 SCF Done:  E(RB3LYP) =  -1146.21634903     A.U. after    6 cycles
 SCF Done:  E(RB3LYP) =  -1146.21634903     A.U. after    6 cycles
 Optimization completed.
    -- Stationary point found.
 Normal termination of Gaussian 16 at Mon Dec 14 16:55:18 2020.

 --------------------------------------------------------------------
 #N Geom=AllCheck Guess=TCheck SCRF=Check GenChk RB3LYP/6-31G(d) Freq
 --------------------------------------------------------------------

 Structure from the checkpoint file:  "JID_7573.chk"
 ------------------------------
 CID_61389404_JID_7573_neutraal
 ------------------------------
 Charge =  0 Multiplicity = 1

 SCF Done:  E(RB3LYP) =  -1146.21634903     A.U. after    1 cycles

  Exact polarizability: 158.312 -17.698 137.297   1.969   1.324 154.561
 Approx polarizability: 221.340 -40.384 205.641   1.785  -1.833 274.368

                      1                      2                      3
                      A                      A                      A
 Frequencies --     18.6369                27.0441                41.2452
 Red. masses --      3.6885                 4.0783                 3.9457
 Frc consts  --      0.0008                 0.0018                 0.0040
 IR Inten    --      0.0904                 0.1565                 0.7288

                      4                      5                      6
                      A                      A                      A
 Frequencies --     55.6404                64.4166                78.0889
 Red. masses --      9.1396                 3.9602                 4.0471
 Frc consts  --      0.0167                 0.0097                 0.0145
 IR Inten    --      0.3007                 0.3633                 0.8237

                      7                      8                      9
                      A                      A                      A
 Frequencies --     93.0837               116.0582               136.3701
 Red. masses --      4.4143                 3.2396                 3.6598
 Frc consts  --      0.0225                 0.0257                 0.0401
 IR Inten    --      2.5500                 0.5563                 0.1681

                     10                     11                     12
                      A                      A                      A
 Frequencies --    163.9122               170.8155               205.6045
 Red. masses --      2.7730                 2.8553                 3.3021
 Frc consts  --      0.0439                 0.0491                 0.0822
 IR Inten    --      0.1821                 0.5648                 0.8408

                     13                     14                     15
                      A                      A                      A
 Frequencies --    224.6455               244.0747               252.1393
 Red. masses --      1.4946                 2.5234                 2.2483
 Frc consts  --      0.0444                 0.0886                 0.0842
 IR Inten    --      0.6278                 0.3980                 1.3132

                     16                     17                     18
                      A                      A                      A
 Frequencies --    298.2270               326.2263               340.9157
 Red. masses --      2.5740                 1.9518                 4.6905
 Frc consts  --      0.1349                 0.1224                 0.3212
 IR Inten    --      3.9383                 1.0395                 2.3053

                     19                     20                     21
                      A                      A                      A
 Frequencies --    381.7092               400.5929               426.8724
 Red. masses --      5.0624                 4.0967                 2.9747
 Frc consts  --      0.4346                 0.3873                 0.3194
 IR Inten    --      1.8368                 1.5774                 2.9142

                     22                     23                     24
                      A                      A                      A
 Frequencies --    451.8123               499.6271               541.5340
 Red. masses --      5.1827                 4.6027                 5.2001
 Frc consts  --      0.6233                 0.6769                 0.8985
 IR Inten    --      3.5878                 2.1086                 1.8202

                     25                     26                     27
                      A                      A                      A
 Frequencies --    565.3313               615.6515               637.6321
 Red. masses --      3.9321                 1.9477                 1.7179
 Frc consts  --      0.7404                 0.4350                 0.4115
 IR Inten    --     22.8313                75.6169                72.1420

                     28                     29                     30
                      A                      A                      A
 Frequencies --    664.8032               686.2035               698.8536
 Red. masses --      2.3789                 3.3762                 2.5408
 Frc consts  --      0.6195                 0.9367                 0.7311
 IR Inten    --      8.2243                 6.3312                32.1880

                     31                     32                     33
                      A                      A                      A
 Frequencies --    714.0186               744.8097               759.0742
 Red. masses --      2.0141                 1.7624                 2.2617
 Frc consts  --      0.6050                 0.5760                 0.7678
 IR Inten    --     47.9151                11.7000                69.5675

                     34                     35                     36
                      A                      A                      A
 Frequencies --    774.1928               780.2055               814.5293
 Red. masses --      3.1169                 2.4520                 1.3529
 Frc consts  --      1.1007                 0.8794                 0.5288
 IR Inten    --     42.3285                11.1729                 1.9034

                     37                     38                     39
                      A                      A                      A
 Frequencies --    846.3044               849.6255               890.5587
 Red. masses --      3.4133                 1.7048                 2.6955
 Frc consts  --      1.4404                 0.7250                 1.2595
 IR Inten    --     13.8194                 3.8698                 0.3556

                     40                     41                     42
                      A                      A                      A
 Frequencies --    892.0091               932.9143               962.6165
 Red. masses --      1.2944                 3.1697                 1.7700
 Frc consts  --      0.6068                 1.6254                 0.9664
 IR Inten    --      1.2088                 9.0266                 0.7511

                     43                     44                     45
                      A                      A                      A
 Frequencies --    988.8636              1019.0008              1064.4522
 Red. masses --      1.9970                 2.2650                 3.5495
 Frc consts  --      1.1505                 1.3857                 2.3696
 IR Inten    --      2.6235                 0.7041                 4.2511

                     46                     47                     48
                      A                      A                      A
 Frequencies --   1078.4469              1089.2514              1109.0752
 Red. masses --      2.5666                 1.9905                 1.3844
 Frc consts  --      1.7588                 1.3915                 1.0033
 IR Inten    --      0.4272                 7.9291                 2.8513

                     49                     50                     51
                      A                      A                      A
 Frequencies --   1121.0393              1135.5045              1144.8888
 Red. masses --      1.9167                 1.6117                 1.6561
 Frc consts  --      1.4192                 1.2244                 1.2790
 IR Inten    --      1.0804                 8.6884                 4.3787

                     52                     53                     54
                      A                      A                      A
 Frequencies --   1167.7586              1197.3773              1253.3503
 Red. masses --      2.8061                 2.8121                 1.4304
 Frc consts  --      2.2546                 2.3754                 1.3239
 IR Inten    --    191.5817                64.3407                 5.6414

                     55                     56                     57
                      A                      A                      A
 Frequencies --   1256.5340              1304.6625              1312.5648
 Red. masses --      1.7558                 1.2254                 1.3387
 Frc consts  --      1.6334                 1.2289                 1.3588
 IR Inten    --     10.7417                 7.5922                 4.8839

                     58                     59                     60
                      A                      A                      A
 Frequencies --   1315.6616              1358.3825              1370.7898
 Red. masses --      1.2479                 1.6688                 1.9398
 Frc consts  --      1.2727                 1.8142                 2.1476
 IR Inten    --      2.7196                56.2945               120.9525

                     61                     62                     63
                      A                      A                      A
 Frequencies --   1380.3222              1396.9573              1399.6312
 Red. masses --      1.5824                 1.5729                 1.2976
 Frc consts  --      1.7764                 1.8085                 1.4977
 IR Inten    --     72.0311                10.0043                 8.3654

                     64                     65                     66
                      A                      A                      A
 Frequencies --   1415.3983              1422.5873              1440.5115
 Red. masses --      1.8154                 2.6763                 1.2927
 Frc consts  --      2.1428                 3.1912                 1.5805
 IR Inten    --     69.4186                15.7202                 0.9322

                     67                     68                     69
                      A                      A                      A
 Frequencies --   1446.7545              1489.0463              1495.9947
 Red. masses --      1.2576                 5.2059                 1.5707
 Frc consts  --      1.5509                 6.8009                 2.0712
 IR Inten    --      5.0576                66.4709                 4.5106

                     70                     71                     72
                      A                      A                      A
 Frequencies --   1515.2975              1520.6434              1521.3192
 Red. masses --      1.1036                 1.0714                 1.0805
 Frc consts  --      1.4930                 1.4596                 1.4734
 IR Inten    --      4.7705                 5.3200                 1.0191

                     73                     74                     75
                      A                      A                      A
 Frequencies --   1527.4519              1531.6459              1536.7074
 Red. masses --      1.0430                 1.0701                 1.0830
 Frc consts  --      1.4338                 1.4791                 1.5068
 IR Inten    --      7.2973                 9.3749                 1.6924

                     76                     77                     78
                      A                      A                      A
 Frequencies --   1542.1386              1600.3731              1766.6848
 Red. masses --      1.0552                 6.4392                 9.4855
 Frc consts  --      1.4785                 9.7168                17.4433
 IR Inten    --     11.3347                13.3563               382.9909

                     79                     80                     81
                      A                      A                      A
 Frequencies --   1847.2879              3028.5781              3048.2360
 Red. masses --      9.4976                 1.0699                 1.0484
 Frc consts  --     19.0955                 5.7821                 5.7396
 IR Inten    --    235.5003                27.2797                12.8550

                     82                     83                     84
                      A                      A                      A
 Frequencies --   3050.1338              3055.3641              3059.0293
 Red. masses --      1.0510                 1.0347                 1.0611
 Frc consts  --      5.7609                 5.6912                 5.8505
 IR Inten    --     20.8506                33.2135                25.8486

                     85                     86                     87
                      A                      A                      A
 Frequencies --   3084.3484              3104.8536              3107.3124
 Red. masses --      1.1013                 1.1014                 1.0947
 Frc consts  --      6.1726                 6.2559                 6.2274
 IR Inten    --      5.8848                12.3685                 0.8337

                     88                     89                     90
                      A                      A                      A
 Frequencies --   3118.4764              3118.7448              3126.4194
 Red. masses --      1.1018                 1.1022                 1.1012
 Frc consts  --      6.3131                 6.3165                 6.3417
 IR Inten    --     48.9966                41.0813                38.2923

                     91                     92                     93
                      A                      A                      A
 Frequencies --   3133.4477              3173.7077              3215.1924
 Red. masses --      1.1030                 1.0832                 1.0908
 Frc consts  --      6.3807                 6.4282                 6.6439
 IR Inten    --     24.9029                 7.3797                 6.6837

                     94                     95                     96
                      A                      A                      A
 Frequencies --   3268.1427              3560.5326              3675.4699
 Red. masses --      1.0966                 1.0751                 1.0639
 Frc consts  --      6.9006                 8.0302                 8.4683
 IR Inten    --      0.5657                63.7887                61.1713

 - Thermochemistry -
 -------------------
 Temperature   298.150 Kelvin.  Pressure   1.00000 Atm.
 Atom     1 has atomic number  6 and mass  12.00000

 Molecular mass:   255.09292 amu.
 Principal axes and moments of inertia in atomic units:
                           1         2         3
     Eigenvalues --  3308.910305918.925446103.19210
           X            0.99904   0.03356   0.02814
           Y           -0.03775   0.98561   0.16476
           Z           -0.02221  -0.16566   0.98593
 This molecule is an asymmetric top.
 Rotational symmetry number  1.
 Warning -- assumption of classical behavior for rotation
           may cause significant error
 Rotational temperatures (Kelvin)      0.02618     0.01463     0.01419
 Rotational constants (GHZ):           0.54542     0.30491     0.29570
 Zero-point vibrational energy     738101.7 (Joules/Mol)
                                  176.41055 (Kcal/Mol)
 Warning -- explicit consideration of  26 degrees of freedom as
           vibrations may cause significant error
 Vibrational temperatures:     26.81    38.91    59.34    80.05    92.68
          (Kelvin)            112.35   133.93   166.98   196.21   235.83
                              245.77   295.82   323.21   351.17   362.77
                              429.08   469.37   490.50   549.19   576.36
                              614.17   650.06   718.85   779.15   813.39
                              885.79   917.41   956.50   987.29  1005.49
                             1027.31  1071.62  1092.14  1113.89  1122.54
                             1171.93  1217.64  1222.42  1281.32  1283.40
                             1342.26  1384.99  1422.75  1466.11  1531.51
                             1551.64  1567.19  1595.71  1612.93  1633.74
                             1647.24  1680.14  1722.76  1803.29  1807.87
                             1877.12  1888.49  1892.94  1954.41  1972.26
                             1985.98  2009.91  2013.76  2036.44  2046.79
                             2072.57  2081.56  2142.41  2152.40  2180.18
                             2187.87  2188.84  2197.66  2203.70  2210.98
                             2218.79  2302.58  2541.87  2657.84  4357.45
                             4385.73  4388.46  4395.99  4401.26  4437.69
                             4467.19  4470.73  4486.79  4487.18  4498.22
                             4508.33  4566.26  4625.94  4702.13  5122.81
                             5288.18

 Zero-point correction=                           0.281128 (Hartree/Particle)
 Thermal correction to Energy=                    0.299346
 Thermal correction to Enthalpy=                  0.300290
 Thermal correction to Gibbs Free Energy=         0.232310
 Sum of electronic and zero-point Energies=          -1145.935221
 Sum of electronic and thermal Energies=             -1145.917003
 Sum of electronic and thermal Enthalpies=           -1145.916059
 Sum of electronic and thermal Free Energies=        -1145.984039

                     E (Thermal)             CV                S
                      KCal/Mol        Cal/Mol-Kelvin    Cal/Mol-Kelvin
 Total                  187.843             66.141            143.077
 Electronic               0.000              0.000              0.000
 Translational            0.889              2.981             42.509
 Rotational               0.889              2.981             33.147
 Vibrational            186.065             60.179             67.421
 Vibration     1          0.593              1.986              6.774
 Vibration     2          0.593              1.984              6.035
 Vibration     3          0.594              1.981              5.198
 Vibration     4          0.596              1.975              4.606
 Vibration     5          0.597              1.971              4.317
 Vibration     6          0.599              1.964              3.938
 Vibration     7          0.602              1.954              3.594
 Vibration     8          0.608              1.936              3.165
 Vibration     9          0.614              1.917              2.854
 Vibration    10          0.623              1.887              2.504
 Vibration    11          0.626              1.878              2.426
 Vibration    12          0.640              1.832              2.082
 Vibration    13          0.649              1.804              1.921
 Vibration    14          0.659              1.773              1.773
 Vibration    15          0.664              1.759              1.716
 Vibration    16          0.691              1.677              1.427
 Vibration    17          0.710              1.623              1.279
 Vibration    18          0.720              1.594              1.208
 Vibration    19          0.751              1.509              1.032
 Vibration    20          0.766              1.469              0.960
 Vibration    21          0.789              1.412              0.869
 Vibration    22          0.810              1.357              0.790
 Vibration    23          0.855              1.251              0.659
 Vibration    24          0.897              1.158              0.562
 Vibration    25          0.921              1.106              0.513
 Vibration    26          0.975              0.999              0.424

 Optimization completed.
    -- Stationary point found.
 Normal termination of Gaussian 16 at Mon Dec 14 17:09:09 2020.

 ----------------------------------------------------------------------
 # B3LYP/6-311++G(d,p) empiricaldispersion=gd3bj scf=xqc pop=npa geom=c
 heck
 ----------------------------------------------------------------------

 --------------------------------------
 CID_61389404_JID_7573_Energie_neutraal
 --------------------------------------
 Structure from the checkpoint file:  "JID_7573.chk"
 Charge =  0 Multiplicity = 1

 SCF Done:  E(RB3LYP) =  -1146.46664193     A.U. after   16 cycles
 Normal termination of Gaussian 16 at Mon Dec 14 17:16:30 2020.

 ----------------------------------------------------------------------
 # B3LYP/6-311++G(d,p) empiricaldispersion=gd3bj scf=xqc pop=npa geom=c
 heck
 ----------------------------------------------------------------------

 ------------------------------------
 CID_61389404_JID_7573_Energie_kation
 ------------------------------------
 Structure from the checkpoint file:  "JID_7573.chk"
 Charge =  1 Multiplicity = 2

 SCF Done:  E(UB3LYP) =  -1146.14364028     A.U. after   33 cycles
 SCF Done:  E(UB3LYP) =  -1146.14364028     a.u. after    2 cycles
 Normal termination of Gaussian 16 at Mon Dec 14 17:58:17 2020.
 Gaussian 16:  ES64L-G16RevA.03 25-Dec-2016

 ----------------------------------------------------------------------
 # B3LYP/6-311++G(d,p) empiricaldispersion=gd3bj scf=xqc pop=npa geom=c
 heck
 ----------------------------------------------------------------------

 -----------------------------------
 CID_61389404_JID_7573_Energie_anion
 -----------------------------------
 Structure from the checkpoint file:  "JID_7573.chk"
 Charge = -1 Multiplicity = 2

                         Standard orientation:
 ---------------------------------------------------------------------
 Center     Atomic      Atomic             Coordinates (Angstroms)
 Number     Number       Type             X           Y           Z
 ---------------------------------------------------------------------
      1          6           0        1.039736    2.433828   -1.543408
      2          6           0        2.017714    2.361910   -0.364612
      3          6           0        1.615741    1.331034    0.697848
      4          6           0        1.520421   -0.132793    0.193352
      5          6           0        2.908853   -0.703337   -0.022620
      6          8           0        3.527421   -1.347323    0.795687
      7          8           0        3.408535   -0.371789   -1.233600
      8          7           0        0.842596   -1.011903    1.139543
      9          6           0       -0.460636   -0.857457    1.557197
     10          8           0       -0.837137   -1.245498    2.656323
     11          6           0       -1.388126   -0.192406    0.597718
     12          6           0       -1.615284   -0.418122   -0.743656
     13          6           0       -2.617586    0.465242   -1.263272
     14          6           0       -3.127999    1.319553   -0.326075
     15         16           0       -2.426995    1.059104    1.233697
     16          6           0       -0.984405   -1.510957   -1.571219
     17          6           0       -2.016417   -2.543773   -2.052781
     18          1           0        1.088236    1.533250   -2.165243
     19          1           0        1.271471    3.286380   -2.190690
     20          1           0        0.005156    2.542616   -1.196120
     21          1           0        3.027915    2.153961   -0.735792
     22          1           0        2.064844    3.341283    0.127691
     23          1           0        2.303814    1.360436    1.551789
     24          1           0        0.622879    1.591074    1.080433
     25          1           0        0.996834   -0.146309   -0.759983
     26          1           0        4.317258   -0.728102   -1.263550
     27          1           0        1.448984   -1.419478    1.845447
     28          1           0       -2.941869    0.452195   -2.298503
     29          1           0       -3.883181    2.082108   -0.461787
     30          1           0       -0.482592   -1.068192   -2.443427
     31          1           0       -0.215545   -2.021834   -0.985068
     32          1           0       -2.792580   -2.077270   -2.668723
     33          1           0       -1.531984   -3.322836   -2.651246
     34          1           0       -2.508498   -3.021076   -1.199287
 ---------------------------------------------------------------------

 SCF Done:  E(UB3LYP) =  -1146.46618254     A.U. after   32 cycles

 The electronic state is 2-A.
 Alpha  occ. eigenvalues --  -88.75270 -19.07807 -19.02585 -18.96616 -14.21924
 Alpha  occ. eigenvalues --  -10.21474 -10.15122 -10.12435 -10.07834 -10.07810
 Alpha  occ. eigenvalues --  -10.07513 -10.07369 -10.07080 -10.06436 -10.06414
 Alpha  occ. eigenvalues --  -10.06358 -10.06199  -7.83910  -5.80206  -5.79837
 Alpha  occ. eigenvalues --   -5.79521  -1.02006  -0.93265  -0.91906  -0.81705
 Alpha  occ. eigenvalues --   -0.76563  -0.70527  -0.68049  -0.64653  -0.62241
 Alpha  occ. eigenvalues --   -0.60598  -0.58184  -0.52995  -0.52071  -0.50856
 Alpha  occ. eigenvalues --   -0.48148  -0.44510  -0.43294  -0.41071  -0.40134
 Alpha  occ. eigenvalues --   -0.38883  -0.37655  -0.36770  -0.34944  -0.34420
 Alpha  occ. eigenvalues --   -0.33490  -0.33244  -0.32448  -0.31106  -0.30479
 Alpha  occ. eigenvalues --   -0.29864  -0.28835  -0.28534  -0.28185  -0.26347
 Alpha  occ. eigenvalues --   -0.25762  -0.25519  -0.24990  -0.24554  -0.24226
 Alpha  occ. eigenvalues --   -0.23758  -0.22887  -0.22278  -0.19536  -0.15439
 Alpha  occ. eigenvalues --   -0.14275  -0.13465  -0.12359   0.04072
 Alpha virt. eigenvalues --    0.05864   0.07079   0.07478   0.08352   0.08676
 Alpha virt. eigenvalues --    0.08950   0.09812   0.10153   0.11048   0.11313
 Alpha virt. eigenvalues --    0.11665   0.12099   0.12428   0.13014   0.13479

  Beta  occ. eigenvalues --  -88.75225 -19.07745 -19.02568 -18.96466 -14.21906
  Beta  occ. eigenvalues --  -10.21472 -10.14994 -10.12417 -10.07804 -10.07633
  Beta  occ. eigenvalues --  -10.07505 -10.07213 -10.07088 -10.06410 -10.06331
  Beta  occ. eigenvalues --  -10.06325 -10.06237  -7.83869  -5.80179  -5.79814
  Beta  occ. eigenvalues --   -5.79382  -1.01926  -0.93193  -0.91630  -0.81592
  Beta  occ. eigenvalues --   -0.76334  -0.70491  -0.67920  -0.64562  -0.61957
  Beta  occ. eigenvalues --   -0.60403  -0.58139  -0.52814  -0.51989  -0.50643
  Beta  occ. eigenvalues --   -0.48062  -0.44326  -0.43154  -0.41005  -0.40052
  Beta  occ. eigenvalues --   -0.38760  -0.37594  -0.36723  -0.34860  -0.34389
  Beta  occ. eigenvalues --   -0.33335  -0.33175  -0.32293  -0.30984  -0.30390
  Beta  occ. eigenvalues --   -0.29539  -0.28653  -0.28429  -0.28120  -0.26180
  Beta  occ. eigenvalues --   -0.25565  -0.25400  -0.24742  -0.24465  -0.24076
  Beta  occ. eigenvalues --   -0.23635  -0.22806  -0.22086  -0.19477  -0.15156
  Beta  occ. eigenvalues --   -0.13897  -0.12910  -0.11335
  Beta virt. eigenvalues --    0.06668   0.07276   0.07642   0.08322   0.08602
  Beta virt. eigenvalues --    0.08766   0.08871   0.09879   0.10254   0.11004
  Beta virt. eigenvalues --    0.11542   0.11800   0.12264   0.12673   0.12931

 Mulliken charges and spin densities:
               1          2
     1  C   -0.589397   0.004102
     2  C   -0.460666  -0.133014
     3  C   -0.183482   0.194316
     4  C    0.625129  -0.531432
     5  C    0.238715  -0.144168
     6  O   -0.263332   0.013551
     7  O   -0.122996   0.029445
     8  N   -0.210702   0.059588
     9  C   -0.513255  -0.011796
    10  O   -0.344248   0.052984
    11  C    0.190957   0.158570
    12  C    0.636516  -0.023389
    13  C   -0.147835  -0.057672
    14  C   -0.245208   0.022692
    15  S   -0.066105   0.149832
    16  C   -0.893671   0.238672
    17  C   -0.209191  -0.490597
    18  H    0.158919   0.011357
    19  H    0.054690   0.084212
    20  H    0.152250   0.000801
    21  H   -0.016599   0.170042
    22  H    0.117464   0.031118
    23  H    0.170661   0.006469
    24  H    0.177708  -0.002283
    25  H    0.460055  -0.290268
    26  H   -0.542968   0.852127
    27  H    0.324089  -0.013364
    28  H    0.057710   0.077479
    29  H    0.188169   0.012273
    30  H   -0.000809   0.162045
    31  H    0.144016   0.065650
    32  H    0.083561   0.041736
    33  H   -0.086718   0.217078
    34  H    0.116573   0.041844
 Sum of Mulliken charges =  -1.00000   1.00000

 Dipole moment (field-independent basis, Debye):
    X=             -3.3039    Y=              3.9000    Z=             -1.0916  Tot=              5.2266
 Quadrupole moment (field-independent basis, Debye-Ang):
   XX=           -172.8357   YY=           -135.8203   ZZ=           -148.1020
   XY=              2.9327   XZ=             15.0084   YZ=              3.0649

 Summary of Natural Population Analysis:

                                       Natural Population
                Natural  -----------------------------------------------
    Atom  No    Charge         Core      Valence    Rydberg      Total
 -----------------------------------------------------------------------
      C    1   -0.29055      0.99967     2.28544    0.00545     3.29055
      C    2   -0.19373      0.99964     2.18637    0.00773     3.19373
      C    3   -0.19030      0.99961     2.18245    0.00825     3.19030
      C    4   -0.06108      0.99953     2.04806    0.01349     3.06108
      C    5    0.41199      0.99968     1.56215    0.02618     2.58801
      O    6   -0.30967      0.99987     3.30387    0.00593     4.30967
      O    7   -0.34028      0.99987     3.33328    0.00712     4.34028
      N    8   -0.32304      0.99966     2.81319    0.01019     3.82304
      C    9    0.34547      0.99958     1.63249    0.02245     2.65453
      O   10   -0.30454      0.99988     3.29943    0.00524     4.30454
      C   11   -0.12265      0.99937     2.10838    0.01490     3.12265
      C   12   -0.02027      0.99944     2.00921    0.01163     3.02027
      C   13   -0.14121      0.99949     2.13269    0.00903     3.14121
      C   14   -0.16095      0.99955     2.14977    0.01163     3.16095
      S   15    0.22690      4.99942     2.75325    0.02043     7.77310
      C   16   -0.20432      0.99960     2.19626    0.00846     3.20432
      C   17   -0.27813      0.99966     2.27371    0.00475     3.27813
      H   18    0.09898      0.00000     0.39995    0.00107     0.40102
      H   19    0.09568      0.00000     0.40363    0.00069     0.40432
      H   20    0.10271      0.00000     0.39604    0.00125     0.39729
      H   21    0.10004      0.00000     0.39882    0.00114     0.39996
      H   22    0.09369      0.00000     0.40539    0.00093     0.40631
      H   23    0.09902      0.00000     0.40006    0.00093     0.40098
      H   24    0.10820      0.00000     0.39027    0.00153     0.39180
      H   25    0.11523      0.00000     0.38135    0.00342     0.38477
      H   26    0.24558      0.00000     0.22732    0.02710     0.25442
      H   27    0.20015      0.00000     0.29781    0.00203     0.29985
      H   28    0.10081      0.00000     0.39821    0.00098     0.39919
      H   29    0.10142      0.00000     0.39756    0.00102     0.39858
      H   30    0.09859      0.00000     0.40010    0.00130     0.40141
      H   31    0.10708      0.00000     0.39136    0.00156     0.39292
      H   32    0.09393      0.00000     0.40522    0.00085     0.40607
      H   33    0.09628      0.00000     0.40271    0.00101     0.40372
      H   34    0.09897      0.00000     0.40021    0.00081     0.40103
 =======================================================================
   * Total *   -0.00000     20.99353    46.76602    0.24046    68.00000

 Normal termination of Gaussian 16 at Mon Dec 14 18:18:20 2020.
