 Gaussian 16, Revision A.03,

 -----------------------------------------------------------
 # opt freq B3LYP/6-31G(d) empiricaldispersion=gd3bj scf=xqc
 -----------------------------------------------------------

 ------------------------------
 CID_60924507_JID_6146_neutraal
 ------------------------------
 Symbolic Z-matrix:
 Charge =  0 Multiplicity = 1

 SCF Done:  E(RB3LYP) =  -756.547425811     A.U. after   15 cycles
 SCF Done:  E(RB3LYP) =  -756.551639994     A.U. after   13 cycles
 SCF Done:  E(RB3LYP) =  -756.552027890     A.U. after   13 cycles
 SCF Done:  E(RB3LYP) =  -756.552491471     A.U. after   12 cycles
 SCF Done:  E(RB3LYP) =  -756.552611423     A.U. after   12 cycles
 SCF Done:  E(RB3LYP) =  -756.552798607     A.U. after   12 cycles
 SCF Done:  E(RB3LYP) =  -756.552937181     A.U. after   12 cycles
 SCF Done:  E(RB3LYP) =  -756.553111971     A.U. after   12 cycles
 SCF Done:  E(RB3LYP) =  -756.553913205     A.U. after   15 cycles
 SCF Done:  E(RB3LYP) =  -756.554180593     A.U. after   12 cycles
 SCF Done:  E(RB3LYP) =  -756.556463436     A.U. after    9 cycles
 SCF Done:  E(RB3LYP) =  -756.556463499     A.U. after   10 cycles
 SCF Done:  E(RB3LYP) =  -756.556464304     A.U. after    9 cycles
 SCF Done:  E(RB3LYP) =  -756.556464288     A.U. after    7 cycles
 SCF Done:  E(RB3LYP) =  -756.556464323     A.U. after    7 cycles
 Optimization completed.
    -- Stationary point found.
 Normal termination of Gaussian 16 at Thu Dec 10 21:34:24 2020.

 --------------------------------------------------------------------
 #N Geom=AllCheck Guess=TCheck SCRF=Check GenChk RB3LYP/6-31G(d) Freq
 --------------------------------------------------------------------

 Structure from the checkpoint file:  "JID_6146.chk"
 ------------------------------
 CID_60924507_JID_6146_neutraal
 ------------------------------
 Charge =  0 Multiplicity = 1

 SCF Done:  E(RB3LYP) =  -756.556464323     A.U. after    1 cycles

  Exact polarizability: 118.170   1.807 142.765  15.533   6.988 114.377
 Approx polarizability: 170.816  -1.813 236.923  37.318  14.161 206.702

                      1                      2                      3
                      A                      A                      A
 Frequencies --     27.8346                33.8945                42.2392
 Red. masses --      4.3430                 5.4815                 4.7271
 Frc consts  --      0.0020                 0.0037                 0.0050
 IR Inten    --      2.5203                 3.5029                 0.2337

                      4                      5                      6
                      A                      A                      A
 Frequencies --     65.7627                71.0667               109.6513
 Red. masses --      1.0878                 5.8333                 5.0197
 Frc consts  --      0.0028                 0.0174                 0.0356
 IR Inten    --      0.1564                 2.7286                 5.3591

                      7                      8                      9
                      A                      A                      A
 Frequencies --    160.5411               178.0153               225.5356
 Red. masses --      5.8057                 4.2073                 4.9102
 Frc consts  --      0.0882                 0.0786                 0.1472
 IR Inten    --      2.5615                 1.4586                 3.7875

                     10                     11                     12
                      A                      A                      A
 Frequencies --    286.8476               320.3900               328.7694
 Red. masses --      4.5270                 1.5941                 2.5015
 Frc consts  --      0.2195                 0.0964                 0.1593
 IR Inten    --      6.7597                75.9111                27.2824

                     13                     14                     15
                      A                      A                      A
 Frequencies --    346.2381               422.3539               424.5051
 Red. masses --      4.9519                 4.5531                 5.2748
 Frc consts  --      0.3498                 0.4785                 0.5600
 IR Inten    --      3.0531                 1.2004                 5.7449

                     16                     17                     18
                      A                      A                      A
 Frequencies --    443.4603               507.5471               529.9248
 Red. masses --      3.5302                 4.4285                 3.1107
 Frc consts  --      0.4090                 0.6721                 0.5147
 IR Inten    --      0.5782                12.2009                27.1205

                     19                     20                     21
                      A                      A                      A
 Frequencies --    544.6078               574.0026               612.1198
 Red. masses --      1.6946                 6.3836                 3.9957
 Frc consts  --      0.2961                 1.2392                 0.8821
 IR Inten    --     60.6738                 9.8308                 0.8004

                     22                     23                     24
                      A                      A                      A
 Frequencies --    640.5884               666.3470               703.1160
 Red. masses --      5.1210                 4.3521                 4.1394
 Frc consts  --      1.2381                 1.1385                 1.2057
 IR Inten    --     16.1986                33.6757                10.1210

                     25                     26                     27
                      A                      A                      A
 Frequencies --    724.9638               751.6959               799.0095
 Red. masses --      5.1491                 7.2548                 1.5211
 Frc consts  --      1.5945                 2.4152                 0.5721
 IR Inten    --      6.0536                15.1288                20.0808

                     28                     29                     30
                      A                      A                      A
 Frequencies --    803.2239               814.8381               843.8115
 Red. masses --      1.4658                 4.2126                 2.1803
 Frc consts  --      0.5572                 1.6480                 0.9146
 IR Inten    --     26.7683                 9.6466                 6.8480

                     31                     32                     33
                      A                      A                      A
 Frequencies --    865.4663               883.0219               916.6201
 Red. masses --      2.7675                 4.1356                 1.3509
 Frc consts  --      1.2214                 1.8999                 0.6687
 IR Inten    --      8.3570                24.6102                 0.2146

                     34                     35                     36
                      A                      A                      A
 Frequencies --    968.8113              1002.1593              1066.5838
 Red. masses --      1.3077                 3.5262                 3.4531
 Frc consts  --      0.7232                 2.0865                 2.3145
 IR Inten    --      0.8853                34.1319                12.2528

                     37                     38                     39
                      A                      A                      A
 Frequencies --   1084.2981              1090.0728              1117.5798
 Red. masses --      1.5503                 2.4187                 2.7210
 Frc consts  --      1.0739                 1.6934                 2.0024
 IR Inten    --      5.2452                 1.6732                46.7505

                     40                     41                     42
                      A                      A                      A
 Frequencies --   1157.9888              1169.4531              1199.3792
 Red. masses --      1.3230                 1.5292                 1.8104
 Frc consts  --      1.0453                 1.2322                 1.5344
 IR Inten    --     10.1153                14.9152                88.4293

                     43                     44                     45
                      A                      A                      A
 Frequencies --   1217.2793              1220.2938              1289.1587
 Red. masses --      1.9783                 1.4889                 1.7255
 Frc consts  --      1.7272                 1.3063                 1.6896
 IR Inten    --     66.1160                16.7466                 8.6633

                     46                     47                     48
                      A                      A                      A
 Frequencies --   1326.2520              1337.6885              1349.3751
 Red. masses --      3.0204                 3.4479                 3.4963
 Frc consts  --      3.1302                 3.6351                 3.7508
 IR Inten    --     15.0642                85.5572                10.2548

                     49                     50                     51
                      A                      A                      A
 Frequencies --   1367.2414              1379.7769              1429.5955
 Red. masses --      3.8410                 2.3947                 4.4020
 Frc consts  --      4.2305                 2.6861                 5.3007
 IR Inten    --     65.3190               151.1027                14.7537

                     52                     53                     54
                      A                      A                      A
 Frequencies --   1467.8563              1496.1048              1498.6949
 Red. masses --      1.5944                 2.2740                 2.2227
 Frc consts  --      2.0241                 2.9989                 2.9414
 IR Inten    --     19.2559                 3.5150                65.5955

                     55                     56                     57
                      A                      A                      A
 Frequencies --   1500.3558              1512.7337              1522.4171
 Red. masses --      2.7146                 1.1099                 2.7183
 Frc consts  --      3.6004                 1.4964                 3.7121
 IR Inten    --     82.1243                 3.5503                11.4991

                     58                     59                     60
                      A                      A                      A
 Frequencies --   1544.8750              1631.5301              1638.8563
 Red. masses --      1.2362                 5.8121                 6.2175
 Frc consts  --      1.7382                 9.1153                 9.8389
 IR Inten    --      9.6615                18.2101                 4.6556

                     61                     62                     63
                      A                      A                      A
 Frequencies --   1650.2606              1801.0562              3064.5392
 Red. masses --      6.2940                 9.7840                 1.0388
 Frc consts  --     10.0990                18.6991                 5.7479
 IR Inten    --     31.1731               428.1990                43.6255

                     64                     65                     66
                      A                      A                      A
 Frequencies --   3138.5891              3174.6671              3176.1523
 Red. masses --      1.0983                 1.0894                 1.1052
 Frc consts  --      6.3741                 6.4688                 6.5688
 IR Inten    --     14.9989                 9.5450                 5.6295

                     67                     68                     69
                      A                      A                      A
 Frequencies --   3185.4018              3213.9786              3262.1437
 Red. masses --      1.0895                 1.0962                 1.0967
 Frc consts  --      6.5132                 6.6714                 6.8764
 IR Inten    --     20.0697                18.9027                 3.8950

                     70                     71                     72
                      A                      A                      A
 Frequencies --   3288.0175              3582.9056              3749.3384
 Red. masses --      1.0989                 1.0755                 1.0662
 Frc consts  --      6.9996                 8.1344                 8.8304
 IR Inten    --      0.4729                30.0053                44.5431

 - Thermochemistry -
 -------------------
 Temperature   298.150 Kelvin.  Pressure   1.00000 Atm.
 Atom     1 has atomic number  6 and mass  12.00000

 Molecular mass:   218.08038 amu.
 Principal axes and moments of inertia in atomic units:
                           1         2         3
     Eigenvalues --  2420.416653865.242384758.58133
           X            0.99993   0.00164  -0.01161
           Y           -0.00137   0.99974   0.02278
           Z            0.01164  -0.02276   0.99967
 This molecule is an asymmetric top.
 Rotational symmetry number  1.
 Warning -- assumption of classical behavior for rotation
           may cause significant error
 Rotational temperatures (Kelvin)      0.03578     0.02241     0.01820
 Rotational constants (GHZ):           0.74563     0.46692     0.37926
 Zero-point vibrational energy     523614.3 (Joules/Mol)
                                  125.14682 (Kcal/Mol)
 Warning -- explicit consideration of  21 degrees of freedom as
           vibrations may cause significant error
 Vibrational temperatures:     40.05    48.77    60.77    94.62   102.25
          (Kelvin)            157.76   230.98   256.12   324.50   412.71
                              460.97   473.03   498.16   607.67   610.77
                              638.04   730.25   762.44   783.57   825.86
                              880.70   921.66   958.72  1011.63  1043.06
                             1081.52  1149.60  1155.66  1172.37  1214.06
                             1245.21  1270.47  1318.81  1393.90  1441.88
                             1534.58  1560.06  1568.37  1607.95  1666.09
                             1682.58  1725.64  1751.39  1755.73  1854.81
                             1908.18  1924.64  1941.45  1967.16  1985.19
                             2056.87  2111.92  2152.56  2156.29  2158.68
                             2176.49  2190.42  2222.73  2347.41  2357.95
                             2374.36  2591.32  4409.19  4515.73  4567.64
                             4569.77  4583.08  4624.20  4693.50  4730.72
                             5155.00  5394.46

 Zero-point correction=                           0.199434 (Hartree/Particle)
 Thermal correction to Energy=                    0.213709
 Thermal correction to Enthalpy=                  0.214653
 Thermal correction to Gibbs Free Energy=         0.155898
 Sum of electronic and zero-point Energies=           -756.357030
 Sum of electronic and thermal Energies=              -756.342756
 Sum of electronic and thermal Enthalpies=            -756.341812
 Sum of electronic and thermal Free Energies=         -756.400566

                     E (Thermal)             CV                S
                      KCal/Mol        Cal/Mol-Kelvin    Cal/Mol-Kelvin
 Total                  134.104             52.543            123.659
 Electronic               0.000              0.000              0.000
 Translational            0.889              2.981             42.042
 Rotational               0.889              2.981             32.165
 Vibrational            132.327             46.582             49.452
 Vibration     1          0.593              1.984              5.978
 Vibration     2          0.594              1.983              5.587
 Vibration     3          0.595              1.980              5.151
 Vibration     4          0.597              1.971              4.276
 Vibration     5          0.598              1.968              4.124
 Vibration     6          0.606              1.941              3.275
 Vibration     7          0.622              1.891              2.543
 Vibration     8          0.628              1.869              2.349
 Vibration     9          0.650              1.802              1.914
 Vibration    10          0.684              1.698              1.492
 Vibration    11          0.706              1.635              1.308
 Vibration    12          0.712              1.618              1.266
 Vibration    13          0.724              1.583              1.183
 Vibration    14          0.785              1.422              0.884
 Vibration    15          0.786              1.417              0.877
 Vibration    16          0.803              1.375              0.816
 Vibration    17          0.863              1.233              0.640
 Vibration    18          0.885              1.184              0.587
 Vibration    19          0.900              1.151              0.555
 Vibration    20          0.930              1.087              0.497
 Vibration    21          0.971              1.006              0.429

 Optimization completed.
    -- Stationary point found.
 Normal termination of Gaussian 16 at Thu Dec 10 21:42:37 2020.

 ----------------------------------------------------------------------
 # B3LYP/6-311++G(d,p) empiricaldispersion=gd3bj scf=xqc pop=npa geom=c
 heck
 ----------------------------------------------------------------------

 --------------------------------------
 CID_60924507_JID_6146_Energie_neutraal
 --------------------------------------
 Structure from the checkpoint file:  "JID_6146.chk"
 Charge =  0 Multiplicity = 1

 SCF Done:  E(RB3LYP) =  -756.774410930     A.U. after   16 cycles
 Normal termination of Gaussian 16 at Thu Dec 10 21:45:37 2020.

 ----------------------------------------------------------------------
 # B3LYP/6-311++G(d,p) empiricaldispersion=gd3bj scf=xqc pop=npa geom=c
 heck
 ----------------------------------------------------------------------

 ------------------------------------
 CID_60924507_JID_6146_Energie_kation
 ------------------------------------
 Structure from the checkpoint file:  "JID_6146.chk"
 Charge =  1 Multiplicity = 2

 SCF Done:  E(UB3LYP) =  -756.475168824     A.U. after   27 cycles
 Normal termination of Gaussian 16 at Thu Dec 10 21:52:44 2020.
 Gaussian 16:  ES64L-G16RevA.03 25-Dec-2016

 ----------------------------------------------------------------------
 # B3LYP/6-311++G(d,p) empiricaldispersion=gd3bj scf=xqc pop=npa geom=c
 heck
 ----------------------------------------------------------------------

 -----------------------------------
 CID_60924507_JID_6146_Energie_anion
 -----------------------------------
 Structure from the checkpoint file:  "JID_6146.chk"
 Charge = -1 Multiplicity = 2

                         Standard orientation:
 ---------------------------------------------------------------------
 Center     Atomic      Atomic             Coordinates (Angstroms)
 Number     Number       Type             X           Y           Z
 ---------------------------------------------------------------------
      1          6           0        3.222648   -1.933842   -0.611462
      2          7           0        2.622624   -0.650297   -0.308801
      3          6           0        1.558704   -0.067961   -0.917499
      4          6           0        1.282065    1.086301   -0.199869
      5          6           0        2.249485    1.108574    0.831494
      6          7           0        3.064366    0.056894    0.758065
      7          7           0        0.247835    2.009891   -0.438925
      8          6           0       -1.091022    1.717477   -0.523244
      9          8           0       -1.931734    2.556223   -0.799876
     10          6           0       -1.456458    0.272147   -0.251857
     11          6           0       -1.413580   -0.241943    1.055692
     12          6           0       -1.806123   -1.562608    1.264853
     13          6           0       -2.225505   -2.315583    0.169864
     14          6           0       -2.234974   -1.719247   -1.089433
     15          7           0       -1.859917   -0.451036   -1.297623
     16          8           0       -0.977133    0.584329    2.046079
     17          1           0        4.291994   -1.871988   -0.404128
     18          1           0        2.782627   -2.728061    0.001732
     19          1           0        3.066277   -2.164151   -1.667674
     20          1           0        1.064400   -0.501140   -1.774155
     21          1           0        2.382959    1.851665    1.606252
     22          1           0        0.472873    2.989328   -0.568632
     23          1           0       -1.782765   -1.991599    2.264685
     24          1           0       -2.539220   -3.347250    0.295387
     25          1           0       -2.553216   -2.276156   -1.967480
     26          1           0       -0.950792    0.096891    2.884149
 ---------------------------------------------------------------------

 SCF Done:  E(UB3LYP) =  -756.771418795     A.U. after   33 cycles
 SCF Done:  E(UB3LYP) =  -756.771418795     a.u. after    1 cycles

 The electronic state is 2-A.
 Alpha  occ. eigenvalues --  -19.05121 -18.98663 -14.29829 -14.24682 -14.23454
 Alpha  occ. eigenvalues --  -14.19134 -10.17041 -10.13240 -10.11841 -10.11063
 Alpha  occ. eigenvalues --  -10.11006 -10.09575 -10.09247 -10.08764 -10.06813
 Alpha  occ. eigenvalues --  -10.06634  -0.96376  -0.95843  -0.93752  -0.83534
 Alpha  occ. eigenvalues --   -0.82730  -0.74934  -0.68786  -0.68675  -0.65577
 Alpha  occ. eigenvalues --   -0.60977  -0.55618  -0.53415  -0.52301  -0.49321
 Alpha  occ. eigenvalues --   -0.47046  -0.45343  -0.43924  -0.41127  -0.39604
 Alpha  occ. eigenvalues --   -0.38721  -0.38344  -0.35561  -0.34905  -0.33254
 Alpha  occ. eigenvalues --   -0.32454  -0.31578  -0.31405  -0.30634  -0.30033
 Alpha  occ. eigenvalues --   -0.29871  -0.28214  -0.25939  -0.25838  -0.21111
 Alpha  occ. eigenvalues --   -0.18874  -0.18000  -0.16549  -0.16401  -0.14221
 Alpha  occ. eigenvalues --   -0.13593  -0.12323   0.04107
 Alpha virt. eigenvalues --    0.06077   0.06604   0.07789   0.08373   0.08688
 Alpha virt. eigenvalues --    0.09427   0.09773   0.09851   0.10717   0.11358
 Alpha virt. eigenvalues --    0.11671   0.11837   0.12652   0.13817   0.14557

  Beta  occ. eigenvalues --  -19.05090 -18.98624 -14.29830 -14.24682 -14.23434
  Beta  occ. eigenvalues --  -14.18936 -10.17034 -10.13276 -10.11800 -10.11060
  Beta  occ. eigenvalues --  -10.11001 -10.09572 -10.09132 -10.08792 -10.06660
  Beta  occ. eigenvalues --  -10.06529  -0.96314  -0.95828  -0.93685  -0.83470
  Beta  occ. eigenvalues --   -0.82479  -0.74914  -0.68671  -0.68474  -0.65383
  Beta  occ. eigenvalues --   -0.60931  -0.55409  -0.53292  -0.52263  -0.49241
  Beta  occ. eigenvalues --   -0.46969  -0.45309  -0.43775  -0.41045  -0.39563
  Beta  occ. eigenvalues --   -0.38622  -0.38294  -0.35441  -0.34873  -0.33221
  Beta  occ. eigenvalues --   -0.32343  -0.31463  -0.31255  -0.30562  -0.29981
  Beta  occ. eigenvalues --   -0.29775  -0.28101  -0.25855  -0.25414  -0.21064
  Beta  occ. eigenvalues --   -0.18824  -0.17443  -0.16364  -0.16034  -0.14020
  Beta  occ. eigenvalues --   -0.13455  -0.12021
  Beta virt. eigenvalues --    0.06652   0.07632   0.07788   0.08112   0.08597
  Beta virt. eigenvalues --    0.09002   0.09696   0.09997   0.10099   0.10865
  Beta virt. eigenvalues --    0.11626   0.11999   0.12236   0.13017   0.13811

 Mulliken charges and spin densities:
               1          2
     1  C    0.884168  -1.170515
     2  N    0.146614   0.054677
     3  C   -0.493990   0.177684
     4  C    0.081790  -0.072074
     5  C    0.143137  -0.255927
     6  N   -0.340930   0.170606
     7  N   -0.231442   0.007274
     8  C    0.387344  -0.615844
     9  O   -0.302689   0.003620
    10  C    0.450019  -0.526948
    11  C    0.224580  -0.322223
    12  C   -0.409730   0.566932
    13  C    0.813759  -0.979405
    14  C   -0.769360   0.621078
    15  N   -0.056321   0.147738
    16  O   -0.218637   0.000943
    17  H   -0.125024   0.291006
    18  H   -0.197548   0.388185
    19  H   -0.382041   0.530451
    20  H    0.047904   0.138078
    21  H    0.090923   0.057383
    22  H    0.306746  -0.010968
    23  H   -0.809117   0.979585
    24  H   -0.046440   0.192310
    25  H   -0.028202   0.187165
    26  H   -0.165511   0.439190
 Sum of Mulliken charges =  -1.00000   1.00000

 Dipole moment (field-independent basis, Debye):
    X=              2.0169    Y=              2.6691    Z=             -1.5825  Tot=              3.7009
 Quadrupole moment (field-independent basis, Debye-Ang):
   XX=           -144.3113   YY=           -128.0601   ZZ=           -128.2843
   XY=             14.2352   XZ=             -2.8807   YZ=              6.6806

 Summary of Natural Population Analysis:

                                       Natural Population
                Natural  -----------------------------------------------
    Atom  No    Charge         Core      Valence    Rydberg      Total
 -----------------------------------------------------------------------
      C    1   -0.17208      0.99964     2.16422    0.00822     3.17208
      N    2   -0.10346      0.99967     2.59152    0.01227     3.60346
      C    3   -0.00516      0.99950     1.99498    0.01068     3.00516
      C    4    0.01427      0.99947     1.97442    0.01184     2.98573
      C    5   -0.01352      0.99958     1.99954    0.01440     3.01352
      N    6   -0.15131      0.99973     2.63939    0.01219     3.65131
      N    7   -0.31208      0.99963     2.80309    0.00935     3.81208
      C    8    0.34694      0.99964     1.62938    0.02404     2.65306
      O    9   -0.30611      0.99987     3.30052    0.00571     4.30611
      C   10    0.05255      0.99945     1.93090    0.01710     2.94745
      C   11    0.14333      0.99934     1.84344    0.01388     2.85667
      C   12   -0.09793      0.99952     2.08759    0.01083     3.09793
      C   13   -0.09819      0.99957     2.08873    0.00990     3.09819
      C   14    0.00076      0.99958     1.98457    0.01508     2.99924
      N   15   -0.20115      0.99968     2.69081    0.01067     3.70115
      O   16   -0.33892      0.99987     3.33189    0.00715     4.33892
      H   17    0.10491      0.00000     0.39353    0.00155     0.39509
      H   18    0.10241      0.00000     0.39610    0.00149     0.39759
      H   19    0.10076      0.00000     0.39789    0.00135     0.39924
      H   20    0.11371      0.00000     0.38500    0.00128     0.38629
      H   21    0.09859      0.00000     0.40047    0.00094     0.40141
      H   22    0.19388      0.00000     0.30387    0.00225     0.30612
      H   23    0.10238      0.00000     0.39525    0.00236     0.39762
      H   24    0.09951      0.00000     0.39954    0.00095     0.40049
      H   25    0.08684      0.00000     0.41207    0.00109     0.41316
      H   26    0.23904      0.00000     0.25513    0.00583     0.26096
 =======================================================================
   * Total *    0.00000     15.99375    40.79385    0.21240    57.00000

 Normal termination of Gaussian 16 at Thu Dec 10 22:01:02 2020.
