 Gaussian 16, Revision A.03,

 -----------------------------------------------------------
 # opt freq B3LYP/6-31G(d) empiricaldispersion=gd3bj scf=xqc
 -----------------------------------------------------------

 -------------------------------
 CID_151297397_JID_1396_neutraal
 -------------------------------
 Symbolic Z-matrix:
 Charge =  0 Multiplicity = 1

 SCF Done:  E(RB3LYP) =  -585.842508077     A.U. after   16 cycles
 SCF Done:  E(RB3LYP) =  -585.847215213     A.U. after   14 cycles
 SCF Done:  E(RB3LYP) =  -585.848545899     A.U. after   13 cycles
 SCF Done:  E(RB3LYP) =  -585.849126100     A.U. after   13 cycles
 SCF Done:  E(RB3LYP) =  -585.848594307     A.U. after   14 cycles
 SCF Done:  E(RB3LYP) =  -585.849338385     A.U. after   12 cycles
 SCF Done:  E(RB3LYP) =  -585.849333682     A.U. after   12 cycles
 SCF Done:  E(RB3LYP) =  -585.849361197     A.U. after   11 cycles
 SCF Done:  E(RB3LYP) =  -585.849363011     A.U. after    9 cycles
 SCF Done:  E(RB3LYP) =  -585.849363396     A.U. after    9 cycles
 SCF Done:  E(RB3LYP) =  -585.849363541     A.U. after    8 cycles
 Optimization completed.
    -- Stationary point found.
 Normal termination of Gaussian 16 at Tue Dec  8 19:56:02 2020.

 --------------------------------------------------------------------
 #N Geom=AllCheck Guess=TCheck SCRF=Check GenChk RB3LYP/6-31G(d) Freq
 --------------------------------------------------------------------

 Structure from the checkpoint file:  "JID_1396.chk"
 -------------------------------
 CID_151297397_JID_1396_neutraal
 -------------------------------
 Charge =  0 Multiplicity = 1

 SCF Done:  E(RB3LYP) =  -585.849363541     A.U. after    1 cycles

  Exact polarizability:  78.898   6.662  88.160  -5.672  -9.547  71.299
 Approx polarizability: 111.241  25.434 139.204 -25.792 -38.968 133.642

                      1                      2                      3
                      A                      A                      A
 Frequencies --     53.3574                57.0373                82.6867
 Red. masses --      7.4318                 8.6917                 2.7250
 Frc consts  --      0.0125                 0.0167                 0.0110
 IR Inten    --      0.1951                 2.3893                 0.0578

                      4                      5                      6
                      A                      A                      A
 Frequencies --    126.9282               179.1750               208.6008
 Red. masses --      7.2945                 4.5331                 1.0904
 Frc consts  --      0.0692                 0.0857                 0.0280
 IR Inten    --      0.0881                 1.0801                 0.1721

                      7                      8                      9
                      A                      A                      A
 Frequencies --    232.5676               261.6226               271.9547
 Red. masses --      1.1460                 7.0721                 2.6745
 Frc consts  --      0.0365                 0.2852                 0.1165
 IR Inten    --      0.3299                 2.9994                 3.5665

                     10                     11                     12
                      A                      A                      A
 Frequencies --    304.3497               326.0338               368.6095
 Red. masses --      2.3118                 2.1177                 2.7725
 Frc consts  --      0.1262                 0.1326                 0.2219
 IR Inten    --     24.0821                59.6828                25.3840

                     13                     14                     15
                      A                      A                      A
 Frequencies --    386.2752               427.5691               472.1579
 Red. masses --      3.8750                 4.2254                 4.0249
 Frc consts  --      0.3407                 0.4551                 0.5287
 IR Inten    --      7.4329                30.4360                 4.9495

                     16                     17                     18
                      A                      A                      A
 Frequencies --    536.2677               573.6444               594.2556
 Red. masses --      4.1165                 6.9942                 1.9042
 Frc consts  --      0.6975                 1.3560                 0.3962
 IR Inten    --     14.0672                12.9029                43.9733

                     19                     20                     21
                      A                      A                      A
 Frequencies --    645.4292               677.1169               728.4864
 Red. masses --      3.4962                 3.0899                 3.5114
 Frc consts  --      0.8581                 0.8347                 1.0979
 IR Inten    --     63.0735                82.5162                16.8524

                     22                     23                     24
                      A                      A                      A
 Frequencies --    788.6680               892.9885               939.9960
 Red. masses --      8.4186                 2.8748                 2.8138
 Frc consts  --      3.0852                 1.3507                 1.4649
 IR Inten    --     28.5086                 7.5642                54.1443

                     25                     26                     27
                      A                      A                      A
 Frequencies --    957.5123               985.5385              1001.8840
 Red. masses --      1.3821                 1.7103                 2.7093
 Frc consts  --      0.7466                 0.9788                 1.6023
 IR Inten    --     26.4099                11.2115                62.9562

                     28                     29                     30
                      A                      A                      A
 Frequencies --   1082.9934              1160.2583              1181.9409
 Red. masses --      1.7681                 2.3411                 2.1361
 Frc consts  --      1.2219                 1.8569                 1.7582
 IR Inten    --     57.3619                27.4947               197.5188

                     31                     32                     33
                      A                      A                      A
 Frequencies --   1215.7639              1247.6438              1311.5277
 Red. masses --      1.8503                 3.3494                12.2425
 Frc consts  --      1.6114                 3.0719                12.4072
 IR Inten    --      1.5868               236.0135                88.9599

                     34                     35                     36
                      A                      A                      A
 Frequencies --   1362.5572              1376.7063              1384.9764
 Red. masses --      1.4680                 1.9675                 1.5732
 Frc consts  --      1.6057                 2.1971                 1.7780
 IR Inten    --      4.0743                29.9993                15.2718

                     37                     38                     39
                      A                      A                      A
 Frequencies --   1423.9584              1430.3870              1452.3193
 Red. masses --      1.5561                 1.3010                 1.2371
 Frc consts  --      1.8590                 1.5684                 1.5374
 IR Inten    --     54.7817                13.6004                11.3939

                     40                     41                     42
                      A                      A                      A
 Frequencies --   1519.1075              1523.5015              1535.8211
 Red. masses --      1.0415                 1.0490                 1.0457
 Frc consts  --      1.4160                 1.4345                 1.4533
 IR Inten    --      1.4355                 2.4140                 5.8943

                     43                     44                     45
                      A                      A                      A
 Frequencies --   1546.2167              1847.4172              2258.9965
 Red. masses --      1.0593                10.6298                13.9697
 Frc consts  --      1.4921                21.3750                42.0020
 IR Inten    --      8.4545               150.3039               436.5726

                     46                     47                     48
                      A                      A                      A
 Frequencies --   3060.7865              3066.5347              3069.8547
 Red. masses --      1.0349                 1.0357                 1.0841
 Frc consts  --      5.7121                 5.7380                 6.0195
 IR Inten    --     22.2342                17.1441                 5.0993

                     49                     50                     51
                      A                      A                      A
 Frequencies --   3126.4447              3133.4865              3140.8502
 Red. masses --      1.1023                 1.1023                 1.1032
 Frc consts  --      6.3479                 6.3769                 6.4120
 IR Inten    --     22.4370                23.4246                11.8143

                     52                     53                     54
                      A                      A                      A
 Frequencies --   3145.3891              3684.9691              3736.9155
 Red. masses --      1.1023                 1.0643                 1.0653
 Frc consts  --      6.4251                 8.5149                 8.7649
 IR Inten    --     27.4817                67.3747                54.2979

 - Thermochemistry -
 -------------------
 Temperature   298.150 Kelvin.  Pressure   1.00000 Atm.
 Atom     1 has atomic number  6 and mass  12.00000

 Molecular mass:   159.06439 amu.
 Principal axes and moments of inertia in atomic units:
                           1         2         3
     Eigenvalues --  1486.578531552.509042151.06857
           X            0.81579  -0.57722   0.03625
           Y            0.57735   0.81646   0.00781
           Z           -0.03410   0.01456   0.99931
 This molecule is an asymmetric top.
 Rotational symmetry number  1.
 Warning -- assumption of classical behavior for rotation
           may cause significant error
 Rotational temperatures (Kelvin)      0.05826     0.05579     0.04027
 Rotational constants (GHZ):           1.21402     1.16247     0.83900
 Zero-point vibrational energy     407376.5 (Joules/Mol)
                                   97.36533 (Kcal/Mol)
 Warning -- explicit consideration of  18 degrees of freedom as
           vibrations may cause significant error
 Vibrational temperatures:     76.77    82.06   118.97   182.62   257.79
          (Kelvin)            300.13   334.61   376.42   391.28   437.89
                              469.09   530.35   555.76   615.18   679.33
                              771.57   825.35   855.00   928.63   974.22
                             1048.13  1134.72  1284.81  1352.44  1377.65
                             1417.97  1441.49  1558.19  1669.35  1700.55
                             1749.21  1795.08  1887.00  1960.42  1980.77
                             1992.67  2048.76  2058.01  2089.56  2185.66
                             2191.98  2209.70  2224.66  2658.02  3250.19
                             4403.79  4412.06  4416.84  4498.26  4508.39
                             4518.98  4525.51  5301.85  5376.59

 Zero-point correction=                           0.155162 (Hartree/Particle)
 Thermal correction to Energy=                    0.167038
 Thermal correction to Enthalpy=                  0.167982
 Thermal correction to Gibbs Free Energy=         0.117277
 Sum of electronic and zero-point Energies=           -585.694202
 Sum of electronic and thermal Energies=              -585.682325
 Sum of electronic and thermal Enthalpies=            -585.681381
 Sum of electronic and thermal Free Energies=         -585.732086

                     E (Thermal)             CV                S
                      KCal/Mol        Cal/Mol-Kelvin    Cal/Mol-Kelvin
 Total                  104.818             42.692            106.717
 Electronic               0.000              0.000              0.000
 Translational            0.889              2.981             41.102
 Rotational               0.889              2.981             29.986
 Vibrational            103.041             36.730             35.630
 Vibration     1          0.596              1.976              4.689
 Vibration     2          0.596              1.975              4.557
 Vibration     3          0.600              1.961              3.826
 Vibration     4          0.611              1.926              2.992
 Vibration     5          0.629              1.868              2.337
 Vibration     6          0.642              1.828              2.056
 Vibration     7          0.653              1.791              1.859
 Vibration     8          0.669              1.743              1.651
 Vibration     9          0.675              1.725              1.584
 Vibration    10          0.695              1.665              1.393
 Vibration    11          0.710              1.623              1.280
 Vibration    12          0.741              1.537              1.086
 Vibration    13          0.755              1.499              1.014
 Vibration    14          0.789              1.410              0.867
 Vibration    15          0.829              1.312              0.732
 Vibration    16          0.891              1.170              0.573
 Vibration    17          0.930              1.088              0.497
 Vibration    18          0.952              1.044              0.460

 Optimization completed.
    -- Stationary point found.
 Normal termination of Gaussian 16 at Tue Dec  8 20:00:10 2020.

 ----------------------------------------------------------------------
 # B3LYP/6-311++G(d,p) empiricaldispersion=gd3bj scf=xqc pop=npa geom=c
 heck
 ----------------------------------------------------------------------

 ---------------------------------------
 CID_151297397_JID_1396_Energie_neutraal
 ---------------------------------------
 Structure from the checkpoint file:  "JID_1396.chk"
 Charge =  0 Multiplicity = 1

 SCF Done:  E(RB3LYP) =  -586.036524910     A.U. after   15 cycles
 Normal termination of Gaussian 16 at Tue Dec  8 20:02:07 2020.

 ----------------------------------------------------------------------
 # B3LYP/6-311++G(d,p) empiricaldispersion=gd3bj scf=xqc pop=npa geom=c
 heck
 ----------------------------------------------------------------------

 -------------------------------------
 CID_151297397_JID_1396_Energie_kation
 -------------------------------------
 Structure from the checkpoint file:  "JID_1396.chk"
 Charge =  1 Multiplicity = 2

 SCF Done:  E(UB3LYP) =  -585.685549140     A.U. after   25 cycles
 Normal termination of Gaussian 16 at Tue Dec  8 20:06:16 2020.
 Gaussian 16:  ES64L-G16RevA.03 25-Dec-2016

 ----------------------------------------------------------------------
 # B3LYP/6-311++G(d,p) empiricaldispersion=gd3bj scf=xqc pop=npa geom=c
 heck
 ----------------------------------------------------------------------

 ------------------------------------
 CID_151297397_JID_1396_Energie_anion
 ------------------------------------
 Structure from the checkpoint file:  "JID_1396.chk"
 Charge = -1 Multiplicity = 2

                         Standard orientation:
 ---------------------------------------------------------------------
 Center     Atomic      Atomic             Coordinates (Angstroms)
 Number     Number       Type             X           Y           Z
 ---------------------------------------------------------------------
      1          6           0       -2.008813   -0.900093   -1.086179
      2          6           0       -1.239679    0.294594   -0.507469
      3          6           0       -2.180831    1.276172    0.199379
      4          6           0       -0.131471   -0.186832    0.446614
      5          6           0        0.891444   -1.075531   -0.287355
      6          8           0        1.336487   -0.835953   -1.385390
      7          8           0        1.295376   -2.115266    0.476652
      8          7           0        0.694043    0.953341    0.994830
      9          7           0        1.204980    1.701902    0.151619
     10          7           0        1.720899    2.460054   -0.526443
     11          8           0       -0.716234   -0.824809    1.529625
     12          1           0       -2.489264   -1.472749   -0.287408
     13          1           0       -1.351881   -1.570137   -1.650365
     14          1           0       -2.785958   -0.545082   -1.770746
     15          1           0       -0.729278    0.807064   -1.331449
     16          1           0       -2.703849    0.781806    1.023145
     17          1           0       -1.640229    2.133951    0.609454
     18          1           0       -2.927160    1.648758   -0.509706
     19          1           0        1.992841   -2.578284   -0.025011
     20          1           0       -0.013596   -1.254043    2.045011
 ---------------------------------------------------------------------

 SCF Done:  E(UB3LYP) =  -586.034308358     A.U. after   30 cycles

 The electronic state is 2-A.
 Alpha  occ. eigenvalues --  -19.04969 -19.01688 -18.99206 -14.31594 -14.22121
 Alpha  occ. eigenvalues --  -14.21551 -10.17608 -10.15519 -10.07015 -10.05100
 Alpha  occ. eigenvalues --  -10.05094  -0.99625  -0.98567  -0.93401  -0.90187
 Alpha  occ. eigenvalues --   -0.82856  -0.69645  -0.60671  -0.57977  -0.51947
 Alpha  occ. eigenvalues --   -0.47714  -0.45079  -0.41169  -0.37242  -0.36851
 Alpha  occ. eigenvalues --   -0.36244  -0.34235  -0.33073  -0.31690  -0.30809
 Alpha  occ. eigenvalues --   -0.29819  -0.28784  -0.27800  -0.27378  -0.24305
 Alpha  occ. eigenvalues --   -0.23503  -0.22938  -0.21016  -0.20394  -0.17644
 Alpha  occ. eigenvalues --   -0.15278  -0.11628   0.05047
 Alpha virt. eigenvalues --    0.07760   0.07913   0.09839   0.10313   0.11337
 Alpha virt. eigenvalues --    0.11606   0.12262   0.13779   0.14088   0.14310
 Alpha virt. eigenvalues --    0.15149   0.16538   0.17730   0.18362   0.18867

  Beta  occ. eigenvalues --  -19.04880 -19.01664 -18.99131 -14.31291 -14.21637
  Beta  occ. eigenvalues --  -14.21627 -10.17491 -10.15411 -10.07018 -10.05086
  Beta  occ. eigenvalues --  -10.05080  -0.99317  -0.98075  -0.93318  -0.90023
  Beta  occ. eigenvalues --   -0.82521  -0.69583  -0.60376  -0.57937  -0.51726
  Beta  occ. eigenvalues --   -0.47529  -0.44877  -0.41020  -0.37032  -0.36635
  Beta  occ. eigenvalues --   -0.35065  -0.34066  -0.32876  -0.31251  -0.29849
  Beta  occ. eigenvalues --   -0.29715  -0.28724  -0.27719  -0.27173  -0.24214
  Beta  occ. eigenvalues --   -0.23458  -0.22910  -0.20822  -0.20178  -0.17151
  Beta  occ. eigenvalues --   -0.14913  -0.11464
  Beta virt. eigenvalues --    0.07691   0.09206   0.09792   0.10530   0.10801
  Beta virt. eigenvalues --    0.11839   0.12097   0.12616   0.13755   0.14203
  Beta virt. eigenvalues --    0.14372   0.15572   0.16827   0.17888   0.18565

 Mulliken charges and spin densities:
               1          2
     1  C   -0.439453  -0.183892
     2  C   -0.393340   0.470632
     3  C   -0.126494  -0.439969
     4  C    1.233458  -1.082028
     5  C   -0.236965   0.035159
     6  O   -0.261716   0.017670
     7  O   -0.211801   0.021890
     8  N   -0.186197  -0.212255
     9  N    0.393916   0.216913
    10  N   -0.456966   0.356893
    11  O   -0.185519   0.030117
    12  H    0.127590   0.015056
    13  H    0.112068   0.055431
    14  H   -0.119359   0.256322
    15  H    0.248057  -0.057156
    16  H    0.112805   0.046140
    17  H    0.063922   0.056757
    18  H    0.032311   0.091992
    19  H   -0.735806   1.031688
    20  H    0.029491   0.272638
 Sum of Mulliken charges =  -1.00000   1.00000

 Dipole moment (field-independent basis, Debye):
    X=             -4.9400    Y=              1.8549    Z=             -0.2879  Tot=              5.2846
 Quadrupole moment (field-independent basis, Debye-Ang):
   XX=            -97.0329   YY=           -103.1291   ZZ=            -86.2267
   XY=              3.8938   XZ=              2.1256   YZ=              2.5621

 Summary of Natural Population Analysis:

                                       Natural Population
                Natural  -----------------------------------------------
    Atom  No    Charge         Core      Valence    Rydberg      Total
 -----------------------------------------------------------------------
      C    1   -0.28470      0.99965     2.28017    0.00488     3.28470
      C    2   -0.12562      0.99957     2.11634    0.00971     3.12562
      C    3   -0.28528      0.99965     2.28030    0.00534     3.28528
      C    4    0.19223      0.99947     1.78659    0.02171     2.80777
      C    5    0.40911      0.99964     1.56377    0.02748     2.59089
      O    6   -0.30621      0.99987     3.30036    0.00598     4.30621
      O    7   -0.35047      0.99987     3.34266    0.00794     4.35047
      N    8   -0.22804      0.99970     2.71360    0.01474     3.72804
      N    9    0.13533      0.99969     2.34928    0.01569     3.36467
      N   10    0.01218      0.99982     2.47472    0.01328     3.48782
      O   11   -0.36767      0.99987     3.36056    0.00724     4.36767
      H   12    0.10220      0.00000     0.39669    0.00111     0.39780
      H   13    0.10435      0.00000     0.39481    0.00084     0.39565
      H   14    0.09511      0.00000     0.40388    0.00101     0.40489
      H   15    0.10783      0.00000     0.39063    0.00154     0.39217
      H   16    0.10209      0.00000     0.39680    0.00111     0.39791
      H   17    0.10481      0.00000     0.39426    0.00093     0.39519
      H   18    0.09355      0.00000     0.40558    0.00087     0.40645
      H   19    0.24742      0.00000     0.21739    0.03519     0.25258
      H   20    0.24179      0.00000     0.25396    0.00425     0.25821
 =======================================================================
   * Total *    0.00000     10.99679    30.82235    0.18085    42.00000

 Normal termination of Gaussian 16 at Tue Dec  8 20:11:15 2020.
