 Gaussian 16, Revision A.03,

 -----------------------------------------------------------
 # opt freq B3LYP/6-31G(d) empiricaldispersion=gd3bj scf=xqc
 -----------------------------------------------------------

 ------------------------------
 CID_90402388_JID_4325_neutraal
 ------------------------------
 Symbolic Z-matrix:
 Charge =  0 Multiplicity = 1

 SCF Done:  E(RB3LYP) =  -1027.89313408     A.U. after   15 cycles
 SCF Done:  E(RB3LYP) =  -1027.90131317     A.U. after   13 cycles
 SCF Done:  E(RB3LYP) =  -1027.90308568     A.U. after   12 cycles
 SCF Done:  E(RB3LYP) =  -1027.90359915     A.U. after   12 cycles
 SCF Done:  E(RB3LYP) =  -1027.90372754     A.U. after   12 cycles
 SCF Done:  E(RB3LYP) =  -1027.90375347     A.U. after   12 cycles
 SCF Done:  E(RB3LYP) =  -1027.90377645     A.U. after   11 cycles
 SCF Done:  E(RB3LYP) =  -1027.90378645     A.U. after   11 cycles
 SCF Done:  E(RB3LYP) =  -1027.90379238     A.U. after   11 cycles
 SCF Done:  E(RB3LYP) =  -1027.90379615     A.U. after   10 cycles
 SCF Done:  E(RB3LYP) =  -1027.91322965     A.U. after   10 cycles
 SCF Done:  E(RB3LYP) =  -1027.91323068     A.U. after    8 cycles
 SCF Done:  E(RB3LYP) =  -1027.91323098     A.U. after    8 cycles
 SCF Done:  E(RB3LYP) =  -1027.91323125     A.U. after    8 cycles
 SCF Done:  E(RB3LYP) =  -1027.91323133     A.U. after    7 cycles
 Optimization completed.
    -- Stationary point found.
 Normal termination of Gaussian 16 at Thu Dec 10 09:41:42 2020.

 --------------------------------------------------------------------
 #N Geom=AllCheck Guess=TCheck SCRF=Check GenChk RB3LYP/6-31G(d) Freq
 --------------------------------------------------------------------

 Structure from the checkpoint file:  "JID_4325.chk"
 ------------------------------
 CID_90402388_JID_4325_neutraal
 ------------------------------
 Charge =  0 Multiplicity = 1

 SCF Done:  E(RB3LYP) =  -1027.91323133     A.U. after    1 cycles

  Exact polarizability: 166.421   0.218 120.468  -6.094   3.512 101.383
 Approx polarizability: 214.843  -1.154 190.283 -14.640  16.571 162.446

                      1                      2                      3
                      A                      A                      A
 Frequencies --     19.0501                43.5750                63.4915
 Red. masses --      4.8835                 4.2500                 3.8178
 Frc consts  --      0.0010                 0.0048                 0.0091
 IR Inten    --      0.3491                 0.1139                 0.6792

                      4                      5                      6
                      A                      A                      A
 Frequencies --    104.8205               130.2047               163.5646
 Red. masses --      4.5064                 5.2318                 4.2647
 Frc consts  --      0.0292                 0.0523                 0.0672
 IR Inten    --      2.0432                 1.8130                 0.2190

                      7                      8                      9
                      A                      A                      A
 Frequencies --    200.5906               215.3774               233.4832
 Red. masses --      4.5124                 1.2046                 3.3818
 Frc consts  --      0.1070                 0.0329                 0.1086
 IR Inten    --      1.4492                 0.9994                 0.6628

                     10                     11                     12
                      A                      A                      A
 Frequencies --    247.3823               257.5458               272.0239
 Red. masses --      1.7915                 1.1909                 2.6274
 Frc consts  --      0.0646                 0.0465                 0.1145
 IR Inten    --      3.2042                 2.0484                 6.8345

                     13                     14                     15
                      A                      A                      A
 Frequencies --    289.4759               289.8786               297.9588
 Red. masses --      3.2357                 1.3547                 1.2982
 Frc consts  --      0.1597                 0.0671                 0.0679
 IR Inten    --     19.7582                82.3880                14.1206

                     16                     17                     18
                      A                      A                      A
 Frequencies --    324.5714               337.2471               373.8692
 Red. masses --      2.5423                 2.9872                 2.6107
 Frc consts  --      0.1578                 0.2002                 0.2150
 IR Inten    --      6.1289                 5.1815                 3.3399

                     19                     20                     21
                      A                      A                      A
 Frequencies --    379.5496               394.3179               400.7114
 Red. masses --      3.8911                 3.3215                 2.7766
 Frc consts  --      0.3303                 0.3043                 0.2627
 IR Inten    --      8.0972                33.0733                21.9143

                     22                     23                     24
                      A                      A                      A
 Frequencies --    430.9774               475.2975               517.1292
 Red. masses --      3.2995                 3.5427                 3.0130
 Frc consts  --      0.3611                 0.4715                 0.4747
 IR Inten    --     10.3494                 9.8202                 3.4684

                     25                     26                     27
                      A                      A                      A
 Frequencies --    528.1308               552.6190               594.4084
 Red. masses --      1.1578                 2.9780                 1.8271
 Frc consts  --      0.1903                 0.5358                 0.3804
 IR Inten    --    102.5327                24.4126               127.0355

                     28                     29                     30
                      A                      A                      A
 Frequencies --    615.1812               640.9955               703.4269
 Red. masses --      2.9128                 2.1586                 4.6464
 Frc consts  --      0.6495                 0.5226                 1.3546
 IR Inten    --     35.5663                45.3612                 5.4383

                     31                     32                     33
                      A                      A                      A
 Frequencies --    794.7063               796.9469               801.3549
 Red. masses --      2.4113                 1.1524                 3.0259
 Frc consts  --      0.8972                 0.4312                 1.1449
 IR Inten    --      1.2561                 2.1038                 3.4300

                     34                     35                     36
                      A                      A                      A
 Frequencies --    857.4702               933.9172               941.4635
 Red. masses --      2.8057                 3.6920                 2.5579
 Frc consts  --      1.2154                 1.8973                 1.3358
 IR Inten    --     73.2979                88.6233                40.3325

                     37                     38                     39
                      A                      A                      A
 Frequencies --    957.5916               962.8184               972.8192
 Red. masses --      1.6629                 1.5548                 1.5688
 Frc consts  --      0.8984                 0.8492                 0.8747
 IR Inten    --      1.0527                 0.6435                39.4470

                     40                     41                     42
                      A                      A                      A
 Frequencies --    986.9555               989.7846              1012.6943
 Red. masses --      1.2846                 3.5021                 2.7895
 Frc consts  --      0.7372                 2.0215                 1.6855
 IR Inten    --      1.0464                 8.0550                10.0949

                     43                     44                     45
                      A                      A                      A
 Frequencies --   1048.2144              1053.5285              1061.2387
 Red. masses --      2.0902                 1.5395                 2.9138
 Frc consts  --      1.3531                 1.0068                 1.9335
 IR Inten    --     46.7611                16.6785                65.8518

                     46                     47                     48
                      A                      A                      A
 Frequencies --   1069.7682              1092.5151              1159.8614
 Red. masses --      1.3565                 1.3773                 1.6534
 Frc consts  --      0.9146                 0.9686                 1.3105
 IR Inten    --     21.8012                 3.0744                32.0765

                     49                     50                     51
                      A                      A                      A
 Frequencies --   1205.8164              1218.9533              1242.5628
 Red. masses --      1.2928                 1.9641                 2.1038
 Frc consts  --      1.1075                 1.7194                 1.9138
 IR Inten    --      0.8815                49.8177                27.0002

                     52                     53                     54
                      A                      A                      A
 Frequencies --   1263.3885              1275.6814              1311.5329
 Red. masses --      2.6523                 2.8138                 3.4964
 Frc consts  --      2.4943                 2.6980                 3.5435
 IR Inten    --      1.5804                 2.6404                38.1186

                     55                     56                     57
                      A                      A                      A
 Frequencies --   1368.3346              1404.0861              1425.5910
 Red. masses --      1.4715                 1.2431                 1.2396
 Frc consts  --      1.6233                 1.4439                 1.4843
 IR Inten    --     75.0195                 6.2257                10.5094

                     58                     59                     60
                      A                      A                      A
 Frequencies --   1427.8005              1453.8263              1469.3137
 Red. masses --      1.2316                 1.2211                 2.1256
 Frc consts  --      1.4793                 1.5207                 2.7038
 IR Inten    --      8.9287                 7.1314                38.8131

                     61                     62                     63
                      A                      A                      A
 Frequencies --   1481.3928              1507.7958              1519.1323
 Red. masses --      1.1682                 1.0495                 1.1537
 Frc consts  --      1.5104                 1.4057                 1.5687
 IR Inten    --      4.5555                 0.6068                 1.5137

                     64                     65                     66
                      A                      A                      A
 Frequencies --   1521.4540              1524.2706              1528.1951
 Red. masses --      1.1492                 1.1417                 1.0482
 Frc consts  --      1.5674                 1.5628                 1.4423
 IR Inten    --      0.2635                 4.5380                 6.4503

                     67                     68                     69
                      A                      A                      A
 Frequencies --   1539.4250              1551.6575              1688.5997
 Red. masses --      1.0592                 1.0520                 1.3833
 Frc consts  --      1.4789                 1.4923                 2.3239
 IR Inten    --      8.3556                13.2882                58.7931

                     70                     71                     72
                      A                      A                      A
 Frequencies --   1728.7325              3050.1254              3050.9785
 Red. masses --      3.6222                 1.0370                 1.0348
 Frc consts  --      6.3778                 5.6840                 5.6751
 IR Inten    --    124.4933                10.1192                23.6193

                     73                     74                     75
                      A                      A                      A
 Frequencies --   3056.4581              3111.2098              3114.0677
 Red. masses --      1.0370                 1.1022                 1.1021
 Frc consts  --      5.7076                 6.2862                 6.2968
 IR Inten    --     27.3785                 7.1740                15.1924

                     76                     77                     78
                      A                      A                      A
 Frequencies --   3118.4910              3135.5111              3148.1745
 Red. masses --      1.1016                 1.1033                 1.1013
 Frc consts  --      6.3118                 6.3907                 6.4310
 IR Inten    --     45.5628                 6.3145                 8.8261

                     79                     80                     81
                      A                      A                      A
 Frequencies --   3151.1224              3163.0343              3175.1398
 Red. masses --      1.1000                 1.0539                 1.0563
 Frc consts  --      6.4355                 6.2122                 6.2740
 IR Inten    --     15.7551                 6.8201                 7.4314

                     82                     83                     84
                      A                      A                      A
 Frequencies --   3248.2429              3272.4741              3466.9217
 Red. masses --      1.1191                 1.1166                 1.0605
 Frc consts  --      6.9568                 7.0456                 7.5101
 IR Inten    --      4.0850                 2.8546               337.7250

                     85                     86                     87
                      A                      A                      A
 Frequencies --   3491.8656              3656.2196              3785.2165
 Red. masses --      1.0738                 1.0901                 1.0679
 Frc consts  --      7.7139                 8.5859                 9.0147
 IR Inten    --      5.7184                99.5563                67.6306

 - Thermochemistry -
 -------------------
 Temperature   298.150 Kelvin.  Pressure   1.00000 Atm.
 Atom     1 has atomic number  6 and mass  12.00000

 Molecular mass:   219.10415 amu.
 Principal axes and moments of inertia in atomic units:
                           1         2         3
     Eigenvalues --  1526.078265096.865925705.88177
           X            0.99996  -0.00185   0.00923
           Y            0.00201   0.99984  -0.01757
           Z           -0.00919   0.01759   0.99980
 This molecule is an asymmetric top.
 Rotational symmetry number  1.
 Warning -- assumption of classical behavior for rotation
           may cause significant error
 Rotational temperatures (Kelvin)      0.05676     0.01699     0.01518
 Rotational constants (GHZ):           1.18260     0.35409     0.31629
 Zero-point vibrational energy     684522.9 (Joules/Mol)
                                  163.60491 (Kcal/Mol)
 Warning -- explicit consideration of  28 degrees of freedom as
           vibrations may cause significant error
 Vibrational temperatures:     27.41    62.69    91.35   150.81   187.34
          (Kelvin)            235.33   288.61   309.88   335.93   355.93
                              370.55   391.38   416.49   417.07   428.70
                              466.99   485.22   537.91   546.09   567.34
                              576.53   620.08   683.85   744.03   759.86
                              795.10   855.22   885.11   922.25  1012.07
                             1143.41  1146.63  1152.97  1233.71  1343.70
                             1354.56  1377.76  1385.28  1399.67  1420.01
                             1424.08  1457.04  1508.15  1515.79  1526.89
                             1539.16  1571.89  1668.78  1734.90  1753.80
                             1787.77  1817.73  1835.42  1887.00  1968.73
                             2020.17  2051.11  2054.29  2091.73  2114.01
                             2131.39  2169.38  2185.69  2189.03  2193.09
                             2198.73  2214.89  2232.49  2429.52  2487.26
                             4388.45  4389.68  4397.56  4476.34  4480.45
                             4486.81  4511.30  4529.52  4533.76  4550.90
                             4568.32  4673.50  4708.36  4988.13  5024.02
                             5260.48  5446.08

 Zero-point correction=                           0.260721 (Hartree/Particle)
 Thermal correction to Energy=                    0.277159
 Thermal correction to Enthalpy=                  0.278103
 Thermal correction to Gibbs Free Energy=         0.217064
 Sum of electronic and zero-point Energies=          -1027.652510
 Sum of electronic and thermal Energies=             -1027.636072
 Sum of electronic and thermal Enthalpies=           -1027.635128
 Sum of electronic and thermal Free Energies=        -1027.696168

                     E (Thermal)             CV                S
                      KCal/Mol        Cal/Mol-Kelvin    Cal/Mol-Kelvin
 Total                  173.920             62.550            128.468
 Electronic               0.000              0.000              0.000
 Translational            0.889              2.981             42.056
 Rotational               0.889              2.981             32.162
 Vibrational            172.142             56.588             54.250
 Vibration     1          0.593              1.986              6.731
 Vibration     2          0.595              1.980              5.090
 Vibration     3          0.597              1.972              4.346
 Vibration     4          0.605              1.945              3.363
 Vibration     5          0.612              1.923              2.943
 Vibration     6          0.623              1.887              2.508
 Vibration     7          0.638              1.839              2.128
 Vibration     8          0.645              1.818              1.998
 Vibration     9          0.654              1.790              1.852
 Vibration    10          0.661              1.767              1.749
 Vibration    11          0.667              1.750              1.678
 Vibration    12          0.675              1.725              1.583
 Vibration    13          0.686              1.693              1.477
 Vibration    14          0.686              1.693              1.475
 Vibration    15          0.691              1.678              1.428
 Vibration    16          0.709              1.626              1.287
 Vibration    17          0.718              1.601              1.225
 Vibration    18          0.745              1.526              1.064
 Vibration    19          0.750              1.514              1.041
 Vibration    20          0.761              1.482              0.984
 Vibration    21          0.767              1.469              0.960
 Vibration    22          0.792              1.403              0.855
 Vibration    23          0.832              1.305              0.723
 Vibration    24          0.872              1.212              0.617
 Vibration    25          0.883              1.188              0.591
 Vibration    26          0.908              1.134              0.539
 Vibration    27          0.952              1.044              0.459
 Vibration    28          0.975              1.000              0.424

 Optimization completed.
    -- Stationary point found.
 Normal termination of Gaussian 16 at Thu Dec 10 09:51:25 2020.

 ----------------------------------------------------------------------
 # B3LYP/6-311++G(d,p) empiricaldispersion=gd3bj scf=xqc pop=npa geom=c
 heck
 ----------------------------------------------------------------------

 --------------------------------------
 CID_90402388_JID_4325_Energie_neutraal
 --------------------------------------
 Structure from the checkpoint file:  "JID_4325.chk"
 Charge =  0 Multiplicity = 1

 SCF Done:  E(RB3LYP) =  -1028.14278867     A.U. after   16 cycles
 Normal termination of Gaussian 16 at Thu Dec 10 09:56:42 2020.

 ----------------------------------------------------------------------
 # B3LYP/6-311++G(d,p) empiricaldispersion=gd3bj scf=xqc pop=npa geom=c
 heck
 ----------------------------------------------------------------------

 ------------------------------------
 CID_90402388_JID_4325_Energie_kation
 ------------------------------------
 Structure from the checkpoint file:  "JID_4325.chk"
 Charge =  1 Multiplicity = 2

 SCF Done:  E(UB3LYP) =  -1027.85141186     A.U. after   26 cycles
 Normal termination of Gaussian 16 at Thu Dec 10 10:08:49 2020.
 Gaussian 16:  ES64L-G16RevA.03 25-Dec-2016

 ----------------------------------------------------------------------
 # B3LYP/6-311++G(d,p) empiricaldispersion=gd3bj scf=xqc pop=npa geom=c
 heck
 ----------------------------------------------------------------------

 -----------------------------------
 CID_90402388_JID_4325_Energie_anion
 -----------------------------------
 Structure from the checkpoint file:  "JID_4325.chk"
 Charge = -1 Multiplicity = 2

                         Standard orientation:
 ---------------------------------------------------------------------
 Center     Atomic      Atomic             Coordinates (Angstroms)
 Number     Number       Type             X           Y           Z
 ---------------------------------------------------------------------
      1          6           0        3.790346   -0.673460   -0.541790
      2          6           0        2.708171   -0.004802    0.315539
      3          6           0        2.549311   -0.741383    1.645753
      4          6           0        2.975410    1.489713    0.488249
      5         16           0        1.140346   -0.205176   -0.705405
      6          8           0        0.913062   -1.706953   -0.779008
      7          7           0        0.068480    0.533553    0.413214
      8          6           0       -1.278058    0.829722   -0.051186
      9          6           0       -1.742809    2.247361    0.178722
     10          6           0       -1.371892    1.802044   -1.208667
     11          6           0       -2.288413   -0.279888    0.042226
     12          7           0       -3.411322    0.009762    0.618559
     13          8           0       -4.266474   -1.138024    0.570673
     14          7           0       -1.992299   -1.483068   -0.530784
     15          1           0        4.756673   -0.594040   -0.031468
     16          1           0        3.883877   -0.186505   -1.519354
     17          1           0        3.564447   -1.731004   -0.701664
     18          1           0        3.528224   -0.839734    2.128389
     19          1           0        1.899136   -0.199980    2.341209
     20          1           0        2.146631   -1.745509    1.478837
     21          1           0        3.037337    1.997673   -0.481051
     22          1           0        2.191234    1.969830    1.078035
     23          1           0        3.935115    1.628901    0.999856
     24          1           0        0.058553    0.043653    1.307847
     25          1           0       -2.789277    2.384356    0.420551
     26          1           0       -1.042467    2.889078    0.702891
     27          1           0       -0.438433    2.157690   -1.633509
     28          1           0       -2.166524    1.625714   -1.925860
     29          1           0       -5.038835   -0.824546    1.062215
     30          1           0       -1.019491   -1.738366   -0.691871
     31          1           0       -2.630841   -2.232147   -0.301895
 ---------------------------------------------------------------------

 SCF Done:  E(UB3LYP) =  -1028.13030145     A.U. after   33 cycles
 SCF Done:  E(UB3LYP) =  -1028.13030145     a.u. after    1 cycles

 The electronic state is 2-A.
 Alpha  occ. eigenvalues --  -88.87016 -19.06351 -19.00088 -14.25104 -14.24501
 Alpha  occ. eigenvalues --  -14.22546 -10.14844 -10.14437 -10.12355 -10.09594
 Alpha  occ. eigenvalues --  -10.08735 -10.07194 -10.07094 -10.06861  -7.94554
 Alpha  occ. eigenvalues --   -5.90921  -5.90644  -5.90105  -0.97770  -0.93846
 Alpha  occ. eigenvalues --   -0.85862  -0.82466  -0.76496  -0.73477  -0.72476
 Alpha  occ. eigenvalues --   -0.60656  -0.60277  -0.59643  -0.54943  -0.52471
 Alpha  occ. eigenvalues --   -0.47484  -0.46315  -0.45424  -0.43096  -0.41198
 Alpha  occ. eigenvalues --   -0.40165  -0.38795  -0.36667  -0.35998  -0.35729
 Alpha  occ. eigenvalues --   -0.34936  -0.32704  -0.32042  -0.31109  -0.29945
 Alpha  occ. eigenvalues --   -0.28870  -0.28820  -0.28024  -0.27366  -0.25431
 Alpha  occ. eigenvalues --   -0.25290  -0.24757  -0.23766  -0.21548  -0.21177
 Alpha  occ. eigenvalues --   -0.19352  -0.17154  -0.15209  -0.13029   0.04294
 Alpha virt. eigenvalues --    0.05731   0.07188   0.07547   0.08401   0.08970
 Alpha virt. eigenvalues --    0.09225   0.09687   0.09972   0.10841   0.10979
 Alpha virt. eigenvalues --    0.11321   0.11623   0.11957   0.12957   0.13395

  Beta  occ. eigenvalues --  -88.87010 -19.06326 -19.00081 -14.25091 -14.24490
  Beta  occ. eigenvalues --  -14.22537 -10.14845 -10.14438 -10.12346 -10.09582
  Beta  occ. eigenvalues --  -10.08725 -10.07161 -10.07047 -10.06814  -7.94547
  Beta  occ. eigenvalues --   -5.90915  -5.90628  -5.90100  -0.97725  -0.93833
  Beta  occ. eigenvalues --   -0.85845  -0.82445  -0.76479  -0.73443  -0.72443
  Beta  occ. eigenvalues --   -0.60590  -0.60213  -0.59587  -0.54915  -0.52436
  Beta  occ. eigenvalues --   -0.47459  -0.46241  -0.45407  -0.43071  -0.41160
  Beta  occ. eigenvalues --   -0.40126  -0.38773  -0.36639  -0.35955  -0.35693
  Beta  occ. eigenvalues --   -0.34894  -0.32682  -0.32024  -0.31075  -0.29897
  Beta  occ. eigenvalues --   -0.28838  -0.28784  -0.27984  -0.27337  -0.25393
  Beta  occ. eigenvalues --   -0.25248  -0.24730  -0.23749  -0.21519  -0.21156
  Beta  occ. eigenvalues --   -0.19311  -0.17139  -0.15192  -0.13011
  Beta virt. eigenvalues --    0.06330   0.07006   0.07794   0.08056   0.08676
  Beta virt. eigenvalues --    0.09365   0.09668   0.10047   0.10311   0.11005
  Beta virt. eigenvalues --    0.11382   0.11683   0.11927   0.12131   0.13169

 Mulliken charges and spin densities:
               1          2
     1  C    0.440190  -0.956229
     2  C   -2.298706   2.510290
     3  C    0.593506  -1.257101
     4  C    1.670917  -2.160557
     5  S    1.466892  -1.063164
     6  O   -0.383671   0.013112
     7  N   -0.198572   0.035855
     8  C   -0.016604   0.127258
     9  C    1.174568  -1.357266
    10  C   -0.326398   0.126583
    11  C   -1.369559   0.651677
    12  N   -0.262676  -0.046948
    13  O   -0.123036   0.017962
    14  N   -0.399443  -0.023332
    15  H   -0.344061   0.513589
    16  H   -0.130387   0.274525
    17  H    0.027560   0.147363
    18  H   -0.496799   0.685021
    19  H   -0.381386   0.523722
    20  H    0.042211   0.132093
    21  H   -0.365820   0.505601
    22  H   -0.008142   0.202519
    23  H   -0.480402   0.665501
    24  H    0.353128  -0.018132
    25  H    0.187890   0.019845
    26  H   -0.094821   0.233334
    27  H    0.028040   0.136597
    28  H    0.098604   0.071843
    29  H    0.013412   0.260260
    30  H    0.377565  -0.042490
    31  H    0.205997   0.070669
 Sum of Mulliken charges =  -1.00000   1.00000

 Dipole moment (field-independent basis, Debye):
    X=             -5.7635    Y=             -0.6341    Z=             -3.0469  Tot=              6.5501
 Quadrupole moment (field-independent basis, Debye-Ang):
   XX=           -188.9582   YY=           -130.9905   ZZ=           -129.5606
   XY=             -7.7734   XZ=             -8.1413   YZ=             -2.3733

 Summary of Natural Population Analysis:

                                       Natural Population
                Natural  -----------------------------------------------
    Atom  No    Charge         Core      Valence    Rydberg      Total
 -----------------------------------------------------------------------
      C    1   -0.29700      0.99960     2.28864    0.00876     3.29700
      C    2   -0.10795      0.99957     2.08876    0.01961     3.10795
      C    3   -0.30157      0.99959     2.29306    0.00891     3.30157
      C    4   -0.29631      0.99959     2.28781    0.00891     3.29631
      S    5    0.66557      4.99935     2.28014    0.05494     7.33443
      O    6   -0.49025      0.99993     3.48510    0.00522     4.49025
      N    7   -0.41953      0.99973     2.90799    0.01182     3.91953
      C    8    0.02948      0.99950     1.95455    0.01647     2.97052
      C    9   -0.18556      0.99959     2.17743    0.00854     3.18556
      C   10   -0.18979      0.99959     2.18194    0.00826     3.18979
      C   11    0.18898      0.99957     1.79152    0.01993     2.81102
      N   12   -0.13333      0.99962     2.62053    0.01318     3.63333
      O   13   -0.30839      0.99990     3.30094    0.00755     4.30839
      N   14   -0.40616      0.99968     2.89864    0.00784     3.90616
      H   15    0.11004      0.00000     0.38839    0.00157     0.38996
      H   16    0.10239      0.00000     0.39639    0.00123     0.39761
      H   17    0.11100      0.00000     0.38795    0.00106     0.38900
      H   18    0.11286      0.00000     0.38508    0.00206     0.38714
      H   19    0.10125      0.00000     0.39733    0.00142     0.39875
      H   20    0.11217      0.00000     0.38651    0.00133     0.38783
      H   21    0.10325      0.00000     0.39487    0.00187     0.39675
      H   22    0.10977      0.00000     0.38817    0.00205     0.39023
      H   23    0.11091      0.00000     0.38622    0.00287     0.38909
      H   24    0.19149      0.00000     0.30535    0.00316     0.30851
      H   25    0.11503      0.00000     0.38346    0.00150     0.38497
      H   26    0.10857      0.00000     0.39011    0.00132     0.39143
      H   27    0.10929      0.00000     0.38926    0.00145     0.39071
      H   28    0.10750      0.00000     0.39159    0.00091     0.39250
      H   29    0.23616      0.00000     0.25890    0.00495     0.26384
      H   30    0.21132      0.00000     0.28661    0.00207     0.28868
      H   31    0.19880      0.00000     0.29962    0.00157     0.30120
 =======================================================================
   * Total *    0.00000     17.99481    40.77287    0.23232    59.00000

 Normal termination of Gaussian 16 at Thu Dec 10 10:24:18 2020.
