 Gaussian 16, Revision A.03,

 -----------------------------------------------------------
 # opt freq B3LYP/6-31G(d) empiricaldispersion=gd3bj scf=xqc
 -----------------------------------------------------------

 ------------------------------
 CID_62205850_JID_5897_neutraal
 ------------------------------
 Symbolic Z-matrix:
 Charge =  0 Multiplicity = 1

 SCF Done:  E(RB3LYP) =  -738.298643707     A.U. after   15 cycles
 SCF Done:  E(RB3LYP) =  -738.303162063     A.U. after   12 cycles
 SCF Done:  E(RB3LYP) =  -738.303681271     A.U. after   11 cycles
 SCF Done:  E(RB3LYP) =  -738.303837481     A.U. after   11 cycles
 SCF Done:  E(RB3LYP) =  -738.304110705     A.U. after   12 cycles
 SCF Done:  E(RB3LYP) =  -738.304189423     A.U. after   12 cycles
 SCF Done:  E(RB3LYP) =  -738.304389525     A.U. after   11 cycles
 SCF Done:  E(RB3LYP) =  -738.304675076     A.U. after   12 cycles
 SCF Done:  E(RB3LYP) =  -738.304804832     A.U. after   12 cycles
 SCF Done:  E(RB3LYP) =  -738.304840859     A.U. after   10 cycles
 SCF Done:  E(RB3LYP) =  -738.305002884     A.U. after    7 cycles
 SCF Done:  E(RB3LYP) =  -738.305002931     A.U. after    7 cycles
 SCF Done:  E(RB3LYP) =  -738.305002990     A.U. after    8 cycles
 SCF Done:  E(RB3LYP) =  -738.305003046     A.U. after    8 cycles
 SCF Done:  E(RB3LYP) =  -738.305003086     A.U. after    7 cycles
 Optimization completed.
    -- Stationary point found.
 Normal termination of Gaussian 16 at Thu Dec 10 17:32:25 2020.

 --------------------------------------------------------------------
 #N Geom=AllCheck Guess=TCheck SCRF=Check GenChk RB3LYP/6-31G(d) Freq
 --------------------------------------------------------------------

 Structure from the checkpoint file:  "JID_5897.chk"
 ------------------------------
 CID_62205850_JID_5897_neutraal
 ------------------------------
 Charge =  0 Multiplicity = 1

 SCF Done:  E(RB3LYP) =  -738.305003086     A.U. after    1 cycles

  Exact polarizability: 220.352  -0.711 108.482  -6.970   1.951  60.878
 Approx polarizability: 282.599   9.978 201.107 -13.751   3.607  97.190

                      1                      2                      3
                      A                      A                      A
 Frequencies --     21.9511                27.4130                66.9455
 Red. masses --      4.7929                 5.5599                 1.1652
 Frc consts  --      0.0014                 0.0025                 0.0031
 IR Inten    --      1.9135                 0.4868                 0.6100

                      4                      5                      6
                      A                      A                      A
 Frequencies --     75.2466                94.9000               137.2660
 Red. masses --      3.9539                 6.4024                 6.6114
 Frc consts  --      0.0132                 0.0340                 0.0734
 IR Inten    --      1.2424                 0.1101                 0.1196

                      7                      8                      9
                      A                      A                      A
 Frequencies --    146.0757               177.9524               249.3908
 Red. masses --      6.0803                 4.1441                 3.9334
 Frc consts  --      0.0764                 0.0773                 0.1441
 IR Inten    --      2.5657                 5.4985                 4.8510

                     10                     11                     12
                      A                      A                      A
 Frequencies --    282.9632               290.6658               310.2994
 Red. masses --      2.4150                 2.4416                 2.9911
 Frc consts  --      0.1139                 0.1215                 0.1697
 IR Inten    --     33.1802                40.3267                33.7513

                     13                     14                     15
                      A                      A                      A
 Frequencies --    354.8261               431.6239               460.2160
 Red. masses --      6.1946                 4.2875                 5.9315
 Frc consts  --      0.4595                 0.4706                 0.7402
 IR Inten    --      2.1036                 6.0500                 9.1325

                     16                     17                     18
                      A                      A                      A
 Frequencies --    531.3729               535.0446               612.0404
 Red. masses --      4.9860                 1.4639                 3.1162
 Frc consts  --      0.8295                 0.2469                 0.6878
 IR Inten    --      7.8304                69.1741                25.5119

                     19                     20                     21
                      A                      A                      A
 Frequencies --    622.8175               660.9482               684.1115
 Red. masses --      3.6902                 4.9358                 4.8908
 Frc consts  --      0.8434                 1.2704                 1.3486
 IR Inten    --      5.6657                12.9092                26.9350

                     22                     23                     24
                      A                      A                      A
 Frequencies --    687.4756               713.3054               744.7742
 Red. masses --      4.3666                 4.4816                 6.0439
 Frc consts  --      1.2159                 1.3435                 1.9752
 IR Inten    --     54.1538                 2.3771                46.9773

                     25                     26                     27
                      A                      A                      A
 Frequencies --    751.8860               763.2626               779.0511
 Red. masses --      1.7334                 1.3813                 2.9072
 Frc consts  --      0.5774                 0.4741                 1.0396
 IR Inten    --     14.7284                30.0764                17.4051

                     28                     29                     30
                      A                      A                      A
 Frequencies --    815.0743               862.1803               888.3441
 Red. masses --      4.7309                 1.3170                 1.3261
 Frc consts  --      1.8518                 0.5768                 0.6166
 IR Inten    --      5.4728                12.5228                 3.7262

                     31                     32                     33
                      A                      A                      A
 Frequencies --    967.7655              1005.5823              1017.9547
 Red. masses --      7.8964                 3.5828                 4.5088
 Frc consts  --      4.3573                 2.1346                 2.7527
 IR Inten    --     10.0091                31.3464                19.4143

                     34                     35                     36
                      A                      A                      A
 Frequencies --   1049.9677              1058.9509              1084.5378
 Red. masses --      1.3347                 3.2790                 1.5248
 Frc consts  --      0.8669                 2.1664                 1.0567
 IR Inten    --     50.6809                70.9736                16.8170

                     37                     38                     39
                      A                      A                      A
 Frequencies --   1126.8614              1156.8369              1200.3120
 Red. masses --      4.1792                 1.3261                 1.6501
 Frc consts  --      3.1267                 1.0456                 1.4007
 IR Inten    --    512.7419                11.2181                 1.2436

                     40                     41                     42
                      A                      A                      A
 Frequencies --   1227.9350              1246.4898              1261.3244
 Red. masses --      1.8093                 1.5655                 2.5687
 Frc consts  --      1.6074                 1.4331                 2.4078
 IR Inten    --      2.3443                32.7261                69.9852

                     43                     44                     45
                      A                      A                      A
 Frequencies --   1287.7306              1355.1827              1391.7105
 Red. masses --      2.3462                 3.8150                 3.1680
 Frc consts  --      2.2923                 4.1280                 3.6152
 IR Inten    --      8.0271                27.7386                25.7741

                     46                     47                     48
                      A                      A                      A
 Frequencies --   1412.0369              1425.5398              1443.5552
 Red. masses --      3.9163                 4.6742                 5.1596
 Frc consts  --      4.6006                 5.5964                 6.3349
 IR Inten    --    178.8363                 5.6502               125.4362

                     49                     50                     51
                      A                      A                      A
 Frequencies --   1464.1096              1490.9125              1513.8158
 Red. masses --      1.8613                 1.8617                 1.0701
 Frc consts  --      2.3507                 2.4381                 1.4448
 IR Inten    --     19.1421                18.8727                 9.2479

                     52                     53                     54
                      A                      A                      A
 Frequencies --   1532.8003              1544.5780              1604.3523
 Red. masses --      1.6396                 1.4892                 6.0333
 Frc consts  --      2.2697                 2.0932                 9.1497
 IR Inten    --     25.7678                 4.5970               597.0996

                     55                     56                     57
                      A                      A                      A
 Frequencies --   1640.8810              1660.2136              1820.0104
 Red. masses --      5.4916                 7.5791                 9.3978
 Frc consts  --      8.7118                12.3083                18.3411
 IR Inten    --     15.7314               583.9668               505.5813

                     58                     59                     60
                      A                      A                      A
 Frequencies --   3064.5156              3136.7156              3180.1856
 Red. masses --      1.0386                 1.0998                 1.1039
 Frc consts  --      5.7468                 6.3755                 6.5779
 IR Inten    --     63.0914                16.0818                 4.1768

                     61                     62                     63
                      A                      A                      A
 Frequencies --   3276.6175              3280.8390              3281.4273
 Red. masses --      1.0963                 1.0982                 1.0943
 Frc consts  --      6.9345                 6.9649                 6.9426
 IR Inten    --      2.8966                 0.9811                 2.0349

                     64                     65                     66
                      A                      A                      A
 Frequencies --   3298.1617              3612.7610              3709.3808
 Red. masses --      1.0996                 1.0759                 1.0642
 Frc consts  --      7.0472                 8.2741                 8.6272
 IR Inten    --      2.5036                53.9748                94.3905

 - Thermochemistry -
 -------------------
 Temperature   298.150 Kelvin.  Pressure   1.00000 Atm.
 Atom     1 has atomic number  6 and mass  12.00000

 Molecular mass:   207.06439 amu.
 Principal axes and moments of inertia in atomic units:
                           1         2         3
     Eigenvalues --   664.082588167.400848643.77765
           X            0.99997  -0.00802  -0.00223
           Y            0.00803   0.99994   0.00733
           Z            0.00217  -0.00734   0.99997
 This molecule is an asymmetric top.
 Rotational symmetry number  1.
 Warning -- assumption of classical behavior for rotation
           may cause significant error
 Rotational temperatures (Kelvin)      0.13043     0.01060     0.01002
 Rotational constants (GHZ):           2.71765     0.22097     0.20879
 Zero-point vibrational energy     476185.4 (Joules/Mol)
                                  113.81103 (Kcal/Mol)
 Warning -- explicit consideration of  18 degrees of freedom as
           vibrations may cause significant error
 Vibrational temperatures:     31.58    39.44    96.32   108.26   136.54
          (Kelvin)            197.50   210.17   256.03   358.82   407.12
                              418.20   446.45   510.52   621.01   662.15
                              764.53   769.81   880.59   896.10   950.96
                              984.28   989.12  1026.29  1071.56  1081.80
                             1098.16  1120.88  1172.71  1240.49  1278.13
                             1392.40  1446.81  1464.61  1510.67  1523.59
                             1560.41  1621.30  1664.43  1726.98  1766.72
                             1793.42  1814.76  1852.76  1949.81  2002.36
                             2031.61  2051.03  2076.95  2106.53  2145.09
                             2178.04  2205.36  2222.30  2308.31  2360.86
                             2388.68  2618.59  4409.15  4513.03  4575.58
                             4714.32  4720.40  4721.24  4745.32  5197.96
                             5336.97

 Zero-point correction=                           0.181369 (Hartree/Particle)
 Thermal correction to Energy=                    0.194993
 Thermal correction to Enthalpy=                  0.195938
 Thermal correction to Gibbs Free Energy=         0.138518
 Sum of electronic and zero-point Energies=           -738.123634
 Sum of electronic and thermal Energies=              -738.110010
 Sum of electronic and thermal Enthalpies=            -738.109065
 Sum of electronic and thermal Free Energies=         -738.166485

                     E (Thermal)             CV                S
                      KCal/Mol        Cal/Mol-Kelvin    Cal/Mol-Kelvin
 Total                  122.360             49.484            120.849
 Electronic               0.000              0.000              0.000
 Translational            0.889              2.981             41.888
 Rotational               0.889              2.981             32.217
 Vibrational            120.583             43.522             46.745
 Vibration     1          0.593              1.985              6.449
 Vibration     2          0.593              1.984              6.008
 Vibration     3          0.598              1.970              4.241
 Vibration     4          0.599              1.966              4.011
 Vibration     5          0.603              1.953              3.556
 Vibration     6          0.614              1.916              2.842
 Vibration     7          0.617              1.907              2.723
 Vibration     8          0.628              1.869              2.350
 Vibration     9          0.662              1.764              1.735
 Vibration    10          0.682              1.705              1.516
 Vibration    11          0.687              1.691              1.470
 Vibration    12          0.699              1.654              1.361
 Vibration    13          0.731              1.565              1.145
 Vibration    14          0.793              1.401              0.853
 Vibration    15          0.818              1.338              0.765
 Vibration    16          0.886              1.181              0.584
 Vibration    17          0.890              1.173              0.576
 Vibration    18          0.971              1.006              0.429

 Optimization completed.
    -- Stationary point found.
 Normal termination of Gaussian 16 at Thu Dec 10 17:38:30 2020.

 ----------------------------------------------------------------------
 # B3LYP/6-311++G(d,p) empiricaldispersion=gd3bj scf=xqc pop=npa geom=c
 heck
 ----------------------------------------------------------------------

 --------------------------------------
 CID_62205850_JID_5897_Energie_neutraal
 --------------------------------------
 Structure from the checkpoint file:  "JID_5897.chk"
 Charge =  0 Multiplicity = 1

 SCF Done:  E(RB3LYP) =  -738.521997744     A.U. after   15 cycles
 Normal termination of Gaussian 16 at Thu Dec 10 17:41:05 2020.

 ----------------------------------------------------------------------
 # B3LYP/6-311++G(d,p) empiricaldispersion=gd3bj scf=xqc pop=npa geom=c
 heck
 ----------------------------------------------------------------------

 ------------------------------------
 CID_62205850_JID_5897_Energie_kation
 ------------------------------------
 Structure from the checkpoint file:  "JID_5897.chk"
 Charge =  1 Multiplicity = 2

 SCF Done:  E(UB3LYP) =  -738.252366023     A.U. after   22 cycles
 Normal termination of Gaussian 16 at Thu Dec 10 17:46:29 2020.
 Gaussian 16:  ES64L-G16RevA.03 25-Dec-2016

 ----------------------------------------------------------------------
 # B3LYP/6-311++G(d,p) empiricaldispersion=gd3bj scf=xqc pop=npa geom=c
 heck
 ----------------------------------------------------------------------

 -----------------------------------
 CID_62205850_JID_5897_Energie_anion
 -----------------------------------
 Structure from the checkpoint file:  "JID_5897.chk"
 Charge = -1 Multiplicity = 2

                         Standard orientation:
 ---------------------------------------------------------------------
 Center     Atomic      Atomic             Coordinates (Angstroms)
 Number     Number       Type             X           Y           Z
 ---------------------------------------------------------------------
      1          6           0        5.497434   -0.270842   -0.249865
      2          7           0        4.074173   -0.072386   -0.061377
      3          6           0        3.064349   -0.911753   -0.415976
      4          6           0        1.897562   -0.347602    0.077425
      5          6           0        2.316262    0.846369    0.714161
      6          7           0        3.636433    1.006426    0.619638
      7          7           0        0.602110   -0.874686   -0.040434
      8          6           0       -0.521024   -0.102966   -0.131971
      9          6           0       -0.743279    1.228649   -0.427610
     10          6           0       -2.153427    1.389628   -0.391033
     11          6           0       -2.703069    0.172186   -0.080828
     12          8           0       -1.681413   -0.754900    0.084504
     13          6           0       -4.054899   -0.311106    0.092580
     14          8           0       -4.382194   -1.452099    0.360564
     15          8           0       -4.962981    0.694483   -0.084536
     16          1           0        5.968533    0.710338   -0.317703
     17          1           0        5.933652   -0.823006    0.589937
     18          1           0        5.668553   -0.824804   -1.176045
     19          1           0        3.236964   -1.819686   -0.974909
     20          1           0        1.710392    1.586762    1.216495
     21          1           0        0.443647   -1.839907    0.214900
     22          1           0        0.006313    1.969113   -0.657896
     23          1           0       -2.712156    2.295892   -0.575310
     24          1           0       -5.831652    0.274561    0.050187
 ---------------------------------------------------------------------

 SCF Done:  E(UB3LYP) =  -738.519142311     A.U. after   33 cycles
 SCF Done:  E(UB3LYP) =  -738.519142311     a.u. after    1 cycles

 The electronic state is 2-A.
 Alpha  occ. eigenvalues --  -19.07663 -19.05410 -18.98247 -14.29813 -14.25267
 Alpha  occ. eigenvalues --  -14.23764 -10.17343 -10.16165 -10.11628 -10.11490
 Alpha  occ. eigenvalues --  -10.10918 -10.10638 -10.09673 -10.06779 -10.06245
 Alpha  occ. eigenvalues --   -1.01428  -0.98693  -0.96058  -0.89525  -0.85463
 Alpha  occ. eigenvalues --   -0.74952  -0.70143  -0.69563  -0.64706  -0.60729
 Alpha  occ. eigenvalues --   -0.55359  -0.52577  -0.49700  -0.48619  -0.46316
 Alpha  occ. eigenvalues --   -0.44837  -0.43475  -0.40178  -0.38483  -0.37516
 Alpha  occ. eigenvalues --   -0.36994  -0.36768  -0.34674  -0.33205  -0.32314
 Alpha  occ. eigenvalues --   -0.32270  -0.30900  -0.30746  -0.30077  -0.29124
 Alpha  occ. eigenvalues --   -0.27535  -0.24629  -0.21166  -0.20391  -0.18412
 Alpha  occ. eigenvalues --   -0.16612  -0.16455  -0.15402  -0.09230   0.03952
 Alpha virt. eigenvalues --    0.05323   0.07478   0.07619   0.07927   0.08715
 Alpha virt. eigenvalues --    0.09718   0.10499   0.10849   0.11261   0.11973
 Alpha virt. eigenvalues --    0.12773   0.13564   0.14106   0.14678   0.14752

  Beta  occ. eigenvalues --  -19.07554 -19.05374 -18.98068 -14.29797 -14.25260
  Beta  occ. eigenvalues --  -14.23764 -10.17150 -10.16008 -10.11622 -10.11433
  Beta  occ. eigenvalues --  -10.10869 -10.10622 -10.09674 -10.06600 -10.06307
  Beta  occ. eigenvalues --   -1.01237  -0.98510  -0.96037  -0.89262  -0.85387
  Beta  occ. eigenvalues --   -0.74922  -0.69953  -0.69482  -0.64482  -0.60645
  Beta  occ. eigenvalues --   -0.55090  -0.52421  -0.49636  -0.48538  -0.46228
  Beta  occ. eigenvalues --   -0.44773  -0.43347  -0.40073  -0.38411  -0.37408
  Beta  occ. eigenvalues --   -0.36542  -0.36470  -0.34564  -0.32965  -0.32253
  Beta  occ. eigenvalues --   -0.31776  -0.30799  -0.30625  -0.30012  -0.29012
  Beta  occ. eigenvalues --   -0.27395  -0.24428  -0.20576  -0.20239  -0.17780
  Beta  occ. eigenvalues --   -0.16478  -0.16358  -0.15077  -0.08825
  Beta virt. eigenvalues --    0.06779   0.07490   0.07702   0.08271   0.08525
  Beta virt. eigenvalues --    0.08855   0.09967   0.10826   0.10909   0.11761
  Beta virt. eigenvalues --    0.12356   0.13049   0.13707   0.14113   0.14682

 Mulliken charges and spin densities:
               1          2
     1  C    1.383811  -1.706313
     2  N    0.087174   0.076800
     3  C   -0.470259   0.789694
     4  C    0.524694  -1.042283
     5  C    0.269080  -0.428489
     6  N   -0.457148   0.262111
     7  N   -0.263137   0.039884
     8  C   -0.773084  -0.023363
     9  C    0.418927  -0.073381
    10  C   -0.384638   0.146889
    11  C   -0.026035  -0.055747
    12  O   -0.096795   0.026979
    13  C    0.498238   0.081141
    14  O   -0.388422   0.062521
    15  O   -0.222934   0.006599
    16  H   -0.158694   0.321313
    17  H   -0.494116   0.684369
    18  H   -0.585856   0.743474
    19  H   -0.821417   1.018239
    20  H    0.174302  -0.023941
    21  H    0.210171   0.083936
    22  H    0.147182   0.020206
    23  H    0.161688  -0.010331
    24  H    0.267268  -0.000306
 Sum of Mulliken charges =  -1.00000   1.00000

 Dipole moment (field-independent basis, Debye):
    X=             -6.0158    Y=              4.3304    Z=              0.5540  Tot=              7.4329
 Quadrupole moment (field-independent basis, Debye-Ang):
   XX=           -202.1572   YY=           -115.2288   ZZ=           -106.7440
   XY=              4.8529   XZ=              5.2827   YZ=             -2.8039

 Summary of Natural Population Analysis:

                                       Natural Population
                Natural  -----------------------------------------------
    Atom  No    Charge         Core      Valence    Rydberg      Total
 -----------------------------------------------------------------------
      C    1   -0.17163      0.99964     2.16366    0.00833     3.17163
      N    2   -0.10013      0.99968     2.58728    0.01317     3.60013
      C    3   -0.01099      0.99951     1.99960    0.01187     3.01099
      C    4    0.02211      0.99948     1.96671    0.01170     2.97789
      C    5   -0.02725      0.99959     2.01372    0.01394     3.02725
      N    6   -0.15244      0.99973     2.64076    0.01195     3.65244
      N    7   -0.30748      0.99963     2.79807    0.00978     3.80748
      C    8    0.29159      0.99950     1.69235    0.01657     2.70841
      C    9   -0.20923      0.99953     2.20233    0.00737     3.20923
      C   10   -0.07279      0.99955     2.06566    0.00759     3.07279
      C   11    0.06518      0.99941     1.92202    0.01339     2.93482
      O   12   -0.22544      0.99985     3.21819    0.00740     4.22544
      C   13    0.38889      0.99963     1.58803    0.02345     2.61111
      O   14   -0.30715      0.99987     3.29977    0.00751     4.30715
      O   15   -0.35454      0.99988     3.34900    0.00566     4.35454
      H   16    0.10531      0.00000     0.39304    0.00165     0.39469
      H   17    0.10153      0.00000     0.39550    0.00296     0.39847
      H   18    0.10292      0.00000     0.39480    0.00228     0.39708
      H   19    0.10953      0.00000     0.38853    0.00194     0.39047
      H   20    0.10205      0.00000     0.39698    0.00096     0.39795
      H   21    0.20099      0.00000     0.29663    0.00238     0.29901
      H   22    0.10957      0.00000     0.38951    0.00093     0.39043
      H   23    0.10626      0.00000     0.39293    0.00081     0.39374
      H   24    0.23314      0.00000     0.26376    0.00310     0.26686
 =======================================================================
   * Total *   -0.00000     14.99448    38.81884    0.18669    54.00000

 Normal termination of Gaussian 16 at Thu Dec 10 17:53:18 2020.
