 Gaussian 16, Revision A.03,

 -----------------------------------------------------------
 # opt freq B3LYP/6-31G(d) empiricaldispersion=gd3bj scf=xqc
 -----------------------------------------------------------

 ------------------------------
 CID_63892361_JID_7596_neutraal
 ------------------------------
 Symbolic Z-matrix:
 Charge =  0 Multiplicity = 1

 SCF Done:  E(RB3LYP) =  -713.085439572     A.U. after   14 cycles
 SCF Done:  E(RB3LYP) =  -713.091598247     A.U. after   12 cycles
 SCF Done:  E(RB3LYP) =  -713.091582740     A.U. after   12 cycles
 SCF Done:  E(RB3LYP) =  -713.092447209     A.U. after   11 cycles
 SCF Done:  E(RB3LYP) =  -713.092818577     A.U. after   12 cycles
 SCF Done:  E(RB3LYP) =  -713.092932331     A.U. after   11 cycles
 SCF Done:  E(RB3LYP) =  -713.092976196     A.U. after   11 cycles
 SCF Done:  E(RB3LYP) =  -713.092987176     A.U. after    9 cycles
 SCF Done:  E(RB3LYP) =  -713.092990088     A.U. after    9 cycles
 SCF Done:  E(RB3LYP) =  -713.092990555     A.U. after    7 cycles
 SCF Done:  E(RB3LYP) =  -713.092990646     A.U. after    7 cycles
 Optimization completed.
    -- Stationary point found.
 Normal termination of Gaussian 16 at Fri Dec 11 12:51:38 2020.

 --------------------------------------------------------------------
 #N Geom=AllCheck Guess=TCheck SCRF=Check GenChk RB3LYP/6-31G(d) Freq
 --------------------------------------------------------------------

 Structure from the checkpoint file:  "JID_7596.chk"
 ------------------------------
 CID_63892361_JID_7596_neutraal
 ------------------------------
 Charge =  0 Multiplicity = 1

 SCF Done:  E(RB3LYP) =  -713.092990646     A.U. after    1 cycles

  Exact polarizability: 231.039 -25.146 124.269 -22.129 -18.749 144.200
 Approx polarizability: 330.809 -51.591 197.196 -47.245 -46.534 256.007

                      1                      2                      3
                      A                      A                      A
 Frequencies --     32.8376                43.9175                50.6324
 Red. masses --      4.2523                 3.2667                 3.6229
 Frc consts  --      0.0027                 0.0037                 0.0055
 IR Inten    --      0.4096                 0.2803                 0.0383

                      4                      5                      6
                      A                      A                      A
 Frequencies --    121.5951               148.1868               155.8880
 Red. masses --      3.5377                 3.0155                 4.7650
 Frc consts  --      0.0308                 0.0390                 0.0682
 IR Inten    --      1.5349                 0.3346                 1.7656

                      7                      8                      9
                      A                      A                      A
 Frequencies --    194.0931               214.0304               240.5938
 Red. masses --      3.8048                 2.5717                 1.1939
 Frc consts  --      0.0845                 0.0694                 0.0407
 IR Inten    --      0.0631                 0.5423                 0.6061

                     10                     11                     12
                      A                      A                      A
 Frequencies --    264.5411               272.1456               287.1493
 Red. masses --      2.3992                 1.3198                 1.0862
 Frc consts  --      0.0989                 0.0576                 0.0528
 IR Inten    --      4.9017                 6.6911                 0.0221

                     13                     14                     15
                      A                      A                      A
 Frequencies --    310.1615               320.3742               348.9600
 Red. masses --      1.3759                 2.2540                 2.0954
 Frc consts  --      0.0780                 0.1363                 0.1503
 IR Inten    --     72.5768                25.1804                 0.3976

                     16                     17                     18
                      A                      A                      A
 Frequencies --    364.2598               376.1622               411.6996
 Red. masses --      3.1278                 2.9529                 3.6700
 Frc consts  --      0.2445                 0.2462                 0.3665
 IR Inten    --      5.9180                 1.3312                 6.1355

                     19                     20                     21
                      A                      A                      A
 Frequencies --    421.3433               435.9502               485.0189
 Red. masses --      2.0139                 3.8549                 3.3515
 Frc consts  --      0.2106                 0.4317                 0.4645
 IR Inten    --      0.0439                 2.8612                 3.4620

                     22                     23                     24
                      A                      A                      A
 Frequencies --    493.8547               510.4089               537.4828
 Red. masses --      3.0692                 2.6554                 7.2012
 Frc consts  --      0.4410                 0.4076                 1.2257
 IR Inten    --      2.5702                 1.5344                 0.5694

                     25                     26                     27
                      A                      A                      A
 Frequencies --    565.3643               578.6044               634.5209
 Red. masses --      3.7428                 4.6525                 6.7341
 Frc consts  --      0.7049                 0.9177                 1.5974
 IR Inten    --      4.3565                 3.8482                 4.1887

                     28                     29                     30
                      A                      A                      A
 Frequencies --    677.1603               721.0825               768.1566
 Red. masses --      2.9784                 4.3324                 3.2963
 Frc consts  --      0.8047                 1.3272                 1.1460
 IR Inten    --      0.4085                16.2106                 1.5330

                     31                     32                     33
                      A                      A                      A
 Frequencies --    770.3835               788.6258               804.5181
 Red. masses --      1.3929                 4.7961                 2.7767
 Frc consts  --      0.4871                 1.7574                 1.0589
 IR Inten    --     28.6483                 2.1179                10.9810

                     34                     35                     36
                      A                      A                      A
 Frequencies --    883.2513               887.2374               926.1269
 Red. masses --      1.5716                 2.8835                 2.1601
 Frc consts  --      0.7224                 1.3374                 1.0916
 IR Inten    --      4.4314                 3.5375                14.2424

                     37                     38                     39
                      A                      A                      A
 Frequencies --    930.7716               940.7925               952.3424
 Red. masses --      1.9686                 2.0596                 1.7106
 Frc consts  --      1.0048                 1.0740                 0.9141
 IR Inten    --     23.0029                 1.2848                 0.5725

                     40                     41                     42
                      A                      A                      A
 Frequencies --    960.4802               964.7378               967.9574
 Red. masses --      1.5974                 1.4244                 1.3781
 Frc consts  --      0.8683                 0.7811                 0.7607
 IR Inten    --      3.8071                 0.6300                 6.0928

                     43                     44                     45
                      A                      A                      A
 Frequencies --    973.4182               997.7594              1006.4758
 Red. masses --      1.2160                 1.2767                 2.8592
 Frc consts  --      0.6789                 0.7489                 1.7065
 IR Inten    --      0.0673                 0.0894                 7.3586

                     46                     47                     48
                      A                      A                      A
 Frequencies --   1030.5462              1048.2402              1061.8905
 Red. masses --      2.5289                 2.1544                 2.5159
 Frc consts  --      1.5824                 1.3947                 1.6715
 IR Inten    --     14.1853                 3.6052                26.9092

                     49                     50                     51
                      A                      A                      A
 Frequencies --   1076.2289              1092.5867              1156.3534
 Red. masses --      1.9560                 1.8622                 1.5904
 Frc consts  --      1.3349                 1.3097                 1.2529
 IR Inten    --     29.9419                 1.2021                13.0511

                     52                     53                     54
                      A                      A                      A
 Frequencies --   1174.7387              1192.9592              1199.8381
 Red. masses --      1.4287                 1.3857                 1.4245
 Frc consts  --      1.1616                 1.1619                 1.2082
 IR Inten    --      5.7830                 9.0904                10.0720

                     55                     56                     57
                      A                      A                      A
 Frequencies --   1234.5927              1248.0134              1265.5858
 Red. masses --      2.0345                 2.5519                 1.2536
 Frc consts  --      1.8270                 2.3419                 1.1831
 IR Inten    --     19.9021                 2.0434                64.8840

                     58                     59                     60
                      A                      A                      A
 Frequencies --   1273.9518              1288.8325              1304.4418
 Red. masses --      2.1173                 2.6652                 1.6148
 Frc consts  --      2.0246                 2.6084                 1.6189
 IR Inten    --      2.9412                 3.9020                 6.8397

                     61                     62                     63
                      A                      A                      A
 Frequencies --   1321.2666              1359.4144              1384.2887
 Red. masses --      1.7510                 1.2989                 3.1867
 Frc consts  --      1.8010                 1.4143                 3.5979
 IR Inten    --      4.9761                 0.5951                12.2946

                     64                     65                     66
                      A                      A                      A
 Frequencies --   1398.7066              1409.9078              1420.7165
 Red. masses --      1.4356                 2.6088                 2.5548
 Frc consts  --      1.6548                 3.0554                 3.0383
 IR Inten    --      9.3251                 4.2944                14.5233

                     67                     68                     69
                      A                      A                      A
 Frequencies --   1428.3577              1431.7017              1456.2737
 Red. masses --      1.2347                 1.2429                 1.4788
 Frc consts  --      1.4842                 1.5011                 1.8477
 IR Inten    --      6.4470                 4.0864                 2.9218

                     70                     71                     72
                      A                      A                      A
 Frequencies --   1463.7385              1488.1377              1506.9140
 Red. masses --      1.5150                 1.7933                 1.2437
 Frc consts  --      1.9124                 2.3398                 1.6640
 IR Inten    --     22.3031                 6.5276                 2.3935

                     73                     74                     75
                      A                      A                      A
 Frequencies --   1512.0964              1515.7658              1518.3392
 Red. masses --      1.0534                 1.7388                 1.0579
 Frc consts  --      1.4191                 2.3538                 1.4369
 IR Inten    --      0.2231                 1.9216                 0.8484

                     76                     77                     78
                      A                      A                      A
 Frequencies --   1519.4550              1538.4546              1540.6744
 Red. masses --      1.2435                 1.0593                 1.0623
 Frc consts  --      1.6915                 1.4773                 1.4856
 IR Inten    --      0.4290                 4.3910                 6.5655

                     79                     80                     81
                      A                      A                      A
 Frequencies --   1549.3868              1554.4928              1620.7661
 Red. masses --      1.0697                 3.2357                 6.8659
 Frc consts  --      1.5130                 4.6068                10.6264
 IR Inten    --     16.9156                18.9815                11.3348

                     82                     83                     84
                      A                      A                      A
 Frequencies --   1666.2570              1681.1612              2997.4635
 Red. masses --      5.6389                 6.1073                 1.0689
 Frc consts  --      9.2242                10.1699                 5.6586
 IR Inten    --      6.1442                 6.0493                49.5619

                     85                     86                     87
                      A                      A                      A
 Frequencies --   3007.7663              3037.3070              3043.0257
 Red. masses --      1.0810                 1.0350                 1.0372
 Frc consts  --      5.7618                 5.6257                 5.6590
 IR Inten    --     32.5674                30.4058                38.7577

                     88                     89                     90
                      A                      A                      A
 Frequencies --   3052.0571              3067.4108              3103.0327
 Red. masses --      1.0409                 1.0939                 1.1021
 Frc consts  --      5.7130                 6.0640                 6.2526
 IR Inten    --     15.4523                28.1441                 2.6659

                     91                     92                     93
                      A                      A                      A
 Frequencies --   3104.8858              3106.6846              3112.8865
 Red. masses --      1.1022                 1.1019                 1.1013
 Frc consts  --      6.2606                 6.2657                 6.2875
 IR Inten    --      4.2339                51.2697                69.2696

                     94                     95                     96
                      A                      A                      A
 Frequencies --   3120.7173              3145.5453              3155.4766
 Red. masses --      1.1005                 1.0893                 1.0964
 Frc consts  --      6.3145                 6.3500                 6.4320
 IR Inten    --     49.3487                37.7399                21.5757

                     97                     98                     99
                      A                      A                      A
 Frequencies --   3181.3346              3193.0930              3198.9079
 Red. masses --      1.0865                 1.0893                 1.0906
 Frc consts  --      6.4791                 6.5437                 6.5752
 IR Inten    --      1.7273                10.0655                 7.8227

                    100                    101                    102
                      A                      A                      A
 Frequencies --   3207.5173              3220.8545              3732.1008
 Red. masses --      1.0941                 1.0955                 1.0658
 Frc consts  --      6.6323                 6.6956                 8.7464
 IR Inten    --     27.3777                16.0878                 5.9276

 - Thermochemistry -
 -------------------
 Temperature   298.150 Kelvin.  Pressure   1.00000 Atm.
 Atom     1 has atomic number  6 and mass  12.00000

 Molecular mass:   229.14666 amu.
 Principal axes and moments of inertia in atomic units:
                           1         2         3
     Eigenvalues --  2011.493786805.822147070.67630
           X            0.99996   0.00897  -0.00064
           Y           -0.00898   0.99961  -0.02653
           Z            0.00040   0.02653   0.99965
 This molecule is an asymmetric top.
 Rotational symmetry number  1.
 Warning -- assumption of classical behavior for rotation
           may cause significant error
 Rotational temperatures (Kelvin)      0.04306     0.01273     0.01225
 Rotational constants (GHZ):           0.89721     0.26518     0.25524
 Zero-point vibrational energy     816237.1 (Joules/Mol)
                                  195.08536 (Kcal/Mol)
 Warning -- explicit consideration of  26 degrees of freedom as
           vibrations may cause significant error
 Vibrational temperatures:     47.25    63.19    72.85   174.95   213.21
          (Kelvin)            224.29   279.26   307.94   346.16   380.62
                              391.56   413.14   446.25   460.95   502.08
                              524.09   541.21   592.34   606.22   627.24
                              697.83   710.55   734.36   773.32   813.43
                              832.48   912.93   974.28  1037.48  1105.21
                             1108.41  1134.66  1157.52  1270.80  1276.54
                             1332.49  1339.17  1353.59  1370.21  1381.92
                             1388.04  1392.67  1400.53  1435.55  1448.09
                             1482.73  1508.18  1527.82  1548.45  1571.99
                             1663.73  1690.19  1716.40  1726.30  1776.30
                             1795.61  1820.90  1832.93  1854.34  1876.80
                             1901.01  1955.89  1991.68  2012.43  2028.54
                             2044.09  2055.09  2059.90  2095.25  2105.99
                             2141.10  2168.11  2175.57  2180.85  2184.55
                             2186.16  2213.49  2216.69  2229.22  2236.57
                             2331.92  2397.37  2418.82  4312.68  4327.50
                             4370.01  4378.24  4391.23  4413.32  4464.57
                             4467.24  4469.83  4478.75  4490.02  4525.74
                             4540.03  4577.23  4594.15  4602.51  4614.90
                             4634.09  5369.66

 Zero-point correction=                           0.310888 (Hartree/Particle)
 Thermal correction to Energy=                    0.326818
 Thermal correction to Enthalpy=                  0.327763
 Thermal correction to Gibbs Free Energy=         0.267774
 Sum of electronic and zero-point Energies=           -712.782102
 Sum of electronic and thermal Energies=              -712.766172
 Sum of electronic and thermal Enthalpies=            -712.765228
 Sum of electronic and thermal Free Energies=         -712.825217

                     E (Thermal)             CV                S
                      KCal/Mol        Cal/Mol-Kelvin    Cal/Mol-Kelvin
 Total                  205.082             63.448            126.258
 Electronic               0.000              0.000              0.000
 Translational            0.889              2.981             42.190
 Rotational               0.889              2.981             32.937
 Vibrational            203.304             57.486             51.131
 Vibration     1          0.594              1.983              5.650
 Vibration     2          0.595              1.980              5.074
 Vibration     3          0.595              1.977              4.793
 Vibration     4          0.609              1.931              3.075
 Vibration     5          0.618              1.905              2.695
 Vibration     6          0.620              1.896              2.599
 Vibration     7          0.635              1.848              2.188
 Vibration     8          0.644              1.820              2.009
 Vibration     9          0.658              1.778              1.798
 Vibration    10          0.671              1.738              1.632
 Vibration    11          0.675              1.725              1.583
 Vibration    12          0.684              1.698              1.491
 Vibration    13          0.699              1.654              1.361
 Vibration    14          0.706              1.635              1.308
 Vibration    15          0.726              1.577              1.171
 Vibration    16          0.738              1.546              1.104
 Vibration    17          0.747              1.521              1.055
 Vibration    18          0.776              1.445              0.921
 Vibration    19          0.784              1.424              0.887
 Vibration    20          0.796              1.392              0.839
 Vibration    21          0.841              1.283              0.697
 Vibration    22          0.850              1.264              0.674
 Vibration    23          0.866              1.227              0.633
 Vibration    24          0.893              1.167              0.571
 Vibration    25          0.921              1.106              0.513
 Vibration    26          0.935              1.078              0.488

 Optimization completed.
    -- Stationary point found.
 Normal termination of Gaussian 16 at Fri Dec 11 13:05:21 2020.

 ----------------------------------------------------------------------
 # B3LYP/6-311++G(d,p) empiricaldispersion=gd3bj scf=xqc pop=npa geom=c
 heck
 ----------------------------------------------------------------------

 --------------------------------------
 CID_63892361_JID_7596_Energie_neutraal
 --------------------------------------
 Structure from the checkpoint file:  "JID_7596.chk"
 Charge =  0 Multiplicity = 1

 SCF Done:  E(RB3LYP) =  -713.288973791     A.U. after   15 cycles
 Normal termination of Gaussian 16 at Fri Dec 11 13:11:15 2020.

 ----------------------------------------------------------------------
 # B3LYP/6-311++G(d,p) empiricaldispersion=gd3bj scf=xqc pop=npa geom=c
 heck
 ----------------------------------------------------------------------

 ------------------------------------
 CID_63892361_JID_7596_Energie_kation
 ------------------------------------
 Structure from the checkpoint file:  "JID_7596.chk"
 Charge =  1 Multiplicity = 2

 SCF Done:  E(UB3LYP) =  -712.988409721     A.U. after   27 cycles
 Normal termination of Gaussian 16 at Fri Dec 11 13:25:51 2020.
 Gaussian 16:  ES64L-G16RevA.03 25-Dec-2016

 ----------------------------------------------------------------------
 # B3LYP/6-311++G(d,p) empiricaldispersion=gd3bj scf=xqc pop=npa geom=c
 heck
 ----------------------------------------------------------------------

 -----------------------------------
 CID_63892361_JID_7596_Energie_anion
 -----------------------------------
 Structure from the checkpoint file:  "JID_7596.chk"
 Charge = -1 Multiplicity = 2

                         Standard orientation:
 ---------------------------------------------------------------------
 Center     Atomic      Atomic             Coordinates (Angstroms)
 Number     Number       Type             X           Y           Z
 ---------------------------------------------------------------------
      1          6           0       -1.712515   -1.703457   -0.771169
      2          6           0       -2.895322   -0.791527   -0.395007
      3          6           0       -4.033441   -1.043054   -1.403192
      4          6           0       -3.395247   -1.148042    1.015596
      5          6           0       -2.532249    0.711736   -0.492621
      6          6           0       -1.615404    1.351756    0.568743
      7          6           0       -0.214294    0.793518    0.590700
      8          6           0        0.668544    1.018972   -0.441295
      9          6           0        1.956046    0.435012   -0.405310
     10          6           0        2.916852    0.607604   -1.435600
     11          6           0        4.147839   -0.000674   -1.349445
     12          6           0        4.473204   -0.805089   -0.228489
     13          6           0        3.564607   -0.987615    0.788809
     14          6           0        2.286734   -0.374232    0.728307
     15          7           0        1.416658   -0.570919    1.761189
     16          6           0        0.233682    0.001332    1.679655
     17          8           0       -1.489925    2.753358    0.294353
     18          1           0       -2.048479   -2.745705   -0.827820
     19          1           0       -0.900238   -1.656957   -0.043231
     20          1           0       -1.300543   -1.430273   -1.749718
     21          1           0       -4.324611   -2.099786   -1.403638
     22          1           0       -4.922003   -0.448869   -1.157547
     23          1           0       -3.723419   -0.780152   -2.421810
     24          1           0       -2.597556   -1.070856    1.761551
     25          1           0       -4.216165   -0.489584    1.326145
     26          1           0       -3.767116   -2.178875    1.040151
     27          1           0       -2.087879    0.911953   -1.476376
     28          1           0       -3.477056    1.277604   -0.459194
     29          1           0       -2.062099    1.207692    1.563862
     30          1           0        0.382108    1.647024   -1.280366
     31          1           0        2.661115    1.226099   -2.292326
     32          1           0        4.878116    0.134139   -2.142153
     33          1           0        5.449913   -1.277702   -0.176338
     34          1           0        3.790334   -1.595451    1.658947
     35          1           0       -0.438777   -0.162115    2.522697
     36          1           0       -2.387049    3.103949    0.175937
 ---------------------------------------------------------------------

 SCF Done:  E(UB3LYP) =  -713.295862943     A.U. after   33 cycles
 SCF Done:  E(UB3LYP) =  -713.295862943     a.u. after    1 cycles

 The electronic state is 2-A.
 Alpha  occ. eigenvalues --  -19.01507 -14.13961 -10.11018 -10.08618 -10.06432
 Alpha  occ. eigenvalues --  -10.06356 -10.06070 -10.05684 -10.04965 -10.04613
 Alpha  occ. eigenvalues --  -10.03740 -10.03093 -10.02950 -10.02933 -10.02352
 Alpha  occ. eigenvalues --  -10.01693 -10.01668  -0.91608  -0.78921  -0.72711
 Alpha  occ. eigenvalues --   -0.70018  -0.66900  -0.62710  -0.60014  -0.59210
 Alpha  occ. eigenvalues --   -0.58989  -0.58066  -0.52866  -0.49481  -0.46425
 Alpha  occ. eigenvalues --   -0.45593  -0.43636  -0.40483  -0.37920  -0.36962
 Alpha  occ. eigenvalues --   -0.36435  -0.35737  -0.34425  -0.33785  -0.31931
 Alpha  occ. eigenvalues --   -0.29990  -0.29682  -0.29255  -0.28905  -0.27680
 Alpha  occ. eigenvalues --   -0.27495  -0.26781  -0.26135  -0.25947  -0.25070
 Alpha  occ. eigenvalues --   -0.24182  -0.22658  -0.22400  -0.22013  -0.21060
 Alpha  occ. eigenvalues --   -0.20043  -0.19832  -0.17099  -0.15738  -0.10868
 Alpha  occ. eigenvalues --   -0.10583  -0.09327   0.04434
 Alpha virt. eigenvalues --    0.06103   0.07839   0.08626   0.08950   0.09461
 Alpha virt. eigenvalues --    0.10268   0.10608   0.11218   0.11335   0.11847
 Alpha virt. eigenvalues --    0.11982   0.12142   0.13483   0.13652   0.13790

  Beta  occ. eigenvalues --  -19.01491 -14.13558 -10.11021 -10.08619 -10.06414
  Beta  occ. eigenvalues --  -10.06345 -10.06058 -10.05735 -10.04870 -10.04606
  Beta  occ. eigenvalues --  -10.03826 -10.03059 -10.02925 -10.02850 -10.02110
  Beta  occ. eigenvalues --  -10.01490 -10.01265  -0.91574  -0.78400  -0.72692
  Beta  occ. eigenvalues --   -0.69664  -0.66505  -0.62462  -0.59791  -0.59114
  Beta  occ. eigenvalues --   -0.58722  -0.58034  -0.52619  -0.49041  -0.46261
  Beta  occ. eigenvalues --   -0.45265  -0.43584  -0.40416  -0.37590  -0.36846
  Beta  occ. eigenvalues --   -0.36351  -0.35667  -0.34303  -0.33738  -0.31868
  Beta  occ. eigenvalues --   -0.29887  -0.29636  -0.29144  -0.28834  -0.27566
  Beta  occ. eigenvalues --   -0.27393  -0.26591  -0.25919  -0.25472  -0.24871
  Beta  occ. eigenvalues --   -0.24079  -0.22596  -0.22330  -0.21961  -0.20941
  Beta  occ. eigenvalues --   -0.19864  -0.18766  -0.16829  -0.14385  -0.10287
  Beta  occ. eigenvalues --   -0.10057  -0.07608
  Beta virt. eigenvalues --    0.06238   0.07776   0.08574   0.08920   0.09488
  Beta virt. eigenvalues --    0.09909   0.10200   0.10570   0.11149   0.11273
  Beta virt. eigenvalues --    0.11874   0.12045   0.12118   0.13544   0.13739

 Mulliken charges and spin densities:
               1          2
     1  C   -0.602943  -0.103157
     2  C    0.258440   0.459670
     3  C   -0.182964  -0.295584
     4  C   -0.400417  -0.344379
     5  C   -0.133755  -0.273978
     6  C   -0.460134   0.082144
     7  C    0.589429   0.025286
     8  C    0.011758   0.295384
     9  C    1.272202  -0.052833
    10  C   -0.350336   0.159919
    11  C   -0.230186   0.051759
    12  C   -0.507253   0.079235
    13  C   -0.287591   0.124306
    14  C   -1.267051  -0.030341
    15  N   -0.001384   0.178072
    16  C   -0.572521   0.044056
    17  O   -0.119647  -0.001723
    18  H    0.106372   0.018854
    19  H    0.266473  -0.008742
    20  H    0.128582   0.003740
    21  H    0.009328   0.116593
    22  H   -0.064503   0.186024
    23  H    0.034718   0.100309
    24  H    0.120335   0.031419
    25  H    0.052329   0.086907
    26  H    0.064132   0.063673
    27  H    0.202702  -0.031408
    28  H   -0.014572   0.109119
    29  H    0.208803  -0.012140
    30  H    0.140793  -0.021025
    31  H    0.082995  -0.013769
    32  H    0.109432  -0.002338
    33  H    0.104214  -0.005677
    34  H    0.126980  -0.012918
    35  H    0.101103  -0.008468
    36  H    0.204135   0.002009
 Sum of Mulliken charges =  -1.00000   1.00000

 Dipole moment (field-independent basis, Debye):
    X=             -5.0597    Y=              0.4332    Z=             -1.6399  Tot=              5.3364
 Quadrupole moment (field-independent basis, Debye-Ang):
   XX=           -156.1826   YY=           -123.7944   ZZ=           -122.6998
   XY=             -3.6963   XZ=             -5.8806   YZ=             -0.8050

 Summary of Natural Population Analysis:

                                       Natural Population
                Natural  -----------------------------------------------
    Atom  No    Charge         Core      Valence    Rydberg      Total
 -----------------------------------------------------------------------
      C    1   -0.28500      0.99963     2.27922    0.00615     3.28500
      C    2   -0.05015      0.99959     2.04197    0.00860     3.05015
      C    3   -0.28191      0.99963     2.27505    0.00723     3.28191
      C    4   -0.28702      0.99963     2.27976    0.00764     3.28702
      C    5   -0.19225      0.99958     2.18064    0.01203     3.19225
      C    6    0.06245      0.99950     1.92398    0.01406     2.93755
      C    7   -0.05560      0.99947     2.04344    0.01268     3.05560
      C    8    0.00333      0.99947     1.98962    0.00757     2.99667
      C    9   -0.05903      0.99949     2.05096    0.00858     3.05903
      C   10   -0.07100      0.99958     2.05512    0.01630     3.07100
      C   11   -0.06738      0.99959     2.06364    0.00414     3.06738
      C   12   -0.11395      0.99961     2.09682    0.01751     3.11395
      C   13   -0.06625      0.99953     2.05672    0.01000     3.06625
      C   14    0.07325      0.99948     1.91329    0.01399     2.92675
      N   15   -0.19152      0.99968     2.67861    0.01323     3.69152
      C   16    0.04637      0.99956     1.94079    0.01328     2.95363
      O   17   -0.36530      0.99990     3.35949    0.00591     4.36530
      H   18    0.09197      0.00000     0.40721    0.00083     0.40803
      H   19    0.11520      0.00000     0.38359    0.00120     0.38480
      H   20    0.09976      0.00000     0.39940    0.00084     0.40024
      H   21    0.09694      0.00000     0.40230    0.00076     0.40306
      H   22    0.09610      0.00000     0.40306    0.00084     0.40390
      H   23    0.09839      0.00000     0.40084    0.00077     0.40161
      H   24    0.10520      0.00000     0.39377    0.00103     0.39480
      H   25    0.09491      0.00000     0.40429    0.00080     0.40509
      H   26    0.09671      0.00000     0.40254    0.00076     0.40329
      H   27    0.10226      0.00000     0.39660    0.00113     0.39774
      H   28    0.08767      0.00000     0.41120    0.00113     0.41233
      H   29    0.07639      0.00000     0.42154    0.00207     0.42361
      H   30    0.09040      0.00000     0.40820    0.00141     0.40960
      H   31    0.08591      0.00000     0.41131    0.00278     0.41409
      H   32    0.08641      0.00000     0.41267    0.00092     0.41359
      H   33    0.08739      0.00000     0.41089    0.00173     0.41261
      H   34    0.09446      0.00000     0.40406    0.00148     0.40554
      H   35    0.07581      0.00000     0.42254    0.00166     0.42419
      H   36    0.21918      0.00000     0.27816    0.00266     0.28082
 =======================================================================
   * Total *    0.00009     16.99292    44.80330    0.20369    61.99991

 Normal termination of Gaussian 16 at Fri Dec 11 13:43:23 2020.
