 Gaussian 16, Revision A.03,

 -----------------------------------------------------------
 # opt freq B3LYP/6-31G(d) empiricaldispersion=gd3bj scf=xqc
 -----------------------------------------------------------

 ------------------------------
 CID_63922283_JID_5936_neutraal
 ------------------------------
 Symbolic Z-matrix:
 Charge =  0 Multiplicity = 1

 SCF Done:  E(RB3LYP) =  -1071.06124472     A.U. after   14 cycles
 SCF Done:  E(RB3LYP) =  -1071.07048675     A.U. after   12 cycles
 SCF Done:  E(RB3LYP) =  -1071.07164542     A.U. after   12 cycles
 SCF Done:  E(RB3LYP) =  -1071.07227420     A.U. after   11 cycles
 SCF Done:  E(RB3LYP) =  -1071.07343956     A.U. after   12 cycles
 SCF Done:  E(RB3LYP) =  -1071.07460861     A.U. after   12 cycles
 SCF Done:  E(RB3LYP) =  -1071.07568449     A.U. after   14 cycles
 SCF Done:  E(RB3LYP) =  -1071.07610116     A.U. after   12 cycles
 SCF Done:  E(RB3LYP) =  -1071.07595133     A.U. after   12 cycles
 SCF Done:  E(RB3LYP) =  -1071.07632497     A.U. after   11 cycles
 SCF Done:  E(RB3LYP) =  -1071.07637990     A.U. after   11 cycles
 SCF Done:  E(RB3LYP) =  -1071.07638878     A.U. after   10 cycles
 SCF Done:  E(RB3LYP) =  -1071.07639230     A.U. after    9 cycles
 SCF Done:  E(RB3LYP) =  -1071.07639280     A.U. after    8 cycles
 Optimization completed.
    -- Stationary point found.
 Normal termination of Gaussian 16 at Thu Dec 10 17:39:34 2020.

 --------------------------------------------------------------------
 #N Geom=AllCheck Guess=TCheck SCRF=Check GenChk RB3LYP/6-31G(d) Freq
 --------------------------------------------------------------------

 Structure from the checkpoint file:  "JID_5936.chk"
 ------------------------------
 CID_63922283_JID_5936_neutraal
 ------------------------------
 Charge =  0 Multiplicity = 1

 SCF Done:  E(RB3LYP) =  -1071.07639280     A.U. after    1 cycles

  Exact polarizability: 161.073   0.115 121.536   0.281  -1.581 112.602
 Approx polarizability: 200.223  -2.838 187.218   3.534   1.880 183.537

                      1                      2                      3
                      A                      A                      A
 Frequencies --     48.8046                57.0110                94.0200
 Red. masses --      4.2761                 3.6269                 4.1483
 Frc consts  --      0.0060                 0.0069                 0.0216
 IR Inten    --      0.6111                 0.1332                 1.8527

                      4                      5                      6
                      A                      A                      A
 Frequencies --    108.0760               128.0443               155.5550
 Red. masses --      3.3561                 4.1167                 3.6801
 Frc consts  --      0.0231                 0.0398                 0.0525
 IR Inten    --      2.5257                 1.9942                 2.3986

                      7                      8                      9
                      A                      A                      A
 Frequencies --    202.6965               208.1194               221.2745
 Red. masses --      3.5819                 4.0358                 5.7255
 Frc consts  --      0.0867                 0.1030                 0.1652
 IR Inten    --      1.4114                 4.1421                 5.9875

                     10                     11                     12
                      A                      A                      A
 Frequencies --    256.4953               266.9404               292.8008
 Red. masses --      3.3992                 3.1298                 3.0749
 Frc consts  --      0.1318                 0.1314                 0.1553
 IR Inten    --      2.2699                 1.6022                 1.8061

                     13                     14                     15
                      A                      A                      A
 Frequencies --    315.4080               330.7431               387.4408
 Red. masses --      3.0884                 2.8229                 2.1176
 Frc consts  --      0.1810                 0.1819                 0.1873
 IR Inten    --      4.4370                 5.4822                 3.9111

                     16                     17                     18
                      A                      A                      A
 Frequencies --    395.0552               397.6933               427.5435
 Red. masses --      3.4713                 1.9714                 3.2672
 Frc consts  --      0.3192                 0.1837                 0.3519
 IR Inten    --      4.0887                 2.8037                18.9605

                     19                     20                     21
                      A                      A                      A
 Frequencies --    460.4279               479.0477               539.1000
 Red. masses --      3.1031                 4.1864                 4.1618
 Frc consts  --      0.3876                 0.5660                 0.7126
 IR Inten    --     16.4833                18.3334                16.7048

                     22                     23                     24
                      A                      A                      A
 Frequencies --    550.5534               593.0885               632.7762
 Red. masses --      2.5288                 3.1138                 1.0862
 Frc consts  --      0.4516                 0.6453                 0.2562
 IR Inten    --      8.2861                 0.8719               101.9767

                     25                     26                     27
                      A                      A                      A
 Frequencies --    662.9891               737.1255               760.4570
 Red. masses --      3.0855                 2.1904                 2.4794
 Frc consts  --      0.7991                 0.7012                 0.8448
 IR Inten    --     15.8711                53.8082                 6.3619

                     28                     29                     30
                      A                      A                      A
 Frequencies --    783.2063               790.4305               832.4805
 Red. masses --      1.4606                 1.6452                 1.9713
 Frc consts  --      0.5279                 0.6056                 0.8049
 IR Inten    --      1.6584                22.3683                28.5356

                     31                     32                     33
                      A                      A                      A
 Frequencies --    848.2077               872.1442               876.2476
 Red. masses --      1.4107                 2.1542                 1.5388
 Frc consts  --      0.5980                 0.9654                 0.6961
 IR Inten    --     12.8869                55.1671                 7.9957

                     34                     35                     36
                      A                      A                      A
 Frequencies --    887.7893               901.5183               937.8989
 Red. masses --      2.0025                 2.1227                 2.1091
 Frc consts  --      0.9299                 1.0164                 1.0931
 IR Inten    --      8.7947                 3.8180                 0.5651

                     37                     38                     39
                      A                      A                      A
 Frequencies --    949.9629               965.8471               989.9505
 Red. masses --      2.5277                 1.7319                 2.2759
 Frc consts  --      1.3440                 0.9519                 1.3141
 IR Inten    --     19.7212                 0.5147                16.2337

                     40                     41                     42
                      A                      A                      A
 Frequencies --   1010.0144              1058.1301              1064.1393
 Red. masses --      2.4034                 2.2501                 1.3862
 Frc consts  --      1.4445                 1.4843                 0.9249
 IR Inten    --     12.8740                37.3719                20.7625

                     43                     44                     45
                      A                      A                      A
 Frequencies --   1081.5393              1082.7981              1086.3615
 Red. masses --      2.3251                 2.9932                 1.4370
 Frc consts  --      1.6024                 2.0677                 0.9992
 IR Inten    --     70.9218                14.9730                 4.0847

                     46                     47                     48
                      A                      A                      A
 Frequencies --   1107.0958              1119.0379              1134.3459
 Red. masses --      3.8728                 1.3249                 1.8508
 Frc consts  --      2.7967                 0.9775                 1.4031
 IR Inten    --     96.9083                19.2004                21.3781

                     49                     50                     51
                      A                      A                      A
 Frequencies --   1148.2639              1156.7068              1175.5155
 Red. masses --      1.2520                 2.3876                 1.6059
 Frc consts  --      0.9726                 1.8821                 1.3074
 IR Inten    --      7.3312                61.8790                25.3370

                     52                     53                     54
                      A                      A                      A
 Frequencies --   1210.0654              1220.1012              1233.9887
 Red. masses --      1.4097                 1.6618                 1.7310
 Frc consts  --      1.2161                 1.4576                 1.5530
 IR Inten    --      0.2911                 6.7702                 7.6279

                     55                     56                     57
                      A                      A                      A
 Frequencies --   1239.8091              1252.0844              1268.2980
 Red. masses --      1.7236                 1.9847                 1.2192
 Frc consts  --      1.5610                 1.8332                 1.1555
 IR Inten    --     17.7339                15.5560                 7.9026

                     58                     59                     60
                      A                      A                      A
 Frequencies --   1281.9062              1311.5592              1333.2302
 Red. masses --      3.3284                 1.4323                 1.5607
 Frc consts  --      3.2226                 1.4517                 1.6345
 IR Inten    --    103.7741                26.3761                62.1587

                     61                     62                     63
                      A                      A                      A
 Frequencies --   1336.7238              1349.8277              1381.2146
 Red. masses --      1.3272                 1.4568                 1.2849
 Frc consts  --      1.3972                 1.5639                 1.4442
 IR Inten    --      3.1871                23.3939                 7.6121

                     64                     65                     66
                      A                      A                      A
 Frequencies --   1401.1005              1405.1841              1431.2282
 Red. masses --      1.4886                 1.3923                 1.3390
 Frc consts  --      1.7217                 1.6197                 1.6160
 IR Inten    --     12.8234                 4.0989                 9.0364

                     67                     68                     69
                      A                      A                      A
 Frequencies --   1437.7266              1448.0829              1471.4854
 Red. masses --      1.3782                 1.1887                 1.0935
 Frc consts  --      1.6785                 1.4686                 1.3951
 IR Inten    --      4.6123                57.2186                 6.7426

                     70                     71                     72
                      A                      A                      A
 Frequencies --   1482.2413              1495.6973              1506.1047
 Red. masses --      1.0867                 1.0880                 1.0833
 Frc consts  --      1.4066                 1.4340                 1.4479
 IR Inten    --     10.4849                 2.1481                 5.1563

                     73                     74                     75
                      A                      A                      A
 Frequencies --   1516.0924              1526.3320              1532.0567
 Red. masses --      1.0850                 1.0934                 1.1061
 Frc consts  --      1.4694                 1.5008                 1.5297
 IR Inten    --      3.4510                 3.7162                 4.6979

                     76                     77                     78
                      A                      A                      A
 Frequencies --   1535.0347              1538.1484              3043.0365
 Red. masses --      1.2419                 1.2902                 1.0636
 Frc consts  --      1.7241                 1.7985                 5.8030
 IR Inten    --     22.7205                 1.8813                 3.8087

                     79                     80                     81
                      A                      A                      A
 Frequencies --   3046.6551              3068.5331              3083.9895
 Red. masses --      1.0664                 1.0653                 1.0625
 Frc consts  --      5.8322                 5.9100                 5.9540
 IR Inten    --     53.1811                14.7700                 8.5944

                     82                     83                     84
                      A                      A                      A
 Frequencies --   3086.3869              3091.6089              3094.6552
 Red. masses --      1.0645                 1.0985                 1.0966
 Frc consts  --      5.9745                 6.1859                 6.1877
 IR Inten    --     26.8024                23.2923                23.9053

                     85                     86                     87
                      A                      A                      A
 Frequencies --   3107.3534              3117.6281              3141.5559
 Red. masses --      1.0584                 1.0964                 1.0515
 Frc consts  --      6.0211                 6.2787                 6.1145
 IR Inten    --      1.8388                20.4137                21.3461

                     88                     89                     90
                      A                      A                      A
 Frequencies --   3144.1149              3145.8159              3148.1096
 Red. masses --      1.0688                 1.1048                 1.0838
 Frc consts  --      6.2251                 6.4417                 6.3283
 IR Inten    --     46.3002                 5.2630                10.7340

                     91                     92                     93
                      A                      A                      A
 Frequencies --   3156.9128              3167.9502              3216.2648
 Red. masses --      1.0974                 1.1073                 1.1185
 Frc consts  --      6.4437                 6.5473                 6.8171
 IR Inten    --     10.3798                 0.4788                 0.5489

                     94                     95                     96
                      A                      A                      A
 Frequencies --   3230.1627              3481.7320              3668.3324
 Red. masses --      1.1154                 1.0735                 1.0659
 Frc consts  --      6.8571                 7.6673                 8.4506
 IR Inten    --     22.4390                 0.9688                88.6076

 - Thermochemistry -
 -------------------
 Temperature   298.150 Kelvin.  Pressure   1.00000 Atm.
 Atom     1 has atomic number  6 and mass  12.00000

 Molecular mass:   233.10857 amu.
 Principal axes and moments of inertia in atomic units:
                           1         2         3
     Eigenvalues --  1515.904796027.936816459.10578
           X            0.99996   0.00823  -0.00412
           Y           -0.00836   0.99942  -0.03295
           Z            0.00385   0.03299   0.99945
 This molecule is an asymmetric top.
 Rotational symmetry number  1.
 Warning -- assumption of classical behavior for rotation
           may cause significant error
 Rotational temperatures (Kelvin)      0.05714     0.01437     0.01341
 Rotational constants (GHZ):           1.19054     0.29940     0.27941
 Zero-point vibrational energy     777303.8 (Joules/Mol)
                                  185.78006 (Kcal/Mol)
 Warning -- explicit consideration of  23 degrees of freedom as
           vibrations may cause significant error
 Vibrational temperatures:     70.22    82.03   135.27   155.50   184.23
          (Kelvin)            223.81   291.64   299.44   318.36   369.04
                              384.07   421.28   453.80   475.87   557.44
                              568.40   572.19   615.14   662.45   689.24
                              775.64   792.12   853.32   910.42   953.89
                             1060.56  1094.13  1126.86  1137.25  1197.75
                             1220.38  1254.82  1260.72  1277.33  1297.08
                             1349.43  1366.78  1389.64  1424.32  1453.19
                             1522.41  1531.06  1556.09  1557.90  1563.03
                             1592.86  1610.05  1632.07  1652.10  1664.24
                             1691.30  1741.01  1755.45  1775.43  1783.81
                             1801.47  1824.80  1844.38  1887.04  1918.22
                             1923.25  1942.10  1987.26  2015.87  2021.75
                             2059.22  2068.57  2083.47  2117.14  2132.61
                             2151.97  2166.95  2181.32  2196.05  2204.29
                             2208.57  2213.05  4378.25  4383.46  4414.93
                             4437.17  4440.62  4448.14  4452.52  4470.79
                             4485.57  4520.00  4523.68  4526.13  4529.43
                             4542.09  4557.97  4627.49  4647.48  5009.44
                             5277.91

 Zero-point correction=                           0.296059 (Hartree/Particle)
 Thermal correction to Energy=                    0.311079
 Thermal correction to Enthalpy=                  0.312023
 Thermal correction to Gibbs Free Energy=         0.254396
 Sum of electronic and zero-point Energies=          -1070.780333
 Sum of electronic and thermal Energies=             -1070.765314
 Sum of electronic and thermal Enthalpies=           -1070.764370
 Sum of electronic and thermal Free Energies=        -1070.821997

                     E (Thermal)             CV                S
                      KCal/Mol        Cal/Mol-Kelvin    Cal/Mol-Kelvin
 Total                  195.205             59.420            121.287
 Electronic               0.000              0.000              0.000
 Translational            0.889              2.981             42.241
 Rotational               0.889              2.981             32.445
 Vibrational            193.427             53.459             46.600
 Vibration     1          0.595              1.978              4.865
 Vibration     2          0.596              1.975              4.558
 Vibration     3          0.603              1.953              3.575
 Vibration     4          0.606              1.943              3.303
 Vibration     5          0.611              1.925              2.975
 Vibration     6          0.620              1.896              2.603
 Vibration     7          0.639              1.836              2.108
 Vibration     8          0.641              1.828              2.060
 Vibration     9          0.648              1.809              1.949
 Vibration    10          0.666              1.752              1.686
 Vibration    11          0.672              1.734              1.616
 Vibration    12          0.688              1.687              1.458
 Vibration    13          0.703              1.644              1.334
 Vibration    14          0.713              1.614              1.256
 Vibration    15          0.756              1.497              1.010
 Vibration    16          0.762              1.481              0.981
 Vibration    17          0.764              1.475              0.971
 Vibration    18          0.789              1.410              0.867
 Vibration    19          0.818              1.338              0.765
 Vibration    20          0.835              1.297              0.713
 Vibration    21          0.894              1.164              0.567
 Vibration    22          0.906              1.138              0.543
 Vibration    23          0.951              1.047              0.462

 Optimization completed.
    -- Stationary point found.
 Normal termination of Gaussian 16 at Thu Dec 10 17:51:02 2020.

 ----------------------------------------------------------------------
 # B3LYP/6-311++G(d,p) empiricaldispersion=gd3bj scf=xqc pop=npa geom=c
 heck
 ----------------------------------------------------------------------

 --------------------------------------
 CID_63922283_JID_5936_Energie_neutraal
 --------------------------------------
 Structure from the checkpoint file:  "JID_5936.chk"
 Charge =  0 Multiplicity = 1

 SCF Done:  E(RB3LYP) =  -1071.30748646     A.U. after   15 cycles
 Normal termination of Gaussian 16 at Thu Dec 10 17:56:07 2020.

 ----------------------------------------------------------------------
 # B3LYP/6-311++G(d,p) empiricaldispersion=gd3bj scf=xqc pop=npa geom=c
 heck
 ----------------------------------------------------------------------

 ------------------------------------
 CID_63922283_JID_5936_Energie_kation
 ------------------------------------
 Structure from the checkpoint file:  "JID_5936.chk"
 Charge =  1 Multiplicity = 2

 SCF Done:  E(UB3LYP) =  -1071.00002723     A.U. after   22 cycles
 Normal termination of Gaussian 16 at Thu Dec 10 18:05:50 2020.
 Gaussian 16:  ES64L-G16RevA.03 25-Dec-2016

 ----------------------------------------------------------------------
 # B3LYP/6-311++G(d,p) empiricaldispersion=gd3bj scf=xqc pop=npa geom=c
 heck
 ----------------------------------------------------------------------

 -----------------------------------
 CID_63922283_JID_5936_Energie_anion
 -----------------------------------
 Structure from the checkpoint file:  "JID_5936.chk"
 Charge = -1 Multiplicity = 2

                         Standard orientation:
 ---------------------------------------------------------------------
 Center     Atomic      Atomic             Coordinates (Angstroms)
 Number     Number       Type             X           Y           Z
 ---------------------------------------------------------------------
      1          6           0        1.255378    1.752150   -1.178125
      2          6           0       -0.010919    1.523864   -0.331229
      3          6           0       -0.174430    0.095213    0.222470
      4          6           0        1.059334   -0.275082    1.082175
      5         16           0        2.633248   -0.205754    0.208514
      6          8           0        3.740129   -0.314154    1.170548
      7          8           0        2.565485   -1.146195   -0.937423
      8          6           0        2.567583    1.486690   -0.434880
      9          6           0       -0.374254   -0.928012   -0.936351
     10          8           0       -0.101317   -2.259424   -0.529404
     11          7           0       -1.270861    0.027928    1.208391
     12          6           0       -2.521576    0.755423    0.977892
     13          6           0       -3.371144    0.378486   -0.226978
     14          6           0       -4.134790   -0.922710   -0.214719
     15          6           0       -4.875073    0.387494   -0.105011
     16          1           0        1.233569    1.134775   -2.080986
     17          1           0        1.267944    2.794649   -1.516124
     18          1           0       -0.879504    1.777820   -0.948866
     19          1           0       -0.011777    2.222873    0.515411
     20          1           0        0.972342   -1.298537    1.455280
     21          1           0        1.138715    0.405544    1.932209
     22          1           0        2.691923    2.138066    0.436095
     23          1           0        3.443209    1.593785   -1.081758
     24          1           0       -1.422143   -0.895923   -1.238370
     25          1           0        0.238365   -0.666515   -1.803753
     26          1           0        0.857949   -2.373706   -0.660526
     27          1           0       -1.479654   -0.959553    1.353292
     28          1           0       -3.124492    0.599704    1.881861
     29          1           0       -2.299402    1.827623    0.949630
     30          1           0       -2.978398    0.690873   -1.192811
     31          1           0       -4.213593   -1.490048   -1.137419
     32          1           0       -4.061650   -1.541258    0.677021
     33          1           0       -5.302854    0.651204    0.859401
     34          1           0       -5.461515    0.722278   -0.955776
 ---------------------------------------------------------------------

 SCF Done:  E(UB3LYP) =  -1071.29978290     A.U. after   29 cycles

 The electronic state is 2-A.
 Alpha  occ. eigenvalues --  -88.95382 -19.03217 -19.02847 -19.02597 -14.21287
 Alpha  occ. eigenvalues --  -10.13458 -10.12100 -10.11871 -10.11644 -10.10788
 Alpha  occ. eigenvalues --  -10.09222 -10.08845 -10.08687 -10.08603 -10.08476
 Alpha  occ. eigenvalues --   -8.01941  -5.98219  -5.98082  -5.98019  -1.01742
 Alpha  occ. eigenvalues --   -0.93674  -0.91382  -0.83091  -0.77363  -0.74364
 Alpha  occ. eigenvalues --   -0.68711  -0.66549  -0.60830  -0.59205  -0.54684
 Alpha  occ. eigenvalues --   -0.52279  -0.51495  -0.48678  -0.46113  -0.43462
 Alpha  occ. eigenvalues --   -0.42648  -0.41631  -0.40433  -0.39523  -0.38814
 Alpha  occ. eigenvalues --   -0.37834  -0.36935  -0.35941  -0.34696  -0.33716
 Alpha  occ. eigenvalues --   -0.33037  -0.32080  -0.30547  -0.29416  -0.28309
 Alpha  occ. eigenvalues --   -0.27973  -0.26885  -0.26571  -0.26143  -0.24684
 Alpha  occ. eigenvalues --   -0.24120  -0.23041  -0.21600  -0.21273  -0.20418
 Alpha  occ. eigenvalues --   -0.20177  -0.19212  -0.13960   0.04067
 Alpha virt. eigenvalues --    0.06230   0.06909   0.07632   0.08338   0.08649
 Alpha virt. eigenvalues --    0.09173   0.09858   0.10269   0.10885   0.11330
 Alpha virt. eigenvalues --    0.11695   0.11851   0.12697   0.13522   0.13803

  Beta  occ. eigenvalues --  -88.95382 -19.03214 -19.02840 -19.02594 -14.21282
  Beta  occ. eigenvalues --  -10.13459 -10.12091 -10.11841 -10.11634 -10.10774
  Beta  occ. eigenvalues --  -10.09180 -10.08829 -10.08679 -10.08583 -10.08440
  Beta  occ. eigenvalues --   -8.01941  -5.98218  -5.98082  -5.98020  -1.01732
  Beta  occ. eigenvalues --   -0.93668  -0.91370  -0.83077  -0.77338  -0.74325
  Beta  occ. eigenvalues --   -0.68674  -0.66507  -0.60791  -0.59179  -0.54612
  Beta  occ. eigenvalues --   -0.52246  -0.51447  -0.48631  -0.46059  -0.43443
  Beta  occ. eigenvalues --   -0.42613  -0.41596  -0.40408  -0.39488  -0.38786
  Beta  occ. eigenvalues --   -0.37806  -0.36909  -0.35911  -0.34673  -0.33689
  Beta  occ. eigenvalues --   -0.32976  -0.32034  -0.30526  -0.29389  -0.28284
  Beta  occ. eigenvalues --   -0.27939  -0.26846  -0.26528  -0.26098  -0.24657
  Beta  occ. eigenvalues --   -0.24104  -0.23029  -0.21586  -0.21250  -0.20393
  Beta  occ. eigenvalues --   -0.20157  -0.19200  -0.13948
  Beta virt. eigenvalues --    0.06348   0.07288   0.07438   0.07905   0.08910
  Beta virt. eigenvalues --    0.09261   0.09438   0.10173   0.10636   0.11309
  Beta virt. eigenvalues --    0.11690   0.11974   0.12061   0.13035   0.13821

 Mulliken charges and spin densities:
               1          2
     1  C    1.275960  -1.759388
     2  C   -0.186591   0.102384
     3  C   -0.937621   0.261428
     4  C   -0.891779   0.257553
     5  S    1.025305  -0.519147
     6  O   -0.126950   0.032712
     7  O   -0.269219   0.008017
     8  C   -0.220366  -0.563376
     9  C    0.111270  -0.588206
    10  O   -0.155013   0.011882
    11  N    0.227326   0.060734
    12  C    0.573746  -1.114181
    13  C   -0.933057   1.167719
    14  C    0.109219  -0.475493
    15  C    0.643487  -1.096303
    16  H    0.161555   0.018774
    17  H   -1.258396   1.488486
    18  H   -0.291491   0.487654
    19  H   -0.069396   0.274509
    20  H    0.301117  -0.011342
    21  H    0.062524   0.228894
    22  H   -0.071709   0.327090
    23  H   -0.045635   0.301397
    24  H    0.247824  -0.013621
    25  H    0.082888   0.123590
    26  H    0.230923   0.016095
    27  H    0.212855   0.033683
    28  H   -0.101976   0.267427
    29  H   -0.218555   0.389120
    30  H   -0.402954   0.637959
    31  H    0.081738   0.062794
    32  H    0.091430   0.048350
    33  H    0.040156   0.082234
    34  H   -0.298615   0.450574
 Sum of Mulliken charges =  -1.00000   1.00000

 Dipole moment (field-independent basis, Debye):
    X=             -0.5273    Y=             -6.4723    Z=              2.9385  Tot=              7.1276
 Quadrupole moment (field-independent basis, Debye-Ang):
   XX=           -175.8576   YY=           -158.7810   ZZ=           -135.6140
   XY=              3.7657   XZ=             -8.4468   YZ=              5.7336

 Summary of Natural Population Analysis:

                                       Natural Population
                Natural  -----------------------------------------------
    Atom  No    Charge         Core      Valence    Rydberg      Total
 -----------------------------------------------------------------------
      C    1   -0.20042      0.99961     2.18954    0.01126     3.20042
      C    2   -0.20272      0.99957     2.19061    0.01255     3.20272
      C    3    0.04722      0.99954     1.93748    0.01576     2.95278
      C    4   -0.29989      0.99952     2.28344    0.01693     3.29989
      S    5    1.02205      4.99922     1.88675    0.09198     6.97795
      O    6   -0.46734      0.99991     3.46190    0.00553     4.46734
      O    7   -0.48640      0.99991     3.48077    0.00573     4.48640
      C    8   -0.28552      0.99958     2.27424    0.01170     3.28552
      C    9   -0.02334      0.99951     2.01015    0.01368     3.02334
      O   10   -0.38076      0.99990     3.37497    0.00589     4.38076
      N   11   -0.34529      0.99972     2.83308    0.01250     3.84529
      C   12   -0.08885      0.99959     2.07606    0.01320     3.08885
      C   13   -0.13077      0.99958     2.11977    0.01141     3.13077
      C   14   -0.20144      0.99962     2.19393    0.00790     3.20144
      C   15   -0.19424      0.99961     2.18510    0.00953     3.19424
      H   16    0.10265      0.00000     0.39585    0.00150     0.39735
      H   17    0.11899      0.00000     0.37380    0.00720     0.38101
      H   18    0.11249      0.00000     0.38471    0.00280     0.38751
      H   19    0.10819      0.00000     0.38907    0.00275     0.39181
      H   20    0.12357      0.00000     0.37524    0.00119     0.37643
      H   21    0.12535      0.00000     0.37315    0.00150     0.37465
      H   22    0.11723      0.00000     0.38114    0.00163     0.38277
      H   23    0.12060      0.00000     0.37827    0.00112     0.37940
      H   24    0.09455      0.00000     0.40387    0.00159     0.40545
      H   25    0.08933      0.00000     0.40949    0.00118     0.41067
      H   26    0.24083      0.00000     0.25644    0.00273     0.25917
      H   27    0.17564      0.00000     0.32183    0.00252     0.32436
      H   28    0.09417      0.00000     0.40465    0.00118     0.40583
      H   29    0.10146      0.00000     0.39706    0.00148     0.39854
      H   30    0.10641      0.00000     0.39150    0.00209     0.39359
      H   31    0.10387      0.00000     0.39530    0.00083     0.39613
      H   32    0.09795      0.00000     0.40110    0.00096     0.40205
      H   33    0.09901      0.00000     0.40006    0.00093     0.40099
      H   34    0.10541      0.00000     0.39337    0.00121     0.39459
 =======================================================================
   * Total *   -0.00000     18.99438    43.72369    0.28193    63.00000

 Normal termination of Gaussian 16 at Thu Dec 10 18:18:02 2020.
