 Gaussian 16, Revision A.03,

 -----------------------------------------------------------
 # opt freq B3LYP/6-31G(d) empiricaldispersion=gd3bj scf=xqc
 -----------------------------------------------------------

 -----------------------------
 CID_45085577_JID_810_neutraal
 -----------------------------
 Symbolic Z-matrix:
 Charge =  0 Multiplicity = 1

 SCF Done:  E(RB3LYP) =  -462.524944052     A.U. after   15 cycles
 SCF Done:  E(RB3LYP) =  -462.529006073     A.U. after   13 cycles
 SCF Done:  E(RB3LYP) =  -462.530521546     A.U. after   14 cycles
 SCF Done:  E(RB3LYP) =  -462.530910189     A.U. after   15 cycles
 SCF Done:  E(RB3LYP) =  -462.531905854     A.U. after   13 cycles
 SCF Done:  E(RB3LYP) =  -462.532188990     A.U. after   13 cycles
 SCF Done:  E(RB3LYP) =  -462.532337631     A.U. after   13 cycles
 SCF Done:  E(RB3LYP) =  -462.532277361     A.U. after   13 cycles
 SCF Done:  E(RB3LYP) =  -462.532427987     A.U. after   13 cycles
 SCF Done:  E(RB3LYP) =  -462.532742964     A.U. after   13 cycles
 SCF Done:  E(RB3LYP) =  -462.533473625     A.U. after    9 cycles
 SCF Done:  E(RB3LYP) =  -462.533474810     A.U. after    9 cycles
 SCF Done:  E(RB3LYP) =  -462.533475245     A.U. after    8 cycles
 SCF Done:  E(RB3LYP) =  -462.533475737     A.U. after    8 cycles
 SCF Done:  E(RB3LYP) =  -462.533476396     A.U. after    8 cycles
 SCF Done:  E(RB3LYP) =  -462.533476732     A.U. after    8 cycles
 Optimization completed.
    -- Stationary point found.

 1\1\GINC-NODE111\FOpt\RB3LYP\6-31G(d)\C8H12O2\VSC10255\08-Dec-2020\0\\
 # opt freq B3LYP/6-31G(d) empiricaldispersion=gd3bj scf=xqc\\CID_45085
 577_JID_810_neutraal\\0,1\C,0.9035962434,-0.0613416072,-0.1175336089\C
 ,1.8334483136,-1.0541216303,-0.8406961834\C,1.7586544253,-2.4201795799
 ,-0.233594234\C,0.8661471317,-3.4072365046,-0.4474500329\C,1.211897511
 5,-4.5939384891,0.424812513\O,2.3286425608,-4.1769097362,1.210289031\C
 ,2.7456173742,-2.8796824383,0.8025193537\C,-0.2557406557,-3.3751301038
 ,-1.4064546718\O,-0.5668312017,-2.3566593649,-2.014276383\C,-1.0157740

 Normal termination of Gaussian 16 at Tue Dec  8 12:57:08 2020.

 --------------------------------------------------------------------
 #N Geom=AllCheck Guess=TCheck SCRF=Check GenChk RB3LYP/6-31G(d) Freq
 --------------------------------------------------------------------

 Structure from the checkpoint file:  "JID_810.chk"
 -----------------------------
 CID_45085577_JID_810_neutraal
 -----------------------------
 Charge =  0 Multiplicity = 1

 SCF Done:  E(RB3LYP) =  -462.533476732     A.U. after    1 cycles

  Exact polarizability: 113.642   2.823  88.866   4.121   0.816  62.207
 Approx polarizability: 160.276  -0.483 131.152   8.663   3.360  92.211

                      1                      2                      3
                      A                      A                      A
 Frequencies --     52.2238                84.2999                95.1673
 Red. masses --      3.4228                 2.8886                 2.6309
 Frc consts  --      0.0055                 0.0121                 0.0140
 IR Inten    --      5.2481                 0.3288                 7.3451

                      4                      5                      6
                      A                      A                      A
 Frequencies --    135.5023               143.8828               172.9516
 Red. masses --      1.9020                 1.2978                 3.1024
 Frc consts  --      0.0206                 0.0158                 0.0547
 IR Inten    --      0.1496                 0.7704                 0.9309

                      7                      8                      9
                      A                      A                      A
 Frequencies --    193.8290               232.2438               306.1745
 Red. masses --      2.2530                 1.4207                 2.4032
 Frc consts  --      0.0499                 0.0451                 0.1327
 IR Inten    --      3.2052                 2.1389                 0.8964

                     10                     11                     12
                      A                      A                      A
 Frequencies --    331.3283               409.1538               455.1113
 Red. masses --      2.7983                 4.0196                 3.8438
 Frc consts  --      0.1810                 0.3965                 0.4691
 IR Inten    --      0.2245                 1.5285                 2.1263

                     13                     14                     15
                      A                      A                      A
 Frequencies --    522.2392               618.4467               631.4252
 Red. masses --      3.1596                 3.2486                 3.8459
 Frc consts  --      0.5077                 0.7321                 0.9034
 IR Inten    --      1.2242                 1.1166                27.8079

                     16                     17                     18
                      A                      A                      A
 Frequencies --    651.1853               796.7235               816.3333
 Red. masses --      2.8846                 1.3494                 3.3309
 Frc consts  --      0.7207                 0.5047                 1.3078
 IR Inten    --      0.7229                 1.9932                15.5367

                     19                     20                     21
                      A                      A                      A
 Frequencies --    928.0373               955.8125               975.2593
 Red. masses --      2.9658                 3.9969                 2.1899
 Frc consts  --      1.5050                 2.1514                 1.2272
 IR Inten    --     28.0932                17.2917                 5.2081

                     22                     23                     24
                      A                      A                      A
 Frequencies --    996.4455              1022.0481              1049.1521
 Red. masses --      1.6067                 1.7648                 1.7448
 Frc consts  --      0.9399                 1.0861                 1.1316
 IR Inten    --      3.7308                 5.6556                 4.7989

                     25                     26                     27
                      A                      A                      A
 Frequencies --   1069.6311              1079.1893              1097.8377
 Red. masses --      1.8432                 2.5704                 2.0010
 Frc consts  --      1.2425                 1.7638                 1.4210
 IR Inten    --     12.3667                28.1344                 4.1625

                     28                     29                     30
                      A                      A                      A
 Frequencies --   1135.1842              1164.4485              1184.7166
 Red. masses --      3.7358                 3.3190                 1.1030
 Frc consts  --      2.8364                 2.6515                 0.9122
 IR Inten    --     23.1911                 9.8613                 2.1262

                     31                     32                     33
                      A                      A                      A
 Frequencies --   1236.9221              1239.1518              1301.4458
 Red. masses --      1.3811                 1.5357                 2.4903
 Frc consts  --      1.2450                 1.3893                 2.4852
 IR Inten    --     11.3638                 9.6564               127.8913

                     34                     35                     36
                      A                      A                      A
 Frequencies --   1328.1476              1365.1821              1400.1106
 Red. masses --      1.2339                 1.3841                 1.7595
 Frc consts  --      1.2824                 1.5198                 2.0321
 IR Inten    --     10.5285                 0.4607                 2.6836

                     37                     38                     39
                      A                      A                      A
 Frequencies --   1411.2648              1416.1730              1430.0592
 Red. masses --      1.5809                 1.4597                 1.2420
 Frc consts  --      1.8551                 1.7248                 1.4966
 IR Inten    --     25.2364                32.9817                 7.7199

                     40                     41                     42
                      A                      A                      A
 Frequencies --   1493.3304              1504.1354              1510.2060
 Red. masses --      1.0614                 1.0480                 1.0922
 Frc consts  --      1.3946                 1.3969                 1.4676
 IR Inten    --     15.6416                10.9103                 4.0206

                     43                     44                     45
                      A                      A                      A
 Frequencies --   1526.2557              1538.1827              1539.2425
 Red. masses --      1.0501                 1.0847                 1.0625
 Frc consts  --      1.4412                 1.5121                 1.4831
 IR Inten    --      2.6346                 2.9635                 8.0071

                     46                     47                     48
                      A                      A                      A
 Frequencies --   1558.7831              1692.2545              1768.2448
 Red. masses --      1.0893                 7.9146                 9.9818
 Frc consts  --      1.5595                13.3540                18.3885
 IR Inten    --      4.3605               145.5832               114.0646

                     49                     50                     51
                      A                      A                      A
 Frequencies --   2980.3502              2991.6376              3007.2088
 Red. masses --      1.0632                 1.0665                 1.0961
 Frc consts  --      5.5640                 5.6238                 5.8402
 IR Inten    --     90.5770                55.0014                29.0996

                     52                     53                     54
                      A                      A                      A
 Frequencies --   3018.6381              3046.2511              3046.5738
 Red. masses --      1.0984                 1.0452                 1.0605
 Frc consts  --      5.8970                 5.7143                 5.7992
 IR Inten    --     57.2622                18.9803                24.6379

                     55                     56                     57
                      A                      A                      A
 Frequencies --   3057.1149              3102.5064              3115.0682
 Red. masses --      1.0363                 1.0994                 1.0988
 Frc consts  --      5.7064                 6.2348                 6.2822
 IR Inten    --     34.5231                11.4157                13.3372

                     58                     59                     60
                      A                      A                      A
 Frequencies --   3129.4309              3152.8107              3170.8187
 Red. masses --      1.0987                 1.1023                 1.1009
 Frc consts  --      6.3394                 6.4556                 6.5214
 IR Inten    --     21.6018                19.0697                10.0850

 - Thermochemistry -
 -------------------
 Temperature   298.150 Kelvin.  Pressure   1.00000 Atm.
 Atom     1 has atomic number  6 and mass  12.00000

 Molecular mass:   140.08373 amu.
 Principal axes and moments of inertia in atomic units:
                           1         2         3
     Eigenvalues --  1200.333391359.211572384.06828
           X            0.94843   0.31697   0.00115
           Y           -0.31695   0.94840  -0.00900
           Z           -0.00394   0.00817   0.99996
 This molecule is an asymmetric top.
 Rotational symmetry number  1.
 Warning -- assumption of classical behavior for rotation
           may cause significant error
 Rotational temperatures (Kelvin)      0.07216     0.06372     0.03633
 Rotational constants (GHZ):           1.50353     1.32779     0.75700
 Zero-point vibrational energy     492762.7 (Joules/Mol)
                                  117.77310 (Kcal/Mol)
 Warning -- explicit consideration of  14 degrees of freedom as
           vibrations may cause significant error
 Vibrational temperatures:     75.14   121.29   136.92   194.96   207.02
          (Kelvin)            248.84   278.88   334.15   440.52   476.71
                              588.68   654.80   751.39   889.81   908.48
                              936.91  1146.31  1174.52  1335.24  1375.20
                             1403.18  1433.66  1470.50  1509.50  1538.96
                             1552.71  1579.54  1633.28  1675.38  1704.54
                             1779.66  1782.86  1872.49  1910.91  1964.19
                             2014.45  2030.50  2037.56  2057.54  2148.57
                             2164.12  2172.85  2195.94  2213.10  2214.63
                             2242.74  2434.78  2544.11  4288.06  4304.30
                             4326.70  4343.15  4382.88  4383.34  4398.51
                             4463.81  4481.89  4502.55  4536.19  4562.10

 Zero-point correction=                           0.187683 (Hartree/Particle)
 Thermal correction to Energy=                    0.198504
 Thermal correction to Enthalpy=                  0.199448
 Thermal correction to Gibbs Free Energy=         0.150798
 Sum of electronic and zero-point Energies=           -462.345793
 Sum of electronic and thermal Energies=              -462.334973
 Sum of electronic and thermal Enthalpies=            -462.334029
 Sum of electronic and thermal Free Energies=         -462.382678

                     E (Thermal)             CV                S
                      KCal/Mol        Cal/Mol-Kelvin    Cal/Mol-Kelvin
 Total                  124.563             38.292            102.392
 Electronic               0.000              0.000              0.000
 Translational            0.889              2.981             40.723
 Rotational               0.889              2.981             29.743
 Vibrational            122.785             32.331             31.926
 Vibration     1          0.596              1.977              4.731
 Vibration     2          0.601              1.960              3.788
 Vibration     3          0.603              1.953              3.551
 Vibration     4          0.613              1.918              2.866
 Vibration     5          0.616              1.909              2.752
 Vibration     6          0.626              1.876              2.403
 Vibration     7          0.635              1.848              2.191
 Vibration     8          0.653              1.792              1.862
 Vibration     9          0.697              1.662              1.383
 Vibration    10          0.714              1.613              1.254
 Vibration    11          0.774              1.450              0.930
 Vibration    12          0.813              1.350              0.780
 Vibration    13          0.877              1.201              0.605
 Vibration    14          0.978              0.993              0.419

 Optimization completed.
    -- Stationary point found.

 1\1\GINC-NODE111\Freq\RB3LYP\6-31G(d)\C8H12O2\VSC10255\08-Dec-2020\0\\
 #N Geom=AllCheck Guess=TCheck SCRF=Check GenChk RB3LYP/6-31G(d) Freq\\
 CID_45085577_JID_810_neutraal\\0,1\C,0.9035962434,-0.0613416072,-0.117
 5336089\C,1.8334483136,-1.0541216303,-0.8406961834\C,1.7586544253,-2.4
 201795799,-0.233594234\C,0.8661471317,-3.4072365046,-0.4474500329\C,1.
 2118975115,-4.5939384891,0.424812513\O,2.3286425608,-4.1769097362,1.21
 0289031\C,2.7456173742,-2.8796824383,0.8025193537\C,-0.2557406557,-3.3
 751301038,-1.4064546718\O,-0.5668312017,-2.3566593649,-2.014276383\C,-

 Normal termination of Gaussian 16 at Tue Dec  8 13:10:01 2020.

 ----------------------------------------------------------------------
 # B3LYP/6-311++G(d,p) empiricaldispersion=gd3bj scf=xqc pop=npa geom=c
 heck
 ----------------------------------------------------------------------

 -------------------------------------
 CID_45085577_JID_810_Energie_neutraal
 -------------------------------------
 Structure from the checkpoint file:  "JID_810.chk"
 Charge =  0 Multiplicity = 1

 SCF Done:  E(RB3LYP) =  -462.666098686     A.U. after   14 cycles
 Normal termination of Gaussian 16 at Tue Dec  8 13:17:02 2020.

 ----------------------------------------------------------------------
 # B3LYP/6-311++G(d,p) empiricaldispersion=gd3bj scf=xqc pop=npa geom=c
 heck
 ----------------------------------------------------------------------

 -----------------------------------
 CID_45085577_JID_810_Energie_kation
 -----------------------------------
 Structure from the checkpoint file:  "JID_810.chk"
 Charge =  1 Multiplicity = 2

 SCF Done:  E(UB3LYP) =  -462.344011902     A.U. after   24 cycles
 Normal termination of Gaussian 16 at Tue Dec  8 13:23:38 2020.
 Gaussian 16:  ES64L-G16RevA.03 25-Dec-2016

 ----------------------------------
 CID_45085577_JID_810_Energie_anion
 ----------------------------------
 Structure from the checkpoint file:  "JID_810.chk"
 Charge = -1 Multiplicity = 2

                         Standard orientation:
 ---------------------------------------------------------------------
 Center     Atomic      Atomic             Coordinates (Angstroms)
 Number     Number       Type             X           Y           Z
 ---------------------------------------------------------------------
      1          6           0       -1.989691   -1.891508    0.702517
      2          6           0       -1.621763   -1.133251   -0.587008
      3          6           0       -0.875848    0.129684   -0.288868
      4          6           0        0.436298    0.314197   -0.042265
      5          6           0        0.695949    1.781199    0.220665
      6          8           0       -0.585900    2.408266    0.179942
      7          6           0       -1.575064    1.456556   -0.192544
      8          6           0        1.481622   -0.728060   -0.060990
      9          8           0        1.214283   -1.919723   -0.170424
     10          6           0        2.919463   -0.255942    0.060018
     11          1           0       -1.078910   -2.208022    1.216711
     12          1           0       -2.579963   -2.782405    0.463944
     13          1           0       -2.578087   -1.264953    1.382158
     14          1           0       -1.001526   -1.784095   -1.208328
     15          1           0       -2.534530   -0.890298   -1.146332
     16          1           0        1.358667    2.233826   -0.535048
     17          1           0        1.154388    1.964845    1.204244
     18          1           0       -2.382331    1.441951    0.557491
     19          1           0       -2.037303    1.732799   -1.155904
     20          1           0        3.168171    0.440341   -0.750791
     21          1           0        3.068245    0.286115    1.002648
     22          1           0        3.590319   -1.115697    0.023924
 ---------------------------------------------------------------------

 SCF Done:  E(UB3LYP) =  -462.667373780     A.U. after   30 cycles

 The electronic state is 2-A.
 Alpha  occ. eigenvalues --  -18.98700 -18.90801 -10.08057 -10.07754 -10.05711
 Alpha  occ. eigenvalues --  -10.02403 -10.02347 -10.01849 -10.00289  -9.99970
 Alpha  occ. eigenvalues --   -0.90385  -0.84857  -0.66211  -0.61965  -0.58713
 Alpha  occ. eigenvalues --   -0.57769  -0.48667  -0.46908  -0.42987  -0.35932
 Alpha  occ. eigenvalues --   -0.34519  -0.33721  -0.29878  -0.29465  -0.29082
 Alpha  occ. eigenvalues --   -0.27950  -0.27244  -0.26405  -0.24962  -0.23296
 Alpha  occ. eigenvalues --   -0.22473  -0.21173  -0.19607  -0.19463  -0.17305
 Alpha  occ. eigenvalues --   -0.13355  -0.08922  -0.07334   0.05706
 Alpha virt. eigenvalues --    0.08917   0.09360   0.10277   0.11208   0.11896
 Alpha virt. eigenvalues --    0.12358   0.13114   0.13781   0.14085   0.14769
 Alpha virt. eigenvalues --    0.15369   0.16125   0.16823   0.17430   0.18738

  Beta  occ. eigenvalues --  -18.98703 -18.90288 -10.08059 -10.07792 -10.05344
  Beta  occ. eigenvalues --  -10.02440 -10.02379 -10.01770  -9.99980  -9.99759
  Beta  occ. eigenvalues --   -0.90376  -0.83908  -0.65638  -0.61687  -0.58524
  Beta  occ. eigenvalues --   -0.57621  -0.48490  -0.46640  -0.42352  -0.35578
  Beta  occ. eigenvalues --   -0.34278  -0.33482  -0.29722  -0.29268  -0.28555
  Beta  occ. eigenvalues --   -0.27825  -0.26973  -0.26230  -0.24528  -0.23044
  Beta  occ. eigenvalues --   -0.22200  -0.20937  -0.19359  -0.17514  -0.17028
  Beta  occ. eigenvalues --   -0.12944  -0.07309  -0.06827
  Beta virt. eigenvalues --    0.08812   0.09428   0.10442   0.11167   0.11809
  Beta virt. eigenvalues --    0.12072   0.12781   0.13520   0.14027   0.14205
  Beta virt. eigenvalues --    0.14742   0.15330   0.16066   0.16752   0.17328

 Mulliken charges and spin densities:
               1          2
     1  C    0.197433  -0.811280
     2  C   -0.945945   0.512942
     3  C    0.817729   0.121375
     4  C    0.577815   0.101359
     5  C   -0.614871  -0.028411
     6  O   -0.191642   0.003097
     7  C   -0.118706  -0.302955
     8  C   -0.376533   0.293419
     9  O   -0.403763   0.180398
    10  C   -0.567385  -0.073761
    11  H    0.062420   0.128353
    12  H   -0.287258   0.391835
    13  H    0.043824   0.054254
    14  H    0.211328  -0.019600
    15  H   -0.128967   0.231171
    16  H    0.135818  -0.002061
    17  H    0.127782   0.015247
    18  H    0.144759   0.003711
    19  H    0.009515   0.133925
    20  H    0.112711   0.003210
    21  H    0.066234   0.049814
    22  H    0.127703   0.013959
 Sum of Mulliken charges =  -1.00000   1.00000

 Dipole moment (field-independent basis, Debye):
    X=              0.9077    Y=              3.4722    Z=              0.0366  Tot=              3.5891
 Quadrupole moment (field-independent basis, Debye-Ang):
   XX=            -86.6386   YY=            -96.5600   ZZ=            -71.1950
   XY=              0.6700   XZ=             -0.5829   YZ=              0.3315

 Summary of Natural Population Analysis:

                                       Natural Population
                Natural  -----------------------------------------------
    Atom  No    Charge         Core      Valence    Rydberg      Total
 -----------------------------------------------------------------------
      C    1   -0.27431      0.99966     2.26911    0.00554     3.27431
      C    2   -0.21274      0.99961     2.20281    0.01032     3.21274
      C    3    0.10687      0.99944     1.88307    0.01061     2.89313
      C    4   -0.09470      0.99937     2.08692    0.00841     3.09470
      C    5   -0.00269      0.99957     1.99366    0.00945     3.00269
      O    6   -0.30962      0.99989     3.30063    0.00910     4.30962
      C    7   -0.01419      0.99954     2.00376    0.01089     3.01419
      C    8    0.30569      0.99963     1.67436    0.02033     2.69431
      O    9   -0.26510      0.99988     3.25904    0.00618     4.26510
      C   10   -0.32976      0.99965     2.32475    0.00537     3.32976
      H   11    0.10785      0.00000     0.39091    0.00124     0.39215
      H   12    0.09034      0.00000     0.40797    0.00169     0.40966
      H   13    0.08679      0.00000     0.41220    0.00102     0.41321
      H   14    0.11685      0.00000     0.38184    0.00131     0.38315
      H   15    0.08765      0.00000     0.41091    0.00144     0.41235
      H   16    0.07263      0.00000     0.42559    0.00178     0.42737
      H   17    0.07492      0.00000     0.42296    0.00212     0.42508
      H   18    0.08053      0.00000     0.41738    0.00209     0.41947
      H   19    0.07840      0.00000     0.41892    0.00267     0.42160
      H   20    0.09772      0.00000     0.40086    0.00142     0.40228
      H   21    0.09753      0.00000     0.40019    0.00229     0.40247
      H   22    0.09934      0.00000     0.39817    0.00249     0.40066
 =======================================================================
   * Total *    0.00000      9.99624    27.88601    0.11776    38.00000

 Normal termination of Gaussian 16 at Tue Dec  8 13:29:35 2020.
