 Gaussian 16, Revision A.03,

 -----------------------------------------------------------
 # opt freq B3LYP/6-31G(d) empiricaldispersion=gd3bj scf=xqc
 -----------------------------------------------------------

 -------------------------------
 CID_135361170_JID_1631_neutraal
 -------------------------------
 Symbolic Z-matrix:
 Charge =  0 Multiplicity = 1

 SCF Done:  E(RB3LYP) =  -564.800318094     A.U. after   14 cycles
 SCF Done:  E(RB3LYP) =  -564.811036351     A.U. after   13 cycles
 SCF Done:  E(RB3LYP) =  -564.816194617     A.U. after   12 cycles
 SCF Done:  E(RB3LYP) =  -564.819456022     A.U. after   13 cycles
 SCF Done:  E(RB3LYP) =  -564.821003711     A.U. after   12 cycles
 SCF Done:  E(RB3LYP) =  -564.821764511     A.U. after   12 cycles
 SCF Done:  E(RB3LYP) =  -564.822129926     A.U. after   12 cycles
 SCF Done:  E(RB3LYP) =  -564.822252882     A.U. after   11 cycles
 SCF Done:  E(RB3LYP) =  -564.822304465     A.U. after   11 cycles
 SCF Done:  E(RB3LYP) =  -564.822328597     A.U. after    9 cycles
 SCF Done:  E(RB3LYP) =  -564.822443402     A.U. after    9 cycles
 SCF Done:  E(RB3LYP) =  -564.822443753     A.U. after    8 cycles
 SCF Done:  E(RB3LYP) =  -564.822444019     A.U. after    8 cycles
 SCF Done:  E(RB3LYP) =  -564.822444168     A.U. after    8 cycles
 SCF Done:  E(RB3LYP) =  -564.822444280     A.U. after    7 cycles
 SCF Done:  E(RB3LYP) =  -564.822444340     A.U. after    7 cycles
 Optimization completed.
    -- Stationary point found.
 Normal termination of Gaussian 16 at Tue Dec  8 20:42:44 2020.

 --------------------------------------------------------------------
 #N Geom=AllCheck Guess=TCheck SCRF=Check GenChk RB3LYP/6-31G(d) Freq
 --------------------------------------------------------------------

 Structure from the checkpoint file:  "JID_1631.chk"
 -------------------------------
 CID_135361170_JID_1631_neutraal
 -------------------------------
 Charge =  0 Multiplicity = 1

 SCF Done:  E(RB3LYP) =  -564.822444340     A.U. after    1 cycles

  Exact polarizability: 103.587   3.537  87.294  -7.034   1.073  52.501
 Approx polarizability: 155.603   0.834 131.475 -17.018   4.402  80.841

                      1                      2                      3
                      A                      A                      A
 Frequencies --     56.9449                62.6265                99.9589
 Red. masses --      4.5387                 6.7805                 1.5158
 Frc consts  --      0.0087                 0.0157                 0.0089
 IR Inten    --      0.5040                 0.1523                 1.4914

                      4                      5                      6
                      A                      A                      A
 Frequencies --    108.8951               157.1905               181.7839
 Red. masses --      2.9571                 2.4801                 1.0976
 Frc consts  --      0.0207                 0.0361                 0.0214
 IR Inten    --      1.8818                 3.5101                35.5927

                      7                      8                      9
                      A                      A                      A
 Frequencies --    248.6722               285.2849               300.3728
 Red. masses --      4.2445                 3.6151                 4.4580
 Frc consts  --      0.1546                 0.1733                 0.2370
 IR Inten    --      1.7182                 5.8989                 3.4243

                     10                     11                     12
                      A                      A                      A
 Frequencies --    356.7012               444.2237               496.2558
 Red. masses --      6.2862                 7.9218                 1.1620
 Frc consts  --      0.4712                 0.9210                 0.1686
 IR Inten    --     10.5205                 2.2151                 8.6991

                     13                     14                     15
                      A                      A                      A
 Frequencies --    532.2647               585.0529               599.9854
 Red. masses --      3.5669                 1.2327                 3.3708
 Frc consts  --      0.5954                 0.2486                 0.7149
 IR Inten    --      9.0349               124.6254                39.7406

                     16                     17                     18
                      A                      A                      A
 Frequencies --    626.3805               649.6803               685.2870
 Red. masses --      4.8534                 6.4303                 3.3800
 Frc consts  --      1.1220                 1.5991                 0.9352
 IR Inten    --     47.6572                32.0296                 8.0060

                     19                     20                     21
                      A                      A                      A
 Frequencies --    765.2011               771.3255               809.5164
 Red. masses --      5.6437                 1.9146                 3.3236
 Frc consts  --      1.9470                 0.6711                 1.2832
 IR Inten    --    114.3536               102.5880                47.8272

                     22                     23                     24
                      A                      A                      A
 Frequencies --    820.4848               852.0734               978.3672
 Red. masses --      1.4562                 7.0657                 5.0791
 Frc consts  --      0.5776                 3.0225                 2.8644
 IR Inten    --     61.0865                24.1389                21.1632

                     25                     26                     27
                      A                      A                      A
 Frequencies --   1036.8137              1089.6270              1144.6077
 Red. masses --      2.1756                 1.8645                 2.1953
 Frc consts  --      1.3779                 1.3043                 1.6945
 IR Inten    --     27.2649                 6.2939                 8.5337

                     28                     29                     30
                      A                      A                      A
 Frequencies --   1159.9793              1217.5140              1240.4886
 Red. masses --      1.3283                 1.7219                 1.5895
 Frc consts  --      1.0530                 1.5039                 1.4411
 IR Inten    --      5.7031               258.6852                10.1866

                     31                     32                     33
                      A                      A                      A
 Frequencies --   1301.2671              1380.0090              1413.3875
 Red. masses --      2.4836                 4.7556                 3.4312
 Frc consts  --      2.4778                 5.3361                 4.0384
 IR Inten    --      7.7991                37.1774                28.4174

                     34                     35                     36
                      A                      A                      A
 Frequencies --   1442.9247              1446.3048              1467.2299
 Red. masses --      3.8968                 2.0855                 2.0707
 Frc consts  --      4.7802                 2.5703                 2.6264
 IR Inten    --     91.0228                79.1863                79.1836

                     37                     38                     39
                      A                      A                      A
 Frequencies --   1477.9247              1511.6851              1534.3187
 Red. masses --      1.5168                 1.0895                 1.4335
 Frc consts  --      1.9520                 1.4668                 1.9883
 IR Inten    --     31.4900                 1.9476                11.6128

                     40                     41                     42
                      A                      A                      A
 Frequencies --   1555.6921              1664.5589              1692.9868
 Red. masses --      2.4187                 3.4144                 1.3841
 Frc consts  --      3.4489                 5.5740                 2.3373
 IR Inten    --     24.5646                16.0043                67.1726

                     43                     44                     45
                      A                      A                      A
 Frequencies --   1856.4446              3068.3553              3132.7331
 Red. masses --      8.0108                 1.0353                 1.1038
 Frc consts  --     16.2664                 5.7430                 6.3825
 IR Inten    --    589.9776                41.9175                15.3168

                     46                     47                     48
                      A                      A                      A
 Frequencies --   3185.1444              3252.8564              3514.3286
 Red. masses --      1.1027                 1.0959                 1.0493
 Frc consts  --      6.5912                 6.8318                 7.6357
 IR Inten    --      4.1014                 9.5449                 3.3798

                     49                     50                     51
                      A                      A                      A
 Frequencies --   3592.6214              3611.7751              3734.9662
 Red. masses --      1.0760                 1.0951                 1.0646
 Frc consts  --      8.1826                 8.4165                 8.7503
 IR Inten    --     42.9255                 8.0909                86.0887

 - Thermochemistry -
 -------------------
 Temperature   298.150 Kelvin.  Pressure   1.00000 Atm.
 Atom     1 has atomic number  6 and mass  12.00000

 Molecular mass:   156.06473 amu.
 Principal axes and moments of inertia in atomic units:
                           1         2         3
     Eigenvalues --  1047.383341986.563502696.55203
           X            0.99953   0.03070  -0.00109
           Y           -0.03072   0.99942  -0.01455
           Z            0.00065   0.01458   0.99989
 This molecule is an asymmetric top.
 Rotational symmetry number  1.
 Warning -- assumption of classical behavior for rotation
           may cause significant error
 Rotational temperatures (Kelvin)      0.08270     0.04360     0.03212
 Rotational constants (GHZ):           1.72310     0.90847     0.66928
 Zero-point vibrational energy     389989.0 (Joules/Mol)
                                   93.20962 (Kcal/Mol)
 Warning -- explicit consideration of  15 degrees of freedom as
           vibrations may cause significant error
 Vibrational temperatures:     81.93    90.11   143.82   156.68   226.16
          (Kelvin)            261.55   357.78   410.46   432.17   513.21
                              639.14   714.00   765.81   841.76   863.25
                              901.22   934.75   985.98  1100.95  1109.77
                             1164.71  1180.49  1225.94  1407.65  1491.74
                             1567.73  1646.84  1668.95  1751.73  1784.79
                             1872.23  1985.53  2033.55  2076.05  2080.91
                             2111.02  2126.40  2174.98  2207.54  2238.29
                             2394.93  2435.83  2671.01  4414.68  4507.30
                             4582.71  4680.13  5056.33  5168.98  5196.54
                             5373.78

 Zero-point correction=                           0.148539 (Hartree/Particle)
 Thermal correction to Energy=                    0.159425
 Thermal correction to Enthalpy=                  0.160369
 Thermal correction to Gibbs Free Energy=         0.111325
 Sum of electronic and zero-point Energies=           -564.673905
 Sum of electronic and thermal Energies=              -564.663019
 Sum of electronic and thermal Enthalpies=            -564.662075
 Sum of electronic and thermal Free Energies=         -564.711119

                     E (Thermal)             CV                S
                      KCal/Mol        Cal/Mol-Kelvin    Cal/Mol-Kelvin
 Total                  100.041             39.046            103.221
 Electronic               0.000              0.000              0.000
 Translational            0.889              2.981             41.045
 Rotational               0.889              2.981             30.107
 Vibrational             98.263             33.084             32.069
 Vibration     1          0.596              1.975              4.560
 Vibration     2          0.597              1.972              4.373
 Vibration     3          0.604              1.949              3.455
 Vibration     4          0.606              1.942              3.289
 Vibration     5          0.621              1.895              2.583
 Vibration     6          0.630              1.865              2.310
 Vibration     7          0.662              1.765              1.740
 Vibration     8          0.683              1.701              1.502
 Vibration     9          0.693              1.673              1.415
 Vibration    10          0.732              1.561              1.136
 Vibration    11          0.804              1.374              0.813
 Vibration    12          0.852              1.258              0.668
 Vibration    13          0.887              1.179              0.582
 Vibration    14          0.942              1.064              0.476
 Vibration    15          0.958              1.032              0.450

                           ! Non-Optimized Parameters !
 Normal termination of Gaussian 16 at Tue Dec  8 20:46:58 2020.

 ----------------------------------------------------------------------
 # B3LYP/6-311++G(d,p) empiricaldispersion=gd3bj scf=xqc pop=npa geom=c
 heck
 ----------------------------------------------------------------------

 ---------------------------------------
 CID_135361170_JID_1631_Energie_neutraal
 ---------------------------------------
 Structure from the checkpoint file:  "JID_1631.chk"
 Charge =  0 Multiplicity = 1

 SCF Done:  E(RB3LYP) =  -565.003432626     A.U. after   14 cycles
 Normal termination of Gaussian 16 at Tue Dec  8 20:48:41 2020.

 ----------------------------------------------------------------------
 # B3LYP/6-311++G(d,p) empiricaldispersion=gd3bj scf=xqc pop=npa geom=c
 heck
 ----------------------------------------------------------------------

 -------------------------------------
 CID_135361170_JID_1631_Energie_kation
 -------------------------------------
 Structure from the checkpoint file:  "JID_1631.chk"
 Charge =  1 Multiplicity = 2

 SCF Done:  E(UB3LYP) =  -564.712366259     A.U. after   23 cycles
 Normal termination of Gaussian 16 at Tue Dec  8 20:53:30 2020.
 Gaussian 16:  ES64L-G16RevA.03 25-Dec-2016

 ----------------------------------------------------------------------
 # B3LYP/6-311++G(d,p) empiricaldispersion=gd3bj scf=xqc pop=npa geom=c
 heck
 ----------------------------------------------------------------------

 ------------------------------------
 CID_135361170_JID_1631_Energie_anion
 ------------------------------------
 Structure from the checkpoint file:  "JID_1631.chk"
 Charge = -1 Multiplicity = 2

                         Standard orientation:
 ---------------------------------------------------------------------
 Center     Atomic      Atomic             Coordinates (Angstroms)
 Number     Number       Type             X           Y           Z
 ---------------------------------------------------------------------
      1          6           0       -0.143054    2.378782   -0.306364
      2          7           0       -0.873618    1.134205   -0.200668
      3          6           0       -0.366540   -0.138704   -0.313400
      4          6           0       -1.399886   -1.012450   -0.005075
      5          6           0       -2.489957   -0.164853    0.293265
      6          7           0       -2.155979    1.127253    0.188906
      7          7           0       -1.357543   -2.412507   -0.076084
      8          7           0        0.944410   -0.412756   -0.724648
      9          6           0        2.083586   -0.264828    0.028072
     10          8           0        3.201871   -0.544670   -0.354284
     11          8           0        1.810395    0.249799    1.256405
     12          1           0       -0.876353    3.176910   -0.421034
     13          1           0        0.513116    2.348689   -1.180525
     14          1           0        0.462703    2.554791    0.588593
     15          1           0       -3.497672   -0.440629    0.575248
     16          1           0       -0.439766   -2.779955    0.157216
     17          1           0       -2.053267   -2.850760    0.517552
     18          1           0        1.112026   -0.805818   -1.642530
     19          1           0        2.675301    0.314683    1.696986
 ---------------------------------------------------------------------

 SCF Done:  E(UB3LYP) =  -564.993912505     A.U. after   28 cycles

 The electronic state is 2-A.
 Alpha  occ. eigenvalues --  -19.06129 -18.99796 -14.28341 -14.25158 -14.22491
 Alpha  occ. eigenvalues --  -14.20722 -10.22422 -10.12658 -10.10637 -10.09769
 Alpha  occ. eigenvalues --  -10.07998  -1.00929  -0.95019  -0.91449  -0.84114
 Alpha  occ. eigenvalues --   -0.80061  -0.73105  -0.66276  -0.59274  -0.55092
 Alpha  occ. eigenvalues --   -0.50367  -0.49303  -0.44761  -0.41451  -0.40085
 Alpha  occ. eigenvalues --   -0.37964  -0.37450  -0.36722  -0.35356  -0.33319
 Alpha  occ. eigenvalues --   -0.32171  -0.30833  -0.29743  -0.29412  -0.22610
 Alpha  occ. eigenvalues --   -0.22362  -0.20552  -0.18756  -0.17532  -0.14275
 Alpha  occ. eigenvalues --   -0.09998   0.04442
 Alpha virt. eigenvalues --    0.06757   0.07958   0.08457   0.09695   0.10508
 Alpha virt. eigenvalues --    0.11114   0.12415   0.12598   0.13385   0.14192
 Alpha virt. eigenvalues --    0.15029   0.15635   0.16086   0.17369   0.17718

  Beta  occ. eigenvalues --  -19.06063 -18.99782 -14.28340 -14.25110 -14.22482
  Beta  occ. eigenvalues --  -14.20650 -10.22419 -10.12653 -10.10603 -10.09764
  Beta  occ. eigenvalues --  -10.07992  -1.00845  -0.95004  -0.91381  -0.84045
  Beta  occ. eigenvalues --   -0.79968  -0.73075  -0.66223  -0.59221  -0.54997
  Beta  occ. eigenvalues --   -0.50310  -0.49248  -0.44693  -0.41380  -0.40022
  Beta  occ. eigenvalues --   -0.37898  -0.37392  -0.36691  -0.35299  -0.33281
  Beta  occ. eigenvalues --   -0.32124  -0.30787  -0.29703  -0.29378  -0.22549
  Beta  occ. eigenvalues --   -0.22308  -0.20519  -0.18717  -0.17493  -0.14256
  Beta  occ. eigenvalues --   -0.09948
  Beta virt. eigenvalues --    0.07110   0.08008   0.08878   0.09430   0.10297
  Beta virt. eigenvalues --    0.10691   0.11600   0.12892   0.13307   0.13538
  Beta virt. eigenvalues --    0.14229   0.14910   0.15922   0.16346   0.17491

 Mulliken charges and spin densities:
               1          2
     1  C    0.516712  -0.846949
     2  N    0.065089   0.186216
     3  C    0.977795  -1.760198
     4  C   -0.190300   0.685844
     5  C   -0.272115   0.082311
     6  N   -0.187756  -0.082119
     7  N   -0.261991  -0.113807
     8  N   -0.229815  -0.061588
     9  C    0.819723  -0.592080
    10  O   -0.370990   0.031560
    11  O   -0.227523   0.011370
    12  H   -0.049257   0.202044
    13  H   -0.174541   0.338551
    14  H   -0.111677   0.305858
    15  H   -0.256125   0.407610
    16  H   -0.253069   0.511006
    17  H   -0.386937   0.641340
    18  H   -0.103587   0.436799
    19  H   -0.303637   0.616234
 Sum of Mulliken charges =  -1.00000   1.00000

 Dipole moment (field-independent basis, Debye):
    X=             -1.8518    Y=              3.0583    Z=             -1.6031  Tot=              3.9181
 Quadrupole moment (field-independent basis, Debye-Ang):
   XX=           -114.4504   YY=           -105.5729   ZZ=            -91.1578
   XY=             -3.5541   XZ=             -0.7912   YZ=             -0.9005

 Summary of Natural Population Analysis:

                                       Natural Population
                Natural  -----------------------------------------------
    Atom  No    Charge         Core      Valence    Rydberg      Total
 -----------------------------------------------------------------------
      C    1   -0.17646      0.99964     2.16859    0.00823     3.17646
      N    2   -0.10277      0.99963     2.58973    0.01341     3.60277
      C    3    0.13397      0.99943     1.85052    0.01609     2.86603
      C    4    0.03855      0.99942     1.94983    0.01220     2.96145
      C    5   -0.03441      0.99959     2.02011    0.01471     3.03441
      N    6   -0.14915      0.99974     2.63783    0.01159     3.64915
      N    7   -0.40044      0.99973     2.89031    0.01041     3.90044
      N    8   -0.33255      0.99965     2.82173    0.01117     3.83255
      C    9    0.46362      0.99972     1.51246    0.02420     2.53638
      O   10   -0.32937      0.99987     3.32276    0.00674     4.32937
      O   11   -0.34754      0.99988     3.34101    0.00665     4.34754
      H   12    0.10508      0.00000     0.39352    0.00140     0.39492
      H   13    0.10103      0.00000     0.39762    0.00135     0.39897
      H   14    0.10400      0.00000     0.39434    0.00166     0.39600
      H   15    0.09573      0.00000     0.40325    0.00101     0.40427
      H   16    0.18898      0.00000     0.30607    0.00495     0.31102
      H   17    0.18667      0.00000     0.30760    0.00573     0.31333
      H   18    0.20576      0.00000     0.29013    0.00411     0.29424
      H   19    0.24930      0.00000     0.23420    0.01650     0.25070
 =======================================================================
   * Total *   -0.00000     10.99628    29.83161    0.17211    41.00000

 Normal termination of Gaussian 16 at Tue Dec  8 20:58:16 2020.
