 Gaussian 16, Revision A.03,

 -----------------------------------------------------------
 # opt freq B3LYP/6-31G(d) empiricaldispersion=gd3bj scf=xqc
 -----------------------------------------------------------

 -------------------------------
 CID_150069348_JID_3247_neutraal
 -------------------------------
 Symbolic Z-matrix:
 Charge =  0 Multiplicity = 1

 SCF Done:  E(RB3LYP) =  -664.477353839     A.U. after   15 cycles
 SCF Done:  E(RB3LYP) =  -664.479923292     A.U. after   15 cycles
 SCF Done:  E(RB3LYP) =  -664.481524380     A.U. after   13 cycles
 SCF Done:  E(RB3LYP) =  -664.481333630     A.U. after   13 cycles
 SCF Done:  E(RB3LYP) =  -664.482100816     A.U. after   13 cycles
 SCF Done:  E(RB3LYP) =  -664.482310598     A.U. after   13 cycles
 SCF Done:  E(RB3LYP) =  -664.482348123     A.U. after   13 cycles
 SCF Done:  E(RB3LYP) =  -664.482402493     A.U. after   12 cycles
 SCF Done:  E(RB3LYP) =  -664.482415033     A.U. after   11 cycles
 SCF Done:  E(RB3LYP) =  -664.482418533     A.U. after    9 cycles
 SCF Done:  E(RB3LYP) =  -664.482418911     A.U. after    8 cycles
 SCF Done:  E(RB3LYP) =  -664.482419034     A.U. after    8 cycles
 SCF Done:  E(RB3LYP) =  -664.482419086     A.U. after    8 cycles
 Optimization completed.
    -- Stationary point found.
 Normal termination of Gaussian 16 at Wed Dec  9 22:30:05 2020.

 --------------------------------------------------------------------
 #N Geom=AllCheck Guess=TCheck SCRF=Check GenChk RB3LYP/6-31G(d) Freq
 --------------------------------------------------------------------

 Structure from the checkpoint file:  "JID_3247.chk"
 -------------------------------
 CID_150069348_JID_3247_neutraal
 -------------------------------
 Charge =  0 Multiplicity = 1

 SCF Done:  E(RB3LYP) =  -664.482419086     A.U. after    1 cycles

  Exact polarizability: 113.606   0.863  94.032  -4.188 -13.201  91.755
 Approx polarizability: 139.792  13.511 146.192 -21.263 -45.325 170.056

                      1                      2                      3
                      A                      A                      A
 Frequencies --     34.4238                46.6138                50.3750
 Red. masses --      7.5638                 3.9221                 6.4267
 Frc consts  --      0.0053                 0.0050                 0.0096
 IR Inten    --      0.4811                 0.8616                 1.6438

                      4                      5                      6
                      A                      A                      A
 Frequencies --     90.4397                96.8791               126.0458
 Red. masses --      2.6028                 2.9046                 2.1997
 Frc consts  --      0.0125                 0.0161                 0.0206
 IR Inten    --      1.7134                 0.1748                 0.7397

                      7                      8                      9
                      A                      A                      A
 Frequencies --    140.3903               165.6001               174.1352
 Red. masses --      1.8616                 2.6791                 4.1624
 Frc consts  --      0.0216                 0.0433                 0.0744
 IR Inten    --      0.1849                 4.0275                 0.7497

                     10                     11                     12
                      A                      A                      A
 Frequencies --    190.7317               225.4656               245.5240
 Red. masses --      4.4233                 3.5600                 1.6125
 Frc consts  --      0.0948                 0.1066                 0.0573
 IR Inten    --      1.2201                 1.6463                 1.6969

                     13                     14                     15
                      A                      A                      A
 Frequencies --    285.9920               315.8287               358.1533
 Red. masses --      3.8871                 2.0775                 4.2950
 Frc consts  --      0.1873                 0.1221                 0.3246
 IR Inten    --     11.8601                 2.6308                21.2078

                     16                     17                     18
                      A                      A                      A
 Frequencies --    390.9868               429.9631               556.6544
 Red. masses --      2.7345                 2.6332                 3.9985
 Frc consts  --      0.2463                 0.2868                 0.7300
 IR Inten    --      3.6575                 0.2313                 3.4006

                     19                     20                     21
                      A                      A                      A
 Frequencies --    569.8117               610.7993               694.3245
 Red. masses --     12.8481                 3.8755                 6.3908
 Frc consts  --      2.4578                 0.8519                 1.8152
 IR Inten    --     13.5017                 0.9145                 4.7222

                     22                     23                     24
                      A                      A                      A
 Frequencies --    738.3532               743.9408               779.3851
 Red. masses --      1.9224                 3.6424                11.4544
 Frc consts  --      0.6175                 1.1877                 4.0995
 IR Inten    --      3.3690                 7.4036                28.1316

                     25                     26                     27
                      A                      A                      A
 Frequencies --    817.8530               891.7381               899.8419
 Red. masses --      1.8752                 2.7044                 2.1987
 Frc consts  --      0.7390                 1.2670                 1.0489
 IR Inten    --     11.0531                12.4506                 9.1211

                     28                     29                     30
                      A                      A                      A
 Frequencies --    918.1191               955.3661               979.2777
 Red. masses --      2.5602                 2.8571                 2.2419
 Frc consts  --      1.2715                 1.5364                 1.2667
 IR Inten    --     23.4162                14.0721                 3.9544

                     31                     32                     33
                      A                      A                      A
 Frequencies --   1029.7361              1069.5702              1094.5991
 Red. masses --      2.5310                 2.0183                 2.3633
 Frc consts  --      1.5812                 1.3604                 1.6683
 IR Inten    --     76.6353                13.4783                 7.7301

                     34                     35                     36
                      A                      A                      A
 Frequencies --   1140.7118              1165.0470              1177.4036
 Red. masses --      2.1093                 2.7402                 2.6919
 Frc consts  --      1.6171                 2.1914                 2.1987
 IR Inten    --      2.7258                10.3731                19.4111

                     37                     38                     39
                      A                      A                      A
 Frequencies --   1190.4443              1229.9192              1256.9689
 Red. masses --      1.2691                 1.6145                 1.3841
 Frc consts  --      1.0597                 1.4389                 1.2885
 IR Inten    --      0.9564                 3.7499                13.7815

                     40                     41                     42
                      A                      A                      A
 Frequencies --   1296.6944              1310.0282              1313.9053
 Red. masses --      1.4890                 2.4530                 1.4295
 Frc consts  --      1.4751                 2.4803                 1.4540
 IR Inten    --    268.3958               600.8529                86.3928

                     43                     44                     45
                      A                      A                      A
 Frequencies --   1354.4188              1378.7704              1387.7544
 Red. masses --      2.7892                 1.3035                 1.6049
 Frc consts  --      3.0146                 1.4599                 1.8211
 IR Inten    --    102.7772                31.5375                33.5586

                     46                     47                     48
                      A                      A                      A
 Frequencies --   1403.5133              1426.9296              1440.8076
 Red. masses --      1.4092                 1.2868                 1.3645
 Frc consts  --      1.6355                 1.5438                 1.6689
 IR Inten    --      1.9176                47.6287                 7.9698

                     49                     50                     51
                      A                      A                      A
 Frequencies --   1447.1783              1499.1849              1509.2988
 Red. masses --      1.2625                 1.2282                 1.0901
 Frc consts  --      1.5578                 1.6264                 1.4631
 IR Inten    --      4.0964                45.3817                 4.5088

                     52                     53                     54
                      A                      A                      A
 Frequencies --   1513.6336              1526.2737              1527.1071
 Red. masses --      1.0477                 1.0528                 1.0520
 Frc consts  --      1.4142                 1.4449                 1.4455
 IR Inten    --      6.1925                 3.3277                 6.6760

                     55                     56                     57
                      A                      A                      A
 Frequencies --   1530.2648              1540.4816              1542.5279
 Red. masses --      1.0570                 1.0799                 1.0685
 Frc consts  --      1.4583                 1.5098                 1.4980
 IR Inten    --      2.3090                 3.0899                10.9687

                     58                     59                     60
                      A                      A                      A
 Frequencies --   1829.6013              2266.4692              3041.3259
 Red. masses --     11.1825                13.5957                 1.0692
 Frc consts  --     22.0548                41.1482                 5.8270
 IR Inten    --    235.9359               390.9736                29.6947

                     61                     62                     63
                      A                      A                      A
 Frequencies --   3045.3130              3047.8971              3054.5943
 Red. masses --      1.0397                 1.0668                 1.0684
 Frc consts  --      5.6812                 5.8389                 5.8732
 IR Inten    --     19.3633                 6.6242                30.0952

                     64                     65                     66
                      A                      A                      A
 Frequencies --   3076.9256              3077.8739              3084.9353
 Red. masses --      1.0300                 1.0982                 1.0857
 Frc consts  --      5.7453                 6.1298                 6.0879
 IR Inten    --     35.1990                13.7403                33.5926

                     67                     68                     69
                      A                      A                      A
 Frequencies --   3110.6040              3118.8412              3141.6219
 Red. masses --      1.1020                 1.1011                 1.0951
 Frc consts  --      6.2821                 6.3106                 6.3679
 IR Inten    --     59.4633                35.0469                12.2556

                     70                     71                     72
                      A                      A                      A
 Frequencies --   3152.2674              3169.8526              3185.0731
 Red. masses --      1.1079                 1.0904                 1.1070
 Frc consts  --      6.4861                 6.4555                 6.6164
 IR Inten    --     20.7370                 3.6138                18.5764

 - Thermochemistry -
 -------------------
 Temperature   298.150 Kelvin.  Pressure   1.00000 Atm.
 Atom     1 has atomic number  6 and mass  12.00000

 Molecular mass:   187.09569 amu.
 Principal axes and moments of inertia in atomic units:
                           1         2         3
     Eigenvalues --  1641.215143368.515934158.89417
           X            0.99895  -0.04542   0.00515
           Y            0.04534   0.99886   0.01499
           Z           -0.00582  -0.01474   0.99987
 This molecule is an asymmetric top.
 Rotational symmetry number  1.
 Warning -- assumption of classical behavior for rotation
           may cause significant error
 Rotational temperatures (Kelvin)      0.05277     0.02571     0.02083
 Rotational constants (GHZ):           1.09964     0.53577     0.43395
 Zero-point vibrational energy     563616.9 (Joules/Mol)
                                  134.70766 (Kcal/Mol)
 Warning -- explicit consideration of  20 degrees of freedom as
           vibrations may cause significant error
 Vibrational temperatures:     49.53    67.07    72.48   130.12   139.39
          (Kelvin)            181.35   201.99   238.26   250.54   274.42
                              324.39   353.25   411.48   454.41   515.30
                              562.54   618.62   800.90   819.83   878.80
                              998.98  1062.33  1070.36  1121.36  1176.71
                             1283.01  1294.67  1320.97  1374.56  1408.96
                             1481.56  1538.87  1574.88  1641.23  1676.24
                             1694.02  1712.78  1769.58  1808.50  1865.65
                             1884.84  1890.42  1948.71  1983.74  1996.67
                             2019.34  2053.03  2073.00  2082.17  2156.99
                             2171.54  2177.78  2195.97  2197.17  2201.71
                             2216.41  2219.35  2632.39  3260.94  4375.79
                             4381.53  4385.24  4394.88  4427.01  4428.37
                             4438.53  4475.47  4487.32  4520.09  4535.41
                             4560.71  4582.61

 Zero-point correction=                           0.214670 (Hartree/Particle)
 Thermal correction to Energy=                    0.229026
 Thermal correction to Enthalpy=                  0.229971
 Thermal correction to Gibbs Free Energy=         0.171965
 Sum of electronic and zero-point Energies=           -664.267749
 Sum of electronic and thermal Energies=              -664.253393
 Sum of electronic and thermal Enthalpies=            -664.252449
 Sum of electronic and thermal Free Energies=         -664.310454

                     E (Thermal)             CV                S
                      KCal/Mol        Cal/Mol-Kelvin    Cal/Mol-Kelvin
 Total                  143.716             49.775            122.082
 Electronic               0.000              0.000              0.000
 Translational            0.889              2.981             41.585
 Rotational               0.889              2.981             31.509
 Vibrational            141.939             43.813             48.988
 Vibration     1          0.594              1.983              5.557
 Vibration     2          0.595              1.979              4.956
 Vibration     3          0.595              1.977              4.803
 Vibration     4          0.602              1.956              3.651
 Vibration     5          0.603              1.951              3.516
 Vibration     6          0.611              1.927              3.006
 Vibration     7          0.615              1.913              2.799
 Vibration     8          0.624              1.885              2.485
 Vibration     9          0.627              1.874              2.390
 Vibration    10          0.634              1.853              2.221
 Vibration    11          0.650              1.802              1.915
 Vibration    12          0.660              1.770              1.762
 Vibration    13          0.684              1.700              1.498
 Vibration    14          0.703              1.643              1.332
 Vibration    15          0.733              1.558              1.130
 Vibration    16          0.759              1.489              0.996
 Vibration    17          0.791              1.405              0.859
 Vibration    18          0.912              1.125              0.531
 Vibration    19          0.926              1.097              0.505
 Vibration    20          0.970              1.009              0.431

                           ! Non-Optimized Parameters !
 Normal termination of Gaussian 16 at Wed Dec  9 22:36:50 2020.

 ----------------------------------------------------------------------
 # B3LYP/6-311++G(d,p) empiricaldispersion=gd3bj scf=xqc pop=npa geom=c
 heck
 ----------------------------------------------------------------------

 ---------------------------------------
 CID_150069348_JID_3247_Energie_neutraal
 ---------------------------------------
 Structure from the checkpoint file:  "JID_3247.chk"
 Charge =  0 Multiplicity = 1

 SCF Done:  E(RB3LYP) =  -664.676276149     A.U. after   15 cycles
 Normal termination of Gaussian 16 at Wed Dec  9 22:40:01 2020.

 ----------------------------------------------------------------------
 # B3LYP/6-311++G(d,p) empiricaldispersion=gd3bj scf=xqc pop=npa geom=c
 heck
 ----------------------------------------------------------------------

 -------------------------------------
 CID_150069348_JID_3247_Energie_kation
 -------------------------------------
 Structure from the checkpoint file:  "JID_3247.chk"
 Charge =  1 Multiplicity = 2

 SCF Done:  E(UB3LYP) =  -664.341453217     A.U. after   25 cycles
 Normal termination of Gaussian 16 at Wed Dec  9 22:47:19 2020.
 Gaussian 16:  ES64L-G16RevA.03 25-Dec-2016

 ----------------------------------------------------------------------
 # B3LYP/6-311++G(d,p) empiricaldispersion=gd3bj scf=xqc pop=npa geom=c
 heck
 ----------------------------------------------------------------------

 ------------------------------------
 CID_150069348_JID_3247_Energie_anion
 ------------------------------------
 Structure from the checkpoint file:  "JID_3247.chk"
 Charge = -1 Multiplicity = 2

                         Standard orientation:
 ---------------------------------------------------------------------
 Center     Atomic      Atomic             Coordinates (Angstroms)
 Number     Number       Type             X           Y           Z
 ---------------------------------------------------------------------
      1          6           0        3.463360   -1.715161   -0.111889
      2          6           0        2.687573   -0.623480   -0.856351
      3          6           0        1.157718   -0.766946   -0.805589
      4          6           0        0.583793   -0.787340    0.615426
      5          6           0        0.870867    0.434126    1.499385
      6          7           0        0.272469    1.709014    1.073966
      7          7           0        0.756002    2.240632    0.070617
      8          7           0        1.112412    2.845841   -0.829537
      9          8           0       -0.826256   -1.121979    0.667777
     10          6           0       -1.721304   -0.445585   -0.071748
     11          8           0       -1.513324    0.410026   -0.902589
     12          8           0       -2.933285   -0.913312    0.267140
     13          6           0       -4.020882   -0.305129   -0.445302
     14          1           0        3.310200   -1.668454    0.972714
     15          1           0        4.539610   -1.619769   -0.290266
     16          1           0        3.156120   -2.713639   -0.446132
     17          1           0        2.984722    0.364058   -0.479955
     18          1           0        2.980413   -0.632924   -1.913024
     19          1           0        0.691876    0.027558   -1.387464
     20          1           0        0.867668   -1.714225   -1.278863
     21          1           0        1.023783   -1.634907    1.150406
     22          1           0        0.447363    0.243901    2.487188
     23          1           0        1.958770    0.531767    1.616076
     24          1           0       -4.044923    0.772083   -0.262268
     25          1           0       -3.924793   -0.482980   -1.519583
     26          1           0       -4.920826   -0.781664   -0.056365
 ---------------------------------------------------------------------

 SCF Done:  E(UB3LYP) =  -664.666358188     A.U. after   33 cycles
 SCF Done:  E(UB3LYP) =  -664.666358188     a.u. after    1 cycles

 The electronic state is 2-A.
 Alpha  occ. eigenvalues --  -19.07592 -19.06993 -19.01130 -14.34889 -14.25010
 Alpha  occ. eigenvalues --  -14.23666 -10.24778 -10.14021 -10.13284 -10.11006
 Alpha  occ. eigenvalues --  -10.07242 -10.06865 -10.05989  -1.04643  -1.01475
 Alpha  occ. eigenvalues --   -0.95972  -0.92684  -0.85826  -0.71896  -0.66999
 Alpha  occ. eigenvalues --   -0.63799  -0.60383  -0.56198  -0.49805  -0.47829
 Alpha  occ. eigenvalues --   -0.44766  -0.41740  -0.40849  -0.39829  -0.39436
 Alpha  occ. eigenvalues --   -0.38533  -0.36352  -0.35868  -0.34640  -0.33865
 Alpha  occ. eigenvalues --   -0.33293  -0.31506  -0.31227  -0.30564  -0.28562
 Alpha  occ. eigenvalues --   -0.27626  -0.27092  -0.24498  -0.23821  -0.23523
 Alpha  occ. eigenvalues --   -0.21689  -0.21187  -0.19052  -0.18368  -0.13461
 Alpha  occ. eigenvalues --    0.04414
 Alpha virt. eigenvalues --    0.06074   0.06841   0.08243   0.08755   0.09394
 Alpha virt. eigenvalues --    0.09786   0.10467   0.11025   0.11310   0.11379
 Alpha virt. eigenvalues --    0.12174   0.12863   0.13098   0.13416   0.14353

  Beta  occ. eigenvalues --  -19.07589 -19.06991 -19.01125 -14.34710 -14.24755
  Beta  occ. eigenvalues --  -14.23707 -10.24778 -10.14007 -10.13251 -10.10923
  Beta  occ. eigenvalues --  -10.07234 -10.06859 -10.05938  -1.04634  -1.01118
  Beta  occ. eigenvalues --   -0.95964  -0.92674  -0.85643  -0.71853  -0.66943
  Beta  occ. eigenvalues --   -0.63710  -0.60288  -0.56116  -0.49747  -0.47769
  Beta  occ. eigenvalues --   -0.44721  -0.41679  -0.40612  -0.39648  -0.39153
  Beta  occ. eigenvalues --   -0.38447  -0.36197  -0.35729  -0.34575  -0.33832
  Beta  occ. eigenvalues --   -0.32813  -0.31345  -0.31182  -0.30404  -0.28514
  Beta  occ. eigenvalues --   -0.27555  -0.27045  -0.24469  -0.23783  -0.23493
  Beta  occ. eigenvalues --   -0.21674  -0.21159  -0.19007  -0.17956  -0.13389
  Beta virt. eigenvalues --    0.06642   0.07157   0.08233   0.09218   0.09334
  Beta virt. eigenvalues --    0.09897   0.10206   0.10798   0.11324   0.11622
  Beta virt. eigenvalues --    0.11807   0.12457   0.13046   0.13479   0.13548

 Mulliken charges and spin densities:
               1          2
     1  C    1.292415  -1.873987
     2  C   -1.390700   1.191812
     3  C    0.509095  -0.785946
     4  C   -0.308737   0.608245
     5  C    0.802832  -1.460420
     6  N   -1.039383   0.612194
     7  N    0.764374  -0.177735
     8  N    0.011601  -0.116776
     9  O   -0.066904   0.017469
    10  C   -0.129406  -0.062201
    11  O   -0.245884   0.012561
    12  O   -0.177243   0.048741
    13  C    0.710788  -0.938836
    14  H   -0.380637   0.522755
    15  H   -0.393701   0.535038
    16  H   -0.257662   0.396404
    17  H    0.135588  -0.000382
    18  H    0.072108   0.075084
    19  H    0.170729   0.010589
    20  H   -0.067843   0.223850
    21  H   -0.007755   0.254605
    22  H   -0.291088   0.507392
    23  H   -0.241209   0.428777
    24  H   -0.095860   0.277742
    25  H   -0.105199   0.277030
    26  H   -0.270318   0.415993
 Sum of Mulliken charges =  -1.00000   1.00000

 Dipole moment (field-independent basis, Debye):
    X=             -1.9052    Y=              0.3188    Z=             -1.6859  Tot=              2.5639
 Quadrupole moment (field-independent basis, Debye-Ang):
   XX=           -144.0644   YY=           -119.0620   ZZ=           -109.7594
   XY=              6.5045   XZ=             -3.8669   YZ=              4.1117

 Summary of Natural Population Analysis:

                                       Natural Population
                Natural  -----------------------------------------------
    Atom  No    Charge         Core      Valence    Rydberg      Total
 -----------------------------------------------------------------------
      C    1   -0.28921      0.99967     2.28425    0.00529     3.28921
      C    2   -0.19136      0.99964     2.18308    0.00864     3.19136
      C    3   -0.21222      0.99959     2.20302    0.00961     3.21222
      C    4    0.06241      0.99950     1.92396    0.01413     2.93759
      C    5   -0.10356      0.99955     2.09126    0.01275     3.10356
      N    6   -0.19897      0.99970     2.68435    0.01492     3.69897
      N    7    0.13211      0.99970     2.35271    0.01549     3.36789
      N    8   -0.02559      0.99982     2.51271    0.01306     3.52559
      O    9   -0.27910      0.99985     3.27051    0.00874     4.27910
      C   10    0.51758      0.99971     1.45471    0.02800     2.48242
      O   11   -0.32117      0.99986     3.31565    0.00565     4.32117
      O   12   -0.27386      0.99986     3.26581    0.00819     4.27386
      C   13   -0.09971      0.99960     2.09200    0.00811     3.09971
      H   14    0.09821      0.00000     0.39979    0.00200     0.40179
      H   15    0.10051      0.00000     0.39841    0.00107     0.39949
      H   16    0.09651      0.00000     0.40217    0.00132     0.40349
      H   17    0.09637      0.00000     0.40230    0.00133     0.40363
      H   18    0.09731      0.00000     0.40171    0.00098     0.40269
      H   19    0.11769      0.00000     0.38084    0.00146     0.38231
      H   20    0.09981      0.00000     0.39910    0.00109     0.40019
      H   21    0.09909      0.00000     0.39904    0.00187     0.40091
      H   22    0.10579      0.00000     0.39224    0.00196     0.39421
      H   23    0.09863      0.00000     0.39956    0.00181     0.40137
      H   24    0.09198      0.00000     0.40632    0.00170     0.40802
      H   25    0.08981      0.00000     0.40851    0.00168     0.41019
      H   26    0.09093      0.00000     0.40741    0.00166     0.40907
 =======================================================================
   * Total *    0.00000     12.99604    36.83144    0.17252    50.00000

 Normal termination of Gaussian 16 at Wed Dec  9 22:57:00 2020.
