 Gaussian 16, Revision A.03,

 -----------------------------------------------------------
 # opt freq B3LYP/6-31G(d) empiricaldispersion=gd3bj scf=xqc
 -----------------------------------------------------------

 --------------------------------
 CID_105850072_JID_10301_neutraal
 --------------------------------
 Symbolic Z-matrix:
 Charge =  0 Multiplicity = 1

 SCF Done:  E(RB3LYP) =  -994.289795031     A.U. after   14 cycles
 SCF Done:  E(RB3LYP) =  -994.302447196     A.U. after   12 cycles
 SCF Done:  E(RB3LYP) =  -994.303444110     A.U. after   12 cycles
 SCF Done:  E(RB3LYP) =  -994.304701614     A.U. after   12 cycles
 SCF Done:  E(RB3LYP) =  -994.305000856     A.U. after   11 cycles
 SCF Done:  E(RB3LYP) =  -994.305243772     A.U. after   12 cycles
 SCF Done:  E(RB3LYP) =  -994.305588264     A.U. after   12 cycles
 SCF Done:  E(RB3LYP) =  -994.306106703     A.U. after   12 cycles
 SCF Done:  E(RB3LYP) =  -994.305534447     A.U. after   14 cycles
 SCF Done:  E(RB3LYP) =  -994.306849792     A.U. after   12 cycles
 SCF Done:  E(RB3LYP) =  -994.308490126     A.U. after   10 cycles
 SCF Done:  E(RB3LYP) =  -994.308507493     A.U. after   10 cycles
 SCF Done:  E(RB3LYP) =  -994.308513348     A.U. after    9 cycles
 SCF Done:  E(RB3LYP) =  -994.308514143     A.U. after    9 cycles
 SCF Done:  E(RB3LYP) =  -994.308514201     A.U. after    7 cycles
 Optimization completed.
    -- Stationary point found.
 Normal termination of Gaussian 16 at Sun Dec 13 17:18:12 2020.

 --------------------------------------------------------------------
 #N Geom=AllCheck Guess=TCheck SCRF=Check GenChk RB3LYP/6-31G(d) Freq
 --------------------------------------------------------------------

 Structure from the checkpoint file:  "JID_10301.chk"
 --------------------------------
 CID_105850072_JID_10301_neutraal
 --------------------------------
 Charge =  0 Multiplicity = 1

 SCF Done:  E(RB3LYP) =  -994.308514201     A.U. after    1 cycles

  Exact polarizability: 199.789   2.071 152.178  -8.130  -3.950 131.726
 Approx polarizability: 235.282   5.750 226.115 -18.846 -12.904 208.422

                      1                      2                      3
                      A                      A                      A
 Frequencies --     21.8757                27.1048                35.4726
 Red. masses --      4.6832                 3.8836                 3.2663
 Frc consts  --      0.0013                 0.0017                 0.0024
 IR Inten    --      0.5317                 0.1379                 1.1538

                      4                      5                      6
                      A                      A                      A
 Frequencies --     49.2331                69.1212                76.8270
 Red. masses --      4.2478                 4.2200                 3.8006
 Frc consts  --      0.0061                 0.0119                 0.0132
 IR Inten    --      0.1521                 0.1690                 0.3096

                      7                      8                      9
                      A                      A                      A
 Frequencies --     89.0438               104.8672               122.9950
 Red. masses --      7.3215                 3.9476                 5.5186
 Frc consts  --      0.0342                 0.0256                 0.0492
 IR Inten    --      0.1525                 1.9807                 5.9130

                     10                     11                     12
                      A                      A                      A
 Frequencies --    128.6872               160.4832               183.5131
 Red. masses --      3.4590                 3.8891                 3.5850
 Frc consts  --      0.0337                 0.0590                 0.0711
 IR Inten    --      3.7709                 0.9139                 0.7763

                     13                     14                     15
                      A                      A                      A
 Frequencies --    201.4700               209.6681               243.2643
 Red. masses --      2.3288                 4.6556                 4.0098
 Frc consts  --      0.0557                 0.1206                 0.1398
 IR Inten    --      0.5817                 2.1806                 5.0734

                     16                     17                     18
                      A                      A                      A
 Frequencies --    261.5376               320.0342               332.7820
 Red. masses --      1.4430                 3.9287                 2.4443
 Frc consts  --      0.0582                 0.2371                 0.1595
 IR Inten    --      0.7224                11.7756                 0.9216

                     19                     20                     21
                      A                      A                      A
 Frequencies --    347.8932               368.5977               386.2700
 Red. masses --      3.6365                 4.6621                 2.8117
 Frc consts  --      0.2593                 0.3732                 0.2472
 IR Inten    --      0.5009                 7.2731                 3.9897

                     22                     23                     24
                      A                      A                      A
 Frequencies --    394.4051               434.2419               464.9386
 Red. masses --      2.7424                 2.2528                 2.7014
 Frc consts  --      0.2513                 0.2503                 0.3441
 IR Inten    --      3.3095                 1.1399                 2.7444

                     25                     26                     27
                      A                      A                      A
 Frequencies --    480.7822               496.1054               523.7895
 Red. masses --      2.4563                 2.8539                 2.9181
 Frc consts  --      0.3345                 0.4138                 0.4717
 IR Inten    --      4.4107                 6.2674                38.1499

                     28                     29                     30
                      A                      A                      A
 Frequencies --    530.3220               570.9310               576.8507
 Red. masses --      2.7084                 2.1810                 2.1659
 Frc consts  --      0.4488                 0.4189                 0.4246
 IR Inten    --      9.9923                67.1583                11.9544

                     31                     32                     33
                      A                      A                      A
 Frequencies --    602.8832               628.7323               694.0947
 Red. masses --      1.5470                 4.2115                 2.9749
 Frc consts  --      0.3313                 0.9809                 0.8444
 IR Inten    --     80.7603                 2.0746                13.4405

                     34                     35                     36
                      A                      A                      A
 Frequencies --    713.3141               734.4424               758.0172
 Red. masses --      2.2297                 3.2758                 2.8114
 Frc consts  --      0.6684                 1.0411                 0.9518
 IR Inten    --     17.3711                47.0261                 6.3969

                     37                     38                     39
                      A                      A                      A
 Frequencies --    782.1023               811.4087               821.2623
 Red. masses --      6.8690                 1.1869                 1.2451
 Frc consts  --      2.4755                 0.4604                 0.4948
 IR Inten    --     27.9741                 1.6196                 2.8514

                     40                     41                     42
                      A                      A                      A
 Frequencies --    844.2817               867.8616               897.1977
 Red. masses --      2.2778                 2.8677                 3.6498
 Frc consts  --      0.9566                 1.2726                 1.7310
 IR Inten    --     14.5213                 6.2667                 4.6897

                     43                     44                     45
                      A                      A                      A
 Frequencies --    898.8882               919.2349               922.5085
 Red. masses --      2.3734                 2.0252                 2.4012
 Frc consts  --      1.1299                 1.0083                 1.2040
 IR Inten    --      4.4438                15.1215                 0.9549

                     46                     47                     48
                      A                      A                      A
 Frequencies --    932.7488               964.2419               974.6277
 Red. masses --      2.2779                 2.1860                 2.5900
 Frc consts  --      1.1677                 1.1975                 1.4495
 IR Inten    --      2.3502                 8.2518                 1.5165

                     49                     50                     51
                      A                      A                      A
 Frequencies --   1011.7785              1039.1256              1040.5778
 Red. masses --      2.7995                 2.1205                 2.0407
 Frc consts  --      1.6885                 1.3491                 1.3019
 IR Inten    --     34.9646                23.8585                10.3008

                     52                     53                     54
                      A                      A                      A
 Frequencies --   1049.0677              1077.7002              1093.3878
 Red. masses --      1.9779                 2.9661                 2.6317
 Frc consts  --      1.2825                 2.0297                 1.8537
 IR Inten    --     13.2539                19.8929                57.2852

                     55                     56                     57
                      A                      A                      A
 Frequencies --   1106.2622              1122.2511              1136.3600
 Red. masses --      2.0757                 2.2328                 2.0845
 Frc consts  --      1.4967                 1.6568                 1.5859
 IR Inten    --     16.5391                11.9141                13.7890

                     58                     59                     60
                      A                      A                      A
 Frequencies --   1145.9651              1153.8132              1156.7739
 Red. masses --      3.6074                 3.0241                 2.5230
 Frc consts  --      2.7912                 2.3720                 1.9892
 IR Inten    --     60.4189               126.9795                49.9314

                     61                     62                     63
                      A                      A                      A
 Frequencies --   1172.6346              1192.6508              1224.4042
 Red. masses --      2.7363                 1.8345                 2.1199
 Frc consts  --      2.2169                 1.5374                 1.8725
 IR Inten    --    155.2853                27.1862                 8.4706

                     64                     65                     66
                      A                      A                      A
 Frequencies --   1228.0171              1232.7704              1243.9342
 Red. masses --      1.5671                 2.3149                 1.8104
 Frc consts  --      1.3924                 2.0728                 1.6505
 IR Inten    --      8.1172                26.0693               176.6316

                     67                     68                     69
                      A                      A                      A
 Frequencies --   1257.8705              1269.0956              1281.7039
 Red. masses --      1.4781                 1.1896                 1.1913
 Frc consts  --      1.3779                 1.1289                 1.1531
 IR Inten    --     29.4584                28.2666                 2.9621

                     70                     71                     72
                      A                      A                      A
 Frequencies --   1283.6230              1299.2947              1313.8777
 Red. masses --      1.4879                 1.3632                 1.5177
 Frc consts  --      1.4445                 1.3559                 1.5436
 IR Inten    --     25.9057                36.1628                51.3426

                     73                     74                     75
                      A                      A                      A
 Frequencies --   1324.4914              1341.1383              1346.8009
 Red. masses --      1.3862                 1.2415                 1.1576
 Frc consts  --      1.4327                 1.3156                 1.2371
 IR Inten    --      9.6629                13.3081                37.8620

                     76                     77                     78
                      A                      A                      A
 Frequencies --   1353.3687              1380.0252              1386.7594
 Red. masses --      1.6043                 1.4278                 1.2556
 Frc consts  --      1.7313                 1.6021                 1.4226
 IR Inten    --     58.4419                18.2975                29.0381

                     79                     80                     81
                      A                      A                      A
 Frequencies --   1395.7777              1402.4396              1404.0167
 Red. masses --      1.7298                 1.3290                 1.3296
 Frc consts  --      1.9856                 1.5401                 1.5442
 IR Inten    --     38.3525                67.5766                19.9534

                     82                     83                     84
                      A                      A                      A
 Frequencies --   1424.4919              1432.9791              1438.6879
 Red. masses --      1.5413                 1.2744                 1.3369
 Frc consts  --      1.8428                 1.5419                 1.6303
 IR Inten    --     54.1745                40.4377                16.7574

                     85                     86                     87
                      A                      A                      A
 Frequencies --   1442.6015              1455.2139              1491.1149
 Red. masses --      1.3191                 2.9573                 1.4020
 Frc consts  --      1.6175                 3.6898                 1.8366
 IR Inten    --     18.7377               410.8823                 5.7166

                     88                     89                     90
                      A                      A                      A
 Frequencies --   1495.6331              1509.6923              1510.9205
 Red. masses --      1.1257                 1.1150                 1.0858
 Frc consts  --      1.4836                 1.4973                 1.4604
 IR Inten    --      3.1859                 2.5393                 0.0523

                     91                     92                     93
                      A                      A                      A
 Frequencies --   1520.0682              1521.8925              1522.6530
 Red. masses --      1.0544                 1.0609                 1.1110
 Frc consts  --      1.4354                 1.4477                 1.5176
 IR Inten    --      2.3195                 1.6031                 9.9968

                     94                     95                     96
                      A                      A                      A
 Frequencies --   1526.5624              1542.4999              1544.2486
 Red. masses --      1.1337                 1.0901                 1.0911
 Frc consts  --      1.5566                 1.5282                 1.5331
 IR Inten    --      2.5381                 2.0571                12.2484

                     97                     98                     99
                      A                      A                      A
 Frequencies --   1771.0344              1861.7937              2985.9562
 Red. masses --      7.8708                 9.5257                 1.0713
 Frc consts  --     14.5454                19.4541                 5.6279
 IR Inten    --    349.0282               351.1259                50.2694

                    100                    101                    102
                      A                      A                      A
 Frequencies --   3007.2875              3008.7716              3026.2239
 Red. masses --      1.0702                 1.0702                 1.0832
 Frc consts  --      5.7026                 5.7081                 5.8446
 IR Inten    --     62.9034                48.3904                22.4339

                    103                    104                    105
                      A                      A                      A
 Frequencies --   3053.8892              3056.7834              3065.0045
 Red. masses --      1.0728                 1.0367                 1.0599
 Frc consts  --      5.8951                 5.7074                 5.8667
 IR Inten    --     27.5777                20.6294                23.3699

                    106                    107                    108
                      A                      A                      A
 Frequencies --   3079.2709              3089.7678              3096.7086
 Red. masses --      1.0590                 1.0597                 1.0950
 Frc consts  --      5.9162                 5.9603                 6.1865
 IR Inten    --     15.0594                 5.6716                15.8609

                    109                    110                    111
                      A                      A                      A
 Frequencies --   3106.5883              3117.6272              3120.6222
 Red. masses --      1.0880                 1.0934                 1.0958
 Frc consts  --      6.1863                 6.2617                 6.2873
 IR Inten    --      2.7023                35.7958                34.7971

                    112                    113                    114
                      A                      A                      A
 Frequencies --   3123.5025              3127.9407              3131.1223
 Red. masses --      1.1007                 1.0890                 1.1068
 Frc consts  --      6.3271                 6.2776                 6.3931
 IR Inten    --     47.2926                 1.5538                16.6119

                    115                    116                    117
                      A                      A                      A
 Frequencies --   3134.6236              3139.3079              3144.9970
 Red. masses --      1.1040                 1.1063                 1.1011
 Frc consts  --      6.3915                 6.4238                 6.4169
 IR Inten    --     41.8584                37.8897                16.5402

                    118                    119                    120
                      A                      A                      A
 Frequencies --   3180.3701              3584.2300              3692.8594
 Red. masses --      1.0899                 1.0752                 1.0639
 Frc consts  --      6.4954                 8.1381                 8.5485
 IR Inten    --      7.7506                20.0279                49.2336

 - Thermochemistry -
 -------------------
 Temperature   298.150 Kelvin.  Pressure   1.00000 Atm.
 Atom     1 has atomic number  6 and mass  12.00000

 Molecular mass:   286.15287 amu.
 Principal axes and moments of inertia in atomic units:
                           1         2         3
     Eigenvalues --  2624.61748********************
           X            0.99998  -0.00472   0.00378
           Y            0.00470   0.99997   0.00623
           Z           -0.00381  -0.00621   0.99997
 This molecule is an asymmetric top.
 Rotational symmetry number  1.
 Warning -- assumption of classical behavior for rotation
           may cause significant error
 Rotational temperatures (Kelvin)      0.03300     0.00712     0.00637
 Rotational constants (GHZ):           0.68762     0.14837     0.13282
 Zero-point vibrational energy     948245.4 (Joules/Mol)
                                  226.63610 (Kcal/Mol)
 Warning -- explicit consideration of  31 degrees of freedom as
           vibrations may cause significant error
 Vibrational temperatures:     31.47    39.00    51.04    70.84    99.45
          (Kelvin)            110.54   128.11   150.88   176.96   185.15
                              230.90   264.03   289.87   301.67   350.00
                              376.29   460.46   478.80   500.54   530.33
                              555.76   567.46   624.78   668.94   691.74
                              713.79   753.62   763.02   821.44   829.96
                              867.41   904.61   998.65  1026.30  1056.70
                             1090.62  1125.27  1167.44  1181.61  1214.73
                             1248.66  1290.87  1293.30  1322.57  1327.28
                             1342.02  1387.33  1402.27  1455.72  1495.07
                             1497.16  1509.37  1550.57  1573.14  1591.66
                             1614.67  1634.97  1648.79  1660.08  1664.34
                             1687.16  1715.96  1761.64  1766.84  1773.68
                             1789.74  1809.80  1825.95  1844.09  1846.85
                             1869.40  1890.38  1905.65  1929.60  1937.75
                             1947.20  1985.55  1995.24  2008.21  2017.80
                             2020.07  2049.53  2061.74  2069.95  2075.58
                             2093.73  2145.38  2151.88  2172.11  2173.88
                             2187.04  2189.66  2190.76  2196.38  2219.31
                             2221.83  2548.12  2678.71  4296.12  4326.82
                             4328.95  4354.06  4393.87  4398.03  4409.86
                             4430.38  4445.49  4455.47  4469.69  4485.57
                             4489.88  4494.02  4500.41  4504.99  4510.02
                             4516.76  4524.95  4575.84  5156.91  5313.20

 Zero-point correction=                           0.361168 (Hartree/Particle)
 Thermal correction to Energy=                    0.381115
 Thermal correction to Enthalpy=                  0.382059
 Thermal correction to Gibbs Free Energy=         0.310282
 Sum of electronic and zero-point Energies=           -993.947347
 Sum of electronic and thermal Energies=              -993.927399
 Sum of electronic and thermal Enthalpies=            -993.926455
 Sum of electronic and thermal Free Energies=         -993.998232

                     E (Thermal)             CV                S
                      KCal/Mol        Cal/Mol-Kelvin    Cal/Mol-Kelvin
 Total                  239.153             74.936            151.069
 Electronic               0.000              0.000              0.000
 Translational            0.889              2.981             42.852
 Rotational               0.889              2.981             34.427
 Vibrational            237.376             68.975             73.790
 Vibration     1          0.593              1.985              6.456
 Vibration     2          0.593              1.984              6.031
 Vibration     3          0.594              1.982              5.497
 Vibration     4          0.595              1.978              4.848
 Vibration     5          0.598              1.969              4.178
 Vibration     6          0.599              1.965              3.970
 Vibration     7          0.602              1.957              3.681
 Vibration     8          0.605              1.945              3.362
 Vibration     9          0.610              1.930              3.053
 Vibration    10          0.611              1.925              2.966
 Vibration    11          0.622              1.891              2.544
 Vibration    12          0.631              1.862              2.292
 Vibration    13          0.638              1.838              2.120
 Vibration    14          0.642              1.826              2.047
 Vibration    15          0.659              1.774              1.779
 Vibration    16          0.669              1.743              1.651
 Vibration    17          0.706              1.635              1.310
 Vibration    18          0.715              1.610              1.247
 Vibration    19          0.726              1.580              1.176
 Vibration    20          0.741              1.537              1.086
 Vibration    21          0.755              1.500              1.015
 Vibration    22          0.761              1.482              0.983
 Vibration    23          0.795              1.396              0.845
 Vibration    24          0.822              1.328              0.752
 Vibration    25          0.837              1.293              0.708
 Vibration    26          0.852              1.259              0.668
 Vibration    27          0.879              1.197              0.601
 Vibration    28          0.885              1.183              0.586
 Vibration    29          0.927              1.094              0.502
 Vibration    30          0.933              1.081              0.491
 Vibration    31          0.961              1.026              0.445

 Optimization completed.
    -- Stationary point found.
 Normal termination of Gaussian 16 at Sun Dec 13 17:38:28 2020.

 ----------------------------------------------------------------------
 # B3LYP/6-311++G(d,p) empiricaldispersion=gd3bj scf=xqc pop=npa geom=c
 heck
 ----------------------------------------------------------------------

 ----------------------------------------
 CID_105850072_JID_10301_Energie_neutraal
 ----------------------------------------
 Structure from the checkpoint file:  "JID_10301.chk"
 Charge =  0 Multiplicity = 1

 SCF Done:  E(RB3LYP) =  -994.607192567     A.U. after   15 cycles
 Normal termination of Gaussian 16 at Sun Dec 13 17:48:07 2020.

 ----------------------------------------------------------------------
 # B3LYP/6-311++G(d,p) empiricaldispersion=gd3bj scf=xqc pop=npa geom=c
 heck
 ----------------------------------------------------------------------

 --------------------------------------
 CID_105850072_JID_10301_Energie_kation
 --------------------------------------
 Structure from the checkpoint file:  "JID_10301.chk"
 Charge =  1 Multiplicity = 2

 SCF Done:  E(UB3LYP) =  -994.300038183     A.U. after   29 cycles
 Normal termination of Gaussian 16 at Sun Dec 13 18:14:28 2020.
 Gaussian 16:  ES64L-G16RevA.03 25-Dec-2016

 ----------------------------------------------------------------------
 # B3LYP/6-311++G(d,p) empiricaldispersion=gd3bj scf=xqc pop=npa geom=c
 heck
 ----------------------------------------------------------------------

 -------------------------------------
 CID_105850072_JID_10301_Energie_anion
 -------------------------------------
 Structure from the checkpoint file:  "JID_10301.chk"
 Charge = -1 Multiplicity = 2

                         Standard orientation:
 ---------------------------------------------------------------------
 Center     Atomic      Atomic             Coordinates (Angstroms)
 Number     Number       Type             X           Y           Z
 ---------------------------------------------------------------------
      1          6           0        6.578308    0.718188    0.437639
      2          6           0        5.857819   -0.607444    0.205220
      3          8           0        4.775365   -0.509914   -0.716068
      4          6           0        3.622256    0.099758   -0.194365
      5          6           0        2.416355    0.051824   -1.149331
      6          6           0        1.515638   -0.239957    0.081842
      7          6           0        2.784287   -0.682136    0.857031
      8          7           0        0.429226   -1.199221   -0.038838
      9          6           0       -0.853636   -0.981623    0.448288
     10          8           0       -1.469053   -1.854572    1.053537
     11          7           0       -1.381212    0.279820    0.219430
     12          6           0       -1.137355    1.043463   -1.006218
     13          6           0       -1.230233    2.531970   -0.686666
     14          8           0       -2.466809    2.849717   -0.060479
     15          6           0       -2.638120    2.112878    1.143922
     16          6           0       -2.647326    0.601555    0.881926
     17          6           0       -3.917322    0.214016    0.082675
     18          6           0       -3.989276   -1.241449   -0.309680
     19          8           0       -4.671918   -2.085514    0.220728
     20          8           0       -3.205532   -1.503282   -1.391587
     21          1           0        6.914136    1.139130   -0.515531
     22          1           0        7.454719    0.563785    1.077357
     23          1           0        5.934566    1.454646    0.930172
     24          1           0        6.544912   -1.334409   -0.239053
     25          1           0        5.504096   -1.027404    1.159840
     26          1           0        3.827212    1.124013    0.147489
     27          1           0        2.204273    0.930978   -1.765189
     28          1           0        2.490310   -0.833291   -1.788253
     29          1           0        1.112705    0.682890    0.505409
     30          1           0        2.961467   -1.756983    0.733565
     31          1           0        2.856504   -0.418647    1.915836
     32          1           0        0.699149   -2.156885    0.152802
     33          1           0       -1.880692    0.772823   -1.767407
     34          1           0       -0.157004    0.799710   -1.411631
     35          1           0       -0.392665    2.822824   -0.030113
     36          1           0       -1.184951    3.129388   -1.601573
     37          1           0       -3.588808    2.442382    1.571804
     38          1           0       -1.826614    2.348826    1.850447
     39          1           0       -2.655588    0.062066    1.830821
     40          1           0       -4.788003    0.423484    0.708931
     41          1           0       -3.983202    0.838006   -0.813374
     42          1           0       -3.247413   -2.469243   -1.519252
 ---------------------------------------------------------------------

 SCF Done:  E(UB3LYP) =  -994.599647101     A.U. after   33 cycles
 SCF Done:  E(UB3LYP) =  -994.599647100     a.u. after    1 cycles

 The electronic state is 2-A.
 Alpha  occ. eigenvalues --  -19.09408 -19.05142 -19.03729 -19.03653 -19.00257
 Alpha  occ. eigenvalues --  -14.25753 -14.24602 -10.23037 -10.21214 -10.14287
 Alpha  occ. eigenvalues --  -10.14190 -10.13711 -10.13267 -10.12942 -10.12844
 Alpha  occ. eigenvalues --  -10.12580 -10.11041 -10.08384 -10.08061 -10.06979
 Alpha  occ. eigenvalues --   -1.03279  -0.97347  -0.96414  -0.95071  -0.94423
 Alpha  occ. eigenvalues --   -0.86145  -0.83729  -0.75236  -0.72617  -0.67634
 Alpha  occ. eigenvalues --   -0.66310  -0.63358  -0.58869  -0.58200  -0.57831
 Alpha  occ. eigenvalues --   -0.53873  -0.53632  -0.52621  -0.47782  -0.46846
 Alpha  occ. eigenvalues --   -0.45573  -0.42939  -0.42731  -0.41301  -0.41171
 Alpha  occ. eigenvalues --   -0.40552  -0.40372  -0.39303  -0.38174  -0.37765
 Alpha  occ. eigenvalues --   -0.37462  -0.36527  -0.35070  -0.34569  -0.33457
 Alpha  occ. eigenvalues --   -0.33338  -0.32767  -0.32119  -0.31186  -0.30920
 Alpha  occ. eigenvalues --   -0.30395  -0.29424  -0.28693  -0.28595  -0.27150
 Alpha  occ. eigenvalues --   -0.26748  -0.26305  -0.24891  -0.24562  -0.23888
 Alpha  occ. eigenvalues --   -0.21709  -0.20664  -0.20155  -0.19469  -0.17047
 Alpha  occ. eigenvalues --   -0.16550  -0.15932   0.03772
 Alpha virt. eigenvalues --    0.05559   0.06201   0.06554   0.06857   0.07572
 Alpha virt. eigenvalues --    0.07679   0.08337   0.08974   0.09212   0.09442
 Alpha virt. eigenvalues --    0.09722   0.10196   0.10328   0.11005   0.11449

  Beta  occ. eigenvalues --  -19.09402 -19.05135 -19.03728 -19.03651 -19.00256
  Beta  occ. eigenvalues --  -14.25750 -14.24599 -10.23036 -10.21211 -10.14268
  Beta  occ. eigenvalues --  -10.14187 -10.13676 -10.13248 -10.12930 -10.12831
  Beta  occ. eigenvalues --  -10.12572 -10.11034 -10.08363 -10.08047 -10.06939
  Beta  occ. eigenvalues --   -1.03270  -0.97337  -0.96403  -0.95061  -0.94417
  Beta  occ. eigenvalues --   -0.86137  -0.83717  -0.75208  -0.72600  -0.67610
  Beta  occ. eigenvalues --   -0.66270  -0.63339  -0.58828  -0.58160  -0.57788
  Beta  occ. eigenvalues --   -0.53842  -0.53595  -0.52572  -0.47731  -0.46816
  Beta  occ. eigenvalues --   -0.45547  -0.42924  -0.42707  -0.41278  -0.41120
  Beta  occ. eigenvalues --   -0.40528  -0.40349  -0.39284  -0.38147  -0.37739
  Beta  occ. eigenvalues --   -0.37436  -0.36506  -0.35052  -0.34544  -0.33426
  Beta  occ. eigenvalues --   -0.33322  -0.32750  -0.32105  -0.31151  -0.30893
  Beta  occ. eigenvalues --   -0.30368  -0.29380  -0.28669  -0.28565  -0.27122
  Beta  occ. eigenvalues --   -0.26714  -0.26268  -0.24885  -0.24530  -0.23862
  Beta  occ. eigenvalues --   -0.21677  -0.20659  -0.20137  -0.19447  -0.17029
  Beta  occ. eigenvalues --   -0.16542  -0.15915
  Beta virt. eigenvalues --    0.05649   0.06265   0.06623   0.07057   0.07169
  Beta virt. eigenvalues --    0.07773   0.08078   0.08594   0.09224   0.09526
  Beta virt. eigenvalues --    0.09621   0.10011   0.10272   0.10524   0.11335

 Mulliken charges and spin densities:
               1          2
     1  C    1.068200  -1.483726
     2  C   -0.767403   0.641483
     3  O   -0.051508   0.014033
     4  C   -1.389100   1.172893
     5  C    1.291892  -1.755770
     6  C    0.566047  -0.758788
     7  C   -0.723199   0.224850
     8  N   -0.022838   0.036969
     9  C    0.027506  -0.065661
    10  O   -0.321487   0.001950
    11  N    0.258048  -0.062627
    12  C   -0.535874   0.268251
    13  C    0.569924  -0.993305
    14  O   -0.146289   0.058434
    15  C    0.219910  -0.855537
    16  C   -0.374982   0.726691
    17  C    0.051737  -0.441286
    18  C   -0.105650  -0.082353
    19  O   -0.263794   0.008524
    20  O   -0.192076   0.012826
    21  H    0.053441   0.081510
    22  H   -0.384727   0.528960
    23  H   -0.584556   0.733583
    24  H   -0.217739   0.378102
    25  H    0.118619  -0.004470
    26  H    0.079334   0.089267
    27  H   -0.336857   0.496407
    28  H    0.172691   0.016370
    29  H    0.725082  -0.450395
    30  H    0.103751   0.056759
    31  H   -0.411096   0.596603
    32  H    0.298523   0.005682
    33  H    0.037169   0.174226
    34  H    0.455243  -0.279563
    35  H   -0.436891   0.611354
    36  H   -0.234991   0.419711
    37  H    0.058673   0.125502
    38  H   -0.314822   0.470915
    39  H    0.126145   0.135350
    40  H    0.106063   0.088306
    41  H    0.189770   0.013946
    42  H    0.238112   0.044022
 Sum of Mulliken charges =  -1.00000   1.00000

 Dipole moment (field-independent basis, Debye):
    X=             -6.6940    Y=             -4.0012    Z=             -3.5052  Tot=              8.5502
 Quadrupole moment (field-independent basis, Debye-Ang):
   XX=           -243.8192   YY=           -171.7486   ZZ=           -157.7988
   XY=            -18.8891   XZ=             -3.8092   YZ=              4.1706

 Summary of Natural Population Analysis:

                                       Natural Population
                Natural  -----------------------------------------------
    Atom  No    Charge         Core      Valence    Rydberg      Total
 -----------------------------------------------------------------------
      C    1   -0.30102      0.99967     2.29678    0.00457     3.30102
      C    2   -0.01057      0.99959     1.99838    0.01260     3.01057
      O    3   -0.30017      0.99987     3.29124    0.00906     4.30017
      C    4    0.06248      0.99952     1.92155    0.01646     2.93752
      C    5   -0.19413      0.99960     2.18479    0.00973     3.19413
      C    6   -0.02242      0.99957     2.00910    0.01375     3.02242
      C    7   -0.20093      0.99961     2.19223    0.00910     3.20093
      N    8   -0.33110      0.99966     2.82263    0.00882     3.83110
      C    9    0.42007      0.99966     1.55681    0.02347     2.57993
      O   10   -0.33618      0.99988     3.33135    0.00495     4.33618
      N   11   -0.27670      0.99963     2.76587    0.01121     3.77670
      C   12   -0.10172      0.99959     2.09185    0.01028     3.10172
      C   13   -0.01491      0.99957     2.00218    0.01315     3.01491
      O   14   -0.29888      0.99989     3.29000    0.00898     4.29888
      C   15   -0.01150      0.99955     1.99851    0.01344     3.01150
      C   16   -0.01621      0.99958     2.00317    0.01347     3.01621
      C   17   -0.24876      0.99954     2.24091    0.00830     3.24876
      C   18    0.41154      0.99972     1.56323    0.02551     2.58846
      O   19   -0.30181      0.99986     3.29594    0.00601     4.30181
      O   20   -0.34864      0.99988     3.34230    0.00647     4.34864
      H   21    0.09940      0.00000     0.39952    0.00108     0.40060
      H   22    0.10147      0.00000     0.39710    0.00143     0.39853
      H   23    0.10219      0.00000     0.39604    0.00177     0.39781
      H   24    0.08596      0.00000     0.41291    0.00114     0.41404
      H   25    0.07950      0.00000     0.41913    0.00136     0.42050
      H   26    0.08850      0.00000     0.40860    0.00290     0.41150
      H   27    0.10153      0.00000     0.39717    0.00130     0.39847
      H   28    0.10295      0.00000     0.39561    0.00144     0.39705
      H   29    0.10476      0.00000     0.39167    0.00357     0.39524
      H   30    0.09729      0.00000     0.40143    0.00128     0.40271
      H   31    0.10645      0.00000     0.39225    0.00130     0.39355
      H   32    0.19223      0.00000     0.30555    0.00222     0.30777
      H   33    0.09565      0.00000     0.40277    0.00158     0.40435
      H   34    0.11207      0.00000     0.38618    0.00175     0.38793
      H   35    0.08527      0.00000     0.41215    0.00258     0.41473
      H   36    0.09546      0.00000     0.40320    0.00135     0.40454
      H   37    0.09308      0.00000     0.40588    0.00104     0.40692
      H   38    0.08990      0.00000     0.40857    0.00154     0.41010
      H   39    0.11884      0.00000     0.38004    0.00112     0.38116
      H   40    0.11361      0.00000     0.38546    0.00093     0.38639
      H   41    0.11503      0.00000     0.38342    0.00155     0.38497
      H   42    0.24045      0.00000     0.25627    0.00328     0.25955
 =======================================================================
   * Total *    0.00000     19.99343    56.73974    0.26682    77.00000

 Normal termination of Gaussian 16 at Sun Dec 13 18:45:05 2020.
