 Gaussian 16, Revision A.03,

 -----------------------------------------------------------
 # opt freq B3LYP/6-31G(d) empiricaldispersion=gd3bj scf=xqc
 -----------------------------------------------------------

 ------------------------------
 CID_12957867_JID_4350_neutraal
 ------------------------------
 Symbolic Z-matrix:
 Charge =  0 Multiplicity = 1

 SCF Done:  E(RB3LYP) =  -963.708965854     A.U. after   18 cycles
 SCF Done:  E(RB3LYP) =  -963.714073592     A.U. after   15 cycles
 SCF Done:  E(RB3LYP) =  -963.715678556     A.U. after   14 cycles
 SCF Done:  E(RB3LYP) =  -963.716352728     A.U. after   13 cycles
 SCF Done:  E(RB3LYP) =  -963.716603674     A.U. after   15 cycles
 SCF Done:  E(RB3LYP) =  -963.716742117     A.U. after   12 cycles
 SCF Done:  E(RB3LYP) =  -963.716794004     A.U. after   13 cycles
 SCF Done:  E(RB3LYP) =  -963.716797401     A.U. after   11 cycles
 SCF Done:  E(RB3LYP) =  -963.716800696     A.U. after   10 cycles
 SCF Done:  E(RB3LYP) =  -963.716800857     A.U. after    8 cycles
 Optimization completed.
    -- Stationary point found.
 Normal termination of Gaussian 16 at Thu Dec 10 09:20:34 2020.

 --------------------------------------------------------------------
 #N Geom=AllCheck Guess=TCheck SCRF=Check GenChk RB3LYP/6-31G(d) Freq
 --------------------------------------------------------------------

 Structure from the checkpoint file:  "JID_4350.chk"
 ------------------------------
 CID_12957867_JID_4350_neutraal
 ------------------------------
 Charge =  0 Multiplicity = 1

 SCF Done:  E(RB3LYP) =  -963.716800857     A.U. after    2 cycles

  Exact polarizability: 219.744 -16.136 150.211  -3.989   9.585  63.192
 Approx polarizability: 384.318 -66.668 308.715  -5.023  16.026 105.655

                      1                      2                      3
                      A                      A                      A
 Frequencies --     44.7913                73.1198                87.8487
 Red. masses --      4.6878                 7.4368                 5.7769
 Frc consts  --      0.0055                 0.0234                 0.0263
 IR Inten    --      0.2894                 1.7922                 0.3346

                      4                      5                      6
                      A                      A                      A
 Frequencies --    109.2101               136.3722               232.2322
 Red. masses --      9.4171                 9.2069                 5.3137
 Frc consts  --      0.0662                 0.1009                 0.1688
 IR Inten    --      2.2715                 2.0374                 0.0524

                      7                      8                      9
                      A                      A                      A
 Frequencies --    252.2872               308.3393               343.7624
 Red. masses --      6.2761                 8.2335                 6.0893
 Frc consts  --      0.2354                 0.4612                 0.4240
 IR Inten    --      0.8100                 2.0036                 1.2532

                     10                     11                     12
                      A                      A                      A
 Frequencies --    408.0060               417.7698               428.9002
 Red. masses --      8.6966                 3.1072                 9.8701
 Frc consts  --      0.8530                 0.3195                 1.0698
 IR Inten    --      2.4186                 0.1955                12.7901

                     13                     14                     15
                      A                      A                      A
 Frequencies --    488.5286               510.2676               526.2346
 Red. masses --      3.5719                 6.2045                 4.8392
 Frc consts  --      0.5023                 0.9518                 0.7896
 IR Inten    --      7.0862                 0.1593                23.0903

                     16                     17                     18
                      A                      A                      A
 Frequencies --    557.9360               600.8020               635.6706
 Red. masses --      6.9874                 2.2687                 6.0108
 Frc consts  --      1.2815                 0.4825                 1.4310
 IR Inten    --      3.7164                18.7769                 0.9278

                     19                     20                     21
                      A                      A                      A
 Frequencies --    673.4482               698.2421               712.4447
 Red. masses --      7.2616                 6.6855                 6.4262
 Frc consts  --      1.9404                 1.9204                 1.9218
 IR Inten    --      9.4650                 0.4392                 5.6357

                     22                     23                     24
                      A                      A                      A
 Frequencies --    716.8061               782.4116               804.9659
 Red. masses --      1.7934                 2.0777                 9.3883
 Frc consts  --      0.5429                 0.7494                 3.5842
 IR Inten    --     23.5801                28.6273                10.4596

                     25                     26                     27
                      A                      A                      A
 Frequencies --    865.1819               935.9454               944.8182
 Red. masses --      1.2444                 1.5983                 4.9779
 Frc consts  --      0.5488                 0.8249                 2.6181
 IR Inten    --      0.6611                10.0895                21.5950

                     28                     29                     30
                      A                      A                      A
 Frequencies --    975.5301               999.5779              1021.4302
 Red. masses --      1.3378                 1.2576                 5.9052
 Frc consts  --      0.7501                 0.7403                 3.6300
 IR Inten    --      1.4544                 0.2108                 0.5962

                     31                     32                     33
                      A                      A                      A
 Frequencies --   1060.3932              1112.4205              1151.4625
 Red. masses --      2.3270                 1.7050                 4.7168
 Frc consts  --      1.5416                 1.2432                 3.6847
 IR Inten    --      2.1833                 2.4005                 0.3218

                     34                     35                     36
                      A                      A                      A
 Frequencies --   1170.8932              1195.9074              1216.9702
 Red. masses --      5.4345                 1.0965                 1.1523
 Frc consts  --      4.3898                 0.9240                 1.0055
 IR Inten    --      1.2251                 0.0064                 2.4143

                     37                     38                     39
                      A                      A                      A
 Frequencies --   1242.8402              1317.9839              1355.0659
 Red. masses --      2.0680                 2.3798                 5.7177
 Frc consts  --      1.8820                 2.4357                 6.1857
 IR Inten    --      2.9175                30.2198                20.6368

                     40                     41                     42
                      A                      A                      A
 Frequencies --   1374.5907              1425.9190              1433.7235
 Red. masses --      1.5819                 5.7263                 6.2051
 Frc consts  --      1.7611                 6.8598                 7.5150
 IR Inten    --      2.9605                15.8053               168.1966

                     43                     44                     45
                      A                      A                      A
 Frequencies --   1495.0752              1522.6985              1558.2263
 Red. masses --      2.3802                 4.3013                 2.9669
 Frc consts  --      3.1347                 5.8759                 4.2444
 IR Inten    --     23.2325                46.6297                23.3500

                     46                     47                     48
                      A                      A                      A
 Frequencies --   1637.5801              1665.8823              2209.5790
 Red. masses --      5.4311                 5.5380                13.4965
 Frc consts  --      8.5811                 9.0551                38.8231
 IR Inten    --      3.0527                 6.6306               850.5122

                     49                     50                     51
                      A                      A                      A
 Frequencies --   3186.9992              3195.4675              3205.1857
 Red. masses --      1.0852                 1.0883                 1.0921
 Frc consts  --      6.4939                 6.5472                 6.6101
 IR Inten    --      1.7344                 6.2631                23.4087

                     52                     53                     54
                      A                      A                      A
 Frequencies --   3213.4253              3222.6322              3248.2478
 Red. masses --      1.0958                 1.0949                 1.0874
 Frc consts  --      6.6669                 6.6997                 6.7596
 IR Inten    --     22.4488                 6.5197                14.0581

 - Thermochemistry -
 -------------------
 Temperature   298.150 Kelvin.  Pressure   1.00000 Atm.
 Atom     1 has atomic number  6 and mass  12.00000

 Molecular mass:   202.03132 amu.
 Principal axes and moments of inertia in atomic units:
                           1         2         3
     Eigenvalues --  1667.303104327.657545781.17717
           X            0.99997   0.00771  -0.00228
           Y           -0.00767   0.99983   0.01668
           Z            0.00241  -0.01666   0.99986
 This molecule is an asymmetric top.
 Rotational symmetry number  1.
 Warning -- assumption of classical behavior for rotation
           may cause significant error
 Rotational temperatures (Kelvin)      0.05195     0.02001     0.01498
 Rotational constants (GHZ):           1.08243     0.41702     0.31218
 Zero-point vibrational energy     363138.7 (Joules/Mol)
                                   86.79223 (Kcal/Mol)
 Warning -- explicit consideration of  17 degrees of freedom as
           vibrations may cause significant error
 Vibrational temperatures:     64.44   105.20   126.39   157.13   196.21
          (Kelvin)            334.13   362.99   443.63   494.60   587.03
                              601.08   617.09   702.88   734.16   757.13
                              802.75   864.42   914.59   968.94  1004.61
                             1025.05  1031.32  1125.72  1158.17  1244.80
                             1346.62  1359.38  1403.57  1438.17  1469.61
                             1525.67  1600.52  1656.70  1684.65  1720.64
                             1750.95  1788.17  1896.28  1949.64  1977.73
                             2051.58  2062.81  2151.08  2190.82  2241.94
                             2356.11  2396.83  3179.09  4585.38  4597.56
                             4611.55  4623.40  4636.65  4673.50

 Zero-point correction=                           0.138312 (Hartree/Particle)
 Thermal correction to Energy=                    0.149786
 Thermal correction to Enthalpy=                  0.150730
 Thermal correction to Gibbs Free Energy=         0.099509
 Sum of electronic and zero-point Energies=           -963.578489
 Sum of electronic and thermal Energies=              -963.567015
 Sum of electronic and thermal Enthalpies=            -963.566071
 Sum of electronic and thermal Free Energies=         -963.617292

                     E (Thermal)             CV                S
                      KCal/Mol        Cal/Mol-Kelvin    Cal/Mol-Kelvin
 Total                   93.992             43.334            107.804
 Electronic               0.000              0.000              0.000
 Translational            0.889              2.981             41.814
 Rotational               0.889              2.981             32.101
 Vibrational             92.215             37.372             33.889
 Vibration     1          0.595              1.979              5.035
 Vibration     2          0.599              1.967              4.068
 Vibration     3          0.601              1.958              3.707
 Vibration     4          0.606              1.942              3.283
 Vibration     5          0.614              1.917              2.854
 Vibration     6          0.653              1.792              1.862
 Vibration     7          0.664              1.759              1.715
 Vibration     8          0.698              1.658              1.371
 Vibration     9          0.723              1.588              1.195
 Vibration    10          0.773              1.453              0.934
 Vibration    11          0.781              1.432              0.900
 Vibration    12          0.790              1.407              0.862
 Vibration    13          0.844              1.275              0.687
 Vibration    14          0.865              1.227              0.633
 Vibration    15          0.881              1.192              0.596
 Vibration    16          0.913              1.122              0.528
 Vibration    17          0.959              1.030              0.448

                           ! Non-Optimized Parameters !
 Normal termination of Gaussian 16 at Thu Dec 10 09:25:50 2020.

 ----------------------------------------------------------------------
 # B3LYP/6-311++G(d,p) empiricaldispersion=gd3bj scf=xqc pop=npa geom=c
 heck
 ----------------------------------------------------------------------

 --------------------------------------
 CID_12957867_JID_4350_Energie_neutraal
 --------------------------------------
 Structure from the checkpoint file:  "JID_4350.chk"
 Charge =  0 Multiplicity = 1

 SCF Done:  E(RB3LYP) =  -963.886234209     A.U. after   18 cycles
 Normal termination of Gaussian 16 at Thu Dec 10 09:28:31 2020.

 ----------------------------------------------------------------------
 # B3LYP/6-311++G(d,p) empiricaldispersion=gd3bj scf=xqc pop=npa geom=c
 heck
 ----------------------------------------------------------------------

 ------------------------------------
 CID_12957867_JID_4350_Energie_kation
 ------------------------------------
 Structure from the checkpoint file:  "JID_4350.chk"
 Charge =  1 Multiplicity = 2

 SCF Done:  E(UB3LYP) =  -963.595800617     A.U. after   26 cycles
 Normal termination of Gaussian 16 at Thu Dec 10 09:34:02 2020.
 Gaussian 16:  ES64L-G16RevA.03 25-Dec-2016

 ----------------------------------------------------------------------
 # B3LYP/6-311++G(d,p) empiricaldispersion=gd3bj scf=xqc pop=npa geom=c
 heck
 ----------------------------------------------------------------------

 -----------------------------------
 CID_12957867_JID_4350_Energie_anion
 -----------------------------------
 Structure from the checkpoint file:  "JID_4350.chk"
 Charge = -1 Multiplicity = 2

                         Standard orientation:
 ---------------------------------------------------------------------
 Center     Atomic      Atomic             Coordinates (Angstroms)
 Number     Number       Type             X           Y           Z
 ---------------------------------------------------------------------
      1          6           0        3.977013    0.749103   -0.042726
      2          6           0        3.644992   -0.468414   -0.641702
      3          6           0        2.337292   -0.942274   -0.593270
      4          6           0        1.335560   -0.203230    0.057406
      5          6           0        1.683633    1.007418    0.677834
      6          6           0        2.993231    1.481995    0.621115
      7          6           0       -0.039441   -0.723723    0.095432
      8          6           0       -1.232696   -0.003075   -0.000670
      9         16           0       -2.558746   -1.100778    0.107423
     10          7           0       -1.443314   -2.484483    0.249895
     11          7           0       -0.246915   -2.076856    0.214391
     12          6           0       -1.356673    1.406691   -0.230722
     13          7           0       -2.522995    1.992885   -0.284985
     14          7           0       -3.541119    2.509794   -0.323331
     15          1           0        4.997627    1.118109   -0.084716
     16          1           0        4.407935   -1.050003   -1.151180
     17          1           0        2.075317   -1.887887   -1.055981
     18          1           0        0.936861    1.558418    1.241032
     19          1           0        3.247021    2.417610    1.111258
     20          1           0       -0.501890    2.039883   -0.427153
 ---------------------------------------------------------------------

 SCF Done:  E(UB3LYP) =  -963.914078314     A.U. after   33 cycles
 SCF Done:  E(UB3LYP) =  -963.914078314     a.u. after    1 cycles

 The electronic state is 2-A.
 Alpha  occ. eigenvalues --  -88.74105 -14.25113 -14.21744 -14.21543 -14.20099
 Alpha  occ. eigenvalues --  -10.07994 -10.07503 -10.07333 -10.07167 -10.07072
 Alpha  occ. eigenvalues --  -10.07013 -10.06588 -10.06448 -10.06438  -7.82696
 Alpha  occ. eigenvalues --   -5.79033  -5.78635  -5.78234  -0.93519  -0.90042
 Alpha  occ. eigenvalues --   -0.75416  -0.71789  -0.67646  -0.65180  -0.64252
 Alpha  occ. eigenvalues --   -0.61503  -0.51552  -0.50430  -0.48804  -0.43847
 Alpha  occ. eigenvalues --   -0.41287  -0.39272  -0.37226  -0.34856  -0.34270
 Alpha  occ. eigenvalues --   -0.32355  -0.32106  -0.31713  -0.29713  -0.28800
 Alpha  occ. eigenvalues --   -0.26977  -0.26506  -0.25761  -0.24269  -0.22572
 Alpha  occ. eigenvalues --   -0.20957  -0.18385  -0.16614  -0.15272  -0.12180
 Alpha  occ. eigenvalues --   -0.11687  -0.06071   0.03450
 Alpha virt. eigenvalues --    0.07158   0.07977   0.08726   0.08851   0.08952
 Alpha virt. eigenvalues --    0.10052   0.11614   0.11994   0.12345   0.12648
 Alpha virt. eigenvalues --    0.14170   0.14781   0.15310   0.15638   0.16332

  Beta  occ. eigenvalues --  -88.74076 -14.24483 -14.21570 -14.21513 -14.19197
  Beta  occ. eigenvalues --  -10.07710 -10.07463 -10.07339 -10.07217 -10.07143
  Beta  occ. eigenvalues --  -10.06990 -10.06614 -10.06462 -10.06415  -7.82670
  Beta  occ. eigenvalues --   -5.79023  -5.78626  -5.78132  -0.92150  -0.89859
  Beta  occ. eigenvalues --   -0.75362  -0.71218  -0.67440  -0.64684  -0.64201
  Beta  occ. eigenvalues --   -0.61345  -0.51282  -0.50325  -0.48532  -0.43693
  Beta  occ. eigenvalues --   -0.41059  -0.38766  -0.36975  -0.34708  -0.33729
  Beta  occ. eigenvalues --   -0.32008  -0.31945  -0.30966  -0.28943  -0.27030
  Beta  occ. eigenvalues --   -0.26540  -0.26119  -0.24293  -0.24009  -0.22306
  Beta  occ. eigenvalues --   -0.20531  -0.17498  -0.16252  -0.15170  -0.11738
  Beta  occ. eigenvalues --   -0.11542  -0.05423
  Beta virt. eigenvalues --    0.07134   0.08320   0.08815   0.08899   0.09677
  Beta virt. eigenvalues --    0.09945   0.11433   0.12040   0.12343   0.12559
  Beta virt. eigenvalues --    0.13077   0.14540   0.14835   0.15436   0.15745

 Mulliken charges and spin densities:
               1          2
     1  C   -0.467659   0.021726
     2  C   -0.191434  -0.003780
     3  C   -0.418536   0.021021
     4  C    1.485708   0.015719
     5  C   -0.853640   0.020774
     6  C   -0.158699  -0.006299
     7  C   -1.937606  -0.086192
     8  C    1.200705   0.263097
     9  S   -0.038401   0.056502
    10  N   -0.021884   0.077266
    11  N   -0.035319   0.007385
    12  C   -0.376321  -0.181936
    13  N    0.511213   0.132368
    14  N   -0.579522   0.568108
    15  H    0.124002  -0.000120
    16  H    0.128549  -0.000690
    17  H    0.196796   0.001593
    18  H    0.197522  -0.004662
    19  H    0.132233   0.002684
    20  H    0.102291   0.095436
 Sum of Mulliken charges =  -1.00000   1.00000

 Dipole moment (field-independent basis, Debye):
    X=              6.8076    Y=              0.6648    Z=             -0.0096  Tot=              6.8400
 Quadrupole moment (field-independent basis, Debye-Ang):
   XX=           -129.9600   YY=           -118.3052   ZZ=            -94.8921
   XY=             11.0748   XZ=             -2.5713   YZ=              6.1231

 Summary of Natural Population Analysis:

                                       Natural Population
                Natural  -----------------------------------------------
    Atom  No    Charge         Core      Valence    Rydberg      Total
 -----------------------------------------------------------------------
      C    1   -0.11624      0.99957     2.10694    0.00972     3.11624
      C    2   -0.10196      0.99957     2.09319    0.00920     3.10196
      C    3   -0.09625      0.99954     2.08769    0.00903     3.09625
      C    4   -0.01275      0.99949     2.00381    0.00944     3.01275
      C    5   -0.09794      0.99954     2.09029    0.00811     3.09794
      C    6   -0.10589      0.99957     2.09714    0.00917     3.10589
      C    7   -0.00634      0.99943     1.99269    0.01422     3.00634
      C    8   -0.04743      0.99945     2.03817    0.00981     3.04743
      S    9    0.21900      4.99949     2.75768    0.02383     7.78100
      N   10   -0.16443      0.99982     2.64631    0.01831     3.66443
      N   11   -0.10357      0.99969     2.58573    0.01815     3.60357
      C   12   -0.15976      0.99950     2.14601    0.01424     3.15976
      N   13    0.07676      0.99968     2.40668    0.01687     3.42324
      N   14    0.10981      0.99982     2.37597    0.01440     3.39019
      H   15    0.09339      0.00000     0.40562    0.00099     0.40661
      H   16    0.09404      0.00000     0.40496    0.00100     0.40596
      H   17    0.10652      0.00000     0.39219    0.00129     0.39348
      H   18    0.10523      0.00000     0.39317    0.00160     0.39477
      H   19    0.09484      0.00000     0.40415    0.00101     0.40516
      H   20    0.11296      0.00000     0.38541    0.00164     0.38704
 =======================================================================
   * Total *   -0.00000     17.99418    33.81381    0.19201    52.00000

 Normal termination of Gaussian 16 at Thu Dec 10 09:41:10 2020.
