 Gaussian 16, Revision A.03,

 -----------------------------------------------------------
 # opt freq B3LYP/6-31G(d) empiricaldispersion=gd3bj scf=xqc
 -----------------------------------------------------------

 -------------------------------
 CID_123527915_JID_1655_neutraal
 -------------------------------
 Symbolic Z-matrix:
 Charge =  0 Multiplicity = 1

 SCF Done:  E(RB3LYP) =  -431.224657019     A.U. after   13 cycles
 SCF Done:  E(RB3LYP) =  -431.230160330     A.U. after   10 cycles
 SCF Done:  E(RB3LYP) =  -431.230162750     A.U. after   11 cycles
 SCF Done:  E(RB3LYP) =  -431.230449957     A.U. after   10 cycles
 SCF Done:  E(RB3LYP) =  -431.230495272     A.U. after    9 cycles
 SCF Done:  E(RB3LYP) =  -431.230512967     A.U. after    9 cycles
 SCF Done:  E(RB3LYP) =  -431.230542364     A.U. after    9 cycles
 SCF Done:  E(RB3LYP) =  -431.230585807     A.U. after   10 cycles
 SCF Done:  E(RB3LYP) =  -431.230688378     A.U. after   11 cycles
 SCF Done:  E(RB3LYP) =  -431.230720209     A.U. after    9 cycles
 SCF Done:  E(RB3LYP) =  -431.230793362     A.U. after    9 cycles
 SCF Done:  E(RB3LYP) =  -431.230795629     A.U. after    8 cycles
 SCF Done:  E(RB3LYP) =  -431.230796280     A.U. after    7 cycles
 SCF Done:  E(RB3LYP) =  -431.230796371     A.U. after    7 cycles
 SCF Done:  E(RB3LYP) =  -431.230796382     A.U. after    6 cycles
 Optimization completed.
    -- Stationary point found.
 Normal termination of Gaussian 16 at Tue Dec  8 21:13:19 2020.

 --------------------------------------------------------------------
 #N Geom=AllCheck Guess=TCheck SCRF=Check GenChk RB3LYP/6-31G(d) Freq
 --------------------------------------------------------------------

 Structure from the checkpoint file:  "JID_1655.chk"
 -------------------------------
 CID_123527915_JID_1655_neutraal
 -------------------------------
 Charge =  0 Multiplicity = 1

 SCF Done:  E(RB3LYP) =  -431.230796382     A.U. after    1 cycles

  Exact polarizability: 138.039  -7.335 112.830   0.215  -4.115  95.523
 Approx polarizability: 180.002 -14.805 151.725   2.664  -8.284 141.483

                      1                      2                      3
                      A                      A                      A
 Frequencies --     26.2031                44.1001                67.9105
 Red. masses --      2.4982                 2.7732                 3.3136
 Frc consts  --      0.0010                 0.0032                 0.0090
 IR Inten    --      0.0075                 0.0297                 0.0032

                      4                      5                      6
                      A                      A                      A
 Frequencies --    101.4626               121.3725               129.7084
 Red. masses --      2.2549                 2.1214                 2.0619
 Frc consts  --      0.0137                 0.0184                 0.0204
 IR Inten    --      0.0611                 0.1948                 0.4212

                      7                      8                      9
                      A                      A                      A
 Frequencies --    162.4601               194.1995               243.3370
 Red. masses --      1.9826                 1.1931                 1.9154
 Frc consts  --      0.0308                 0.0265                 0.0668
 IR Inten    --      0.1177                 0.0397                 0.0964

                     10                     11                     12
                      A                      A                      A
 Frequencies --    274.4326               314.9125               369.0016
 Red. masses --      1.5650                 2.5969                 2.4048
 Frc consts  --      0.0694                 0.1517                 0.1929
 IR Inten    --      0.5734                 0.9238                 0.3738

                     13                     14                     15
                      A                      A                      A
 Frequencies --    374.1383               423.5245               459.9185
 Red. masses --      2.1077                 2.0134                 2.1755
 Frc consts  --      0.1738                 0.2128                 0.2711
 IR Inten    --      0.0939                 0.3516                 0.6448

                     16                     17                     18
                      A                      A                      A
 Frequencies --    515.1057               554.4391               656.8247
 Red. masses --      2.8807                 2.4836                 2.0188
 Frc consts  --      0.4503                 0.4498                 0.5131
 IR Inten    --      3.0906                 1.6702                 2.4110

                     19                     20                     21
                      A                      A                      A
 Frequencies --    750.2932               773.1072               802.1422
 Red. masses --      1.5141                 1.5025                 1.2713
 Frc consts  --      0.5022                 0.5291                 0.4820
 IR Inten    --      5.2029                 1.9243                 1.7291

                     22                     23                     24
                      A                      A                      A
 Frequencies --    821.9076               864.7773               880.0218
 Red. masses --      1.6393                 2.0472                 1.7602
 Frc consts  --      0.6525                 0.9020                 0.8031
 IR Inten    --      0.7997                 2.3172                 4.5644

                     25                     26                     27
                      A                      A                      A
 Frequencies --    906.1405               910.8199               918.0715
 Red. masses --      1.9416                 1.3596                 1.8583
 Frc consts  --      0.9393                 0.6646                 0.9228
 IR Inten    --      0.3306                 9.6061                 0.8488

                     28                     29                     30
                      A                      A                      A
 Frequencies --    940.9803               974.3460               983.9000
 Red. masses --      2.3479                 1.2026                 2.7020
 Frc consts  --      1.2249                 0.6727                 1.5411
 IR Inten    --      1.0402                 0.6344                 0.6343

                     31                     32                     33
                      A                      A                      A
 Frequencies --    996.7038              1037.6319              1057.2201
 Red. masses --      1.5411                 1.5879                 1.7754
 Frc consts  --      0.9020                 1.0073                 1.1692
 IR Inten    --      1.1939                 0.8203                 1.7337

                     34                     35                     36
                      A                      A                      A
 Frequencies --   1078.4107              1091.2607              1108.8478
 Red. masses --      2.0420                 1.8506                 1.8569
 Frc consts  --      1.3992                 1.2984                 1.3452
 IR Inten    --      2.0113                 0.6717                 0.7310

                     37                     38                     39
                      A                      A                      A
 Frequencies --   1125.0880              1127.7690              1163.2630
 Red. masses --      2.0266                 1.8390                 2.0245
 Frc consts  --      1.5115                 1.3780                 1.6140
 IR Inten    --      2.3038                 1.1404                 9.2021

                     40                     41                     42
                      A                      A                      A
 Frequencies --   1208.3553              1214.7907              1243.1043
 Red. masses --      1.4147                 1.8840                 1.4551
 Frc consts  --      1.2171                 1.6380                 1.3249
 IR Inten    --      0.2047                 1.1917                 0.1813

                     43                     44                     45
                      A                      A                      A
 Frequencies --   1268.5892              1275.3715              1279.8064
 Red. masses --      1.3204                 1.1796                 1.3727
 Frc consts  --      1.2520                 1.1305                 1.3247
 IR Inten    --      0.1562                 0.1112                 1.0153

                     46                     47                     48
                      A                      A                      A
 Frequencies --   1288.7718              1294.7658              1309.9597
 Red. masses --      1.4373                 1.3839                 1.3122
 Frc consts  --      1.4066                 1.3669                 1.3267
 IR Inten    --      0.1678                 1.3129                 2.7850

                     49                     50                     51
                      A                      A                      A
 Frequencies --   1314.7139              1347.9770              1371.0255
 Red. masses --      1.3368                 1.3822                 1.2999
 Frc consts  --      1.3614                 1.4797                 1.4396
 IR Inten    --      2.2784                 4.6755                 4.6293

                     52                     53                     54
                      A                      A                      A
 Frequencies --   1389.0833              1402.5875              1421.3604
 Red. masses --      1.4018                 1.4161                 1.4832
 Frc consts  --      1.5937                 1.6414                 1.7654
 IR Inten    --      5.8378                 3.2549                 3.9142

                     55                     56                     57
                      A                      A                      A
 Frequencies --   1442.1901              1444.5968              1503.7730
 Red. masses --      1.2690                 1.2567                 1.0849
 Frc consts  --      1.5551                 1.5452                 1.4454
 IR Inten    --      5.7224                 3.7480                 3.0071

                     58                     59                     60
                      A                      A                      A
 Frequencies --   1508.4717              1511.6638              1515.4474
 Red. masses --      1.0906                 1.0655                 1.0833
 Frc consts  --      1.4622                 1.4345                 1.4659
 IR Inten    --      0.8628                 2.0187                 2.1471

                     61                     62                     63
                      A                      A                      A
 Frequencies --   1519.2769              1524.7672              1526.5762
 Red. masses --      1.0700                 1.0729                 1.0736
 Frc consts  --      1.4552                 1.4696                 1.4740
 IR Inten    --      1.0445                 6.7036                 1.6713

                     64                     65                     66
                      A                      A                      A
 Frequencies --   1532.4964              1539.9059              1543.1905
 Red. masses --      1.0606                 1.0668                 1.1274
 Frc consts  --      1.4675                 1.4905                 1.5818
 IR Inten    --      6.1943                 3.0607                 4.7919

                     67                     68                     69
                      A                      A                      A
 Frequencies --   1749.7340              3012.4782              3014.9963
 Red. masses --      6.6349                 1.0695                 1.0690
 Frc consts  --     11.9681                 5.7182                 5.7256
 IR Inten    --      2.1042                27.4022                39.1735

                     70                     71                     72
                      A                      A                      A
 Frequencies --   3028.8069              3037.4550              3044.2674
 Red. masses --      1.0406                 1.0629                 1.0375
 Frc consts  --      5.6244                 5.7779                 5.6653
 IR Inten    --     40.8549                33.7247                28.7375

                     73                     74                     75
                      A                      A                      A
 Frequencies --   3051.0350              3056.6829              3065.7624
 Red. masses --      1.0823                 1.0604                 1.0605
 Frc consts  --      5.9357                 5.8377                 5.8728
 IR Inten    --     20.4400                50.4595                43.9027

                     76                     77                     78
                      A                      A                      A
 Frequencies --   3070.1558              3074.4225              3078.4560
 Red. masses --      1.0638                 1.0977                 1.0947
 Frc consts  --      5.9079                 6.1134                 6.1124
 IR Inten    --     31.5949                27.2155                 9.6389

                     79                     80                     81
                      A                      A                      A
 Frequencies --   3082.9115              3097.0773              3106.8299
 Red. masses --      1.0945                 1.0893                 1.1048
 Frc consts  --      6.1289                 6.1559                 6.2832
 IR Inten    --     26.4115                36.0342                26.1058

                     82                     83                     84
                      A                      A                      A
 Frequencies --   3109.2349              3114.0221              3118.6974
 Red. masses --      1.1011                 1.1074                 1.1017
 Frc consts  --      6.2715                 6.3271                 6.3133
 IR Inten    --     48.9462                20.1707                44.2947

                     85                     86                     87
                      A                      A                      A
 Frequencies --   3121.8596              3128.4515              3140.9145
 Red. masses --      1.0996                 1.1074                 1.0878
 Frc consts  --      6.3141                 6.3858                 6.3226
 IR Inten    --     26.0674                77.3679                50.1175

 - Thermochemistry -
 -------------------
 Temperature   298.150 Kelvin.  Pressure   1.00000 Atm.
 Atom     1 has atomic number  6 and mass  12.00000

 Molecular mass:   152.15650 amu.
 Principal axes and moments of inertia in atomic units:
                           1         2         3
     Eigenvalues --  1310.871382852.041453621.42782
           X            0.99992  -0.01194  -0.00486
           Y            0.01187   0.99983  -0.01377
           Z            0.00502   0.01371   0.99989
 This molecule is an asymmetric top.
 Rotational symmetry number  1.
 Warning -- assumption of classical behavior for rotation
           may cause significant error
 Rotational temperatures (Kelvin)      0.06607     0.03037     0.02392
 Rotational constants (GHZ):           1.37675     0.63279     0.49835
 Zero-point vibrational energy     755995.8 (Joules/Mol)
                                  180.68733 (Kcal/Mol)
 Warning -- explicit consideration of  17 degrees of freedom as
           vibrations may cause significant error
 Vibrational temperatures:     37.70    63.45    97.71   145.98   174.63
          (Kelvin)            186.62   233.74   279.41   350.11   394.85
                              453.09   530.91   538.30   609.36   661.72
                              741.12   797.71   945.02  1079.50  1112.33
                             1154.10  1182.54  1244.22  1266.16  1303.73
                             1310.47  1320.90  1353.86  1401.87  1415.61
                             1434.03  1492.92  1521.10  1551.59  1570.08
                             1595.38  1618.75  1622.61  1673.68  1738.55
                             1747.81  1788.55  1825.22  1834.98  1841.36
                             1854.26  1862.88  1884.74  1891.58  1939.44
                             1972.60  1998.58  2018.01  2045.02  2074.99
                             2078.45  2163.59  2170.35  2174.95  2180.39
                             2185.90  2193.80  2196.40  2204.92  2215.58
                             2220.31  2517.48  4334.28  4337.91  4357.78
                             4370.22  4380.02  4389.76  4397.88  4410.95
                             4417.27  4423.41  4429.21  4435.62  4456.00
                             4470.04  4473.50  4480.38  4487.11  4491.66
                             4501.14  4519.08

 Zero-point correction=                           0.287944 (Hartree/Particle)
 Thermal correction to Energy=                    0.300903
 Thermal correction to Enthalpy=                  0.301848
 Thermal correction to Gibbs Free Energy=         0.247422
 Sum of electronic and zero-point Energies=           -430.942853
 Sum of electronic and thermal Energies=              -430.929893
 Sum of electronic and thermal Enthalpies=            -430.928949
 Sum of electronic and thermal Free Energies=         -430.983375

                     E (Thermal)             CV                S
                      KCal/Mol        Cal/Mol-Kelvin    Cal/Mol-Kelvin
 Total                  188.820             47.879            114.549
 Electronic               0.000              0.000              0.000
 Translational            0.889              2.981             40.969
 Rotational               0.889              2.981             30.982
 Vibrational            187.042             41.918             42.598
 Vibration     1          0.593              1.985              6.098
 Vibration     2          0.595              1.980              5.066
 Vibration     3          0.598              1.970              4.213
 Vibration     4          0.604              1.948              3.426
 Vibration     5          0.609              1.931              3.078
 Vibration     6          0.612              1.924              2.950
 Vibration     7          0.623              1.888              2.521
 Vibration     8          0.635              1.848              2.187
 Vibration     9          0.659              1.774              1.778
 Vibration    10          0.677              1.721              1.568
 Vibration    11          0.702              1.645              1.336
 Vibration    12          0.741              1.536              1.084
 Vibration    13          0.745              1.525              1.063
 Vibration    14          0.786              1.419              0.880
 Vibration    15          0.818              1.339              0.766
 Vibration    16          0.870              1.217              0.621
 Vibration    17          0.910              1.130              0.535

 Optimization completed.
    -- Stationary point found.
 Normal termination of Gaussian 16 at Tue Dec  8 21:20:52 2020.

 ----------------------------------------------------------------------
 # B3LYP/6-311++G(d,p) empiricaldispersion=gd3bj scf=xqc pop=npa geom=c
 heck
 ----------------------------------------------------------------------

 ---------------------------------------
 CID_123527915_JID_1655_Energie_neutraal
 ---------------------------------------
 Structure from the checkpoint file:  "JID_1655.chk"
 Charge =  0 Multiplicity = 1

 SCF Done:  E(RB3LYP) =  -431.347912335     A.U. after   13 cycles
 Normal termination of Gaussian 16 at Tue Dec  8 21:23:57 2020.

 ----------------------------------------------------------------------
 # B3LYP/6-311++G(d,p) empiricaldispersion=gd3bj scf=xqc pop=npa geom=c
 heck
 ----------------------------------------------------------------------

 -------------------------------------
 CID_123527915_JID_1655_Energie_kation
 -------------------------------------
 Structure from the checkpoint file:  "JID_1655.chk"
 Charge =  1 Multiplicity = 2

 SCF Done:  E(UB3LYP) =  -431.042067510     A.U. after   18 cycles
 Normal termination of Gaussian 16 at Tue Dec  8 21:29:20 2020.
 Gaussian 16:  ES64L-G16RevA.03 25-Dec-2016

 ----------------------------------------------------------------------
 # B3LYP/6-311++G(d,p) empiricaldispersion=gd3bj scf=xqc pop=npa geom=c
 heck
 ----------------------------------------------------------------------

 ------------------------------------
 CID_123527915_JID_1655_Energie_anion
 ------------------------------------
 Structure from the checkpoint file:  "JID_1655.chk"
 Charge = -1 Multiplicity = 2

                         Standard orientation:
 ---------------------------------------------------------------------
 Center     Atomic      Atomic             Coordinates (Angstroms)
 Number     Number       Type             X           Y           Z
 ---------------------------------------------------------------------
      1          6           0        3.582810   -1.155047   -0.700953
      2          6           0        2.400595   -1.414635    0.236546
      3          6           0        1.973772   -0.182814    1.063233
      4          6           0        1.530870    0.983370    0.223172
      5          6           0        0.299698    1.502456    0.097368
      6          6           0        0.056640    2.678393   -0.818315
      7          6           0       -0.927470    0.987504    0.816707
      8          6           0       -1.884946    0.222488   -0.099540
      9          6           0       -1.442434   -1.154775   -0.661633
     10          6           0       -2.894843   -1.659597   -0.456689
     11          6           0       -3.118184   -0.482856    0.529229
     12          1           0        3.331761   -0.413310   -1.466746
     13          1           0        3.886587   -2.073145   -1.216121
     14          1           0        4.452069   -0.780379   -0.145812
     15          1           0        1.540863   -1.764445   -0.348267
     16          1           0        2.659872   -2.225294    0.930753
     17          1           0        1.185624   -0.484821    1.760667
     18          1           0        2.830691    0.128576    1.680232
     19          1           0        2.324787    1.453220   -0.358401
     20          1           0       -0.669691    2.434502   -1.604960
     21          1           0       -0.361232    3.529845   -0.263205
     22          1           0        0.978823    3.009204   -1.305842
     23          1           0       -0.650179    0.331910    1.649073
     24          1           0       -1.469498    1.838030    1.257717
     25          1           0       -2.215371    0.866809   -0.923471
     26          1           0       -1.016976   -1.186883   -1.669240
     27          1           0       -0.746639   -1.649870    0.025002
     28          1           0       -3.031699   -2.676300   -0.075784
     29          1           0       -3.495663   -1.544394   -1.365008
     30          1           0       -2.914287   -0.781477    1.564502
     31          1           0       -4.078895    0.041288    0.500166
 ---------------------------------------------------------------------

 SCF Done:  E(UB3LYP) =  -431.329822464     A.U. after   33 cycles
 SCF Done:  E(UB3LYP) =  -431.329822464     a.u. after    1 cycles

 The electronic state is 2-A.
 Alpha  occ. eigenvalues --  -10.07263 -10.07096 -10.06600 -10.06594 -10.06543
 Alpha  occ. eigenvalues --  -10.06443 -10.06388 -10.06061 -10.05990 -10.05765
 Alpha  occ. eigenvalues --  -10.05503  -0.74958  -0.71457  -0.67954  -0.61657
 Alpha  occ. eigenvalues --   -0.60463  -0.55647  -0.55070  -0.52104  -0.48198
 Alpha  occ. eigenvalues --   -0.44680  -0.41417  -0.38468  -0.36709  -0.36036
 Alpha  occ. eigenvalues --   -0.35611  -0.32773  -0.32407  -0.30522  -0.29811
 Alpha  occ. eigenvalues --   -0.28794  -0.28411  -0.27195  -0.27056  -0.25099
 Alpha  occ. eigenvalues --   -0.24201  -0.23692  -0.23203  -0.21826  -0.21711
 Alpha  occ. eigenvalues --   -0.20113  -0.19666  -0.13472   0.04656
 Alpha virt. eigenvalues --    0.06525   0.06942   0.07681   0.08608   0.08814
 Alpha virt. eigenvalues --    0.08980   0.09801   0.09921   0.10976   0.11341
 Alpha virt. eigenvalues --    0.11634   0.12001   0.12463   0.13049   0.13079

  Beta  occ. eigenvalues --  -10.07257 -10.07083 -10.06589 -10.06582 -10.06525
  Beta  occ. eigenvalues --  -10.06425 -10.06372 -10.06048 -10.05960 -10.05758
  Beta  occ. eigenvalues --  -10.05472  -0.74933  -0.71436  -0.67924  -0.61627
  Beta  occ. eigenvalues --   -0.60419  -0.55601  -0.55017  -0.52054  -0.48139
  Beta  occ. eigenvalues --   -0.44626  -0.41378  -0.38415  -0.36678  -0.36003
  Beta  occ. eigenvalues --   -0.35577  -0.32740  -0.32378  -0.30486  -0.29778
  Beta  occ. eigenvalues --   -0.28760  -0.28381  -0.27156  -0.27025  -0.25066
  Beta  occ. eigenvalues --   -0.24169  -0.23663  -0.23176  -0.21795  -0.21673
  Beta  occ. eigenvalues --   -0.20082  -0.19639  -0.13446
  Beta virt. eigenvalues --    0.06740   0.07422   0.07533   0.08116   0.09096
  Beta virt. eigenvalues --    0.09298   0.09410   0.10146   0.10345   0.11462
  Beta virt. eigenvalues --    0.11678   0.11892   0.12374   0.12787   0.13353

 Mulliken charges and spin densities:
               1          2
     1  C    1.118874  -1.791897
     2  C   -0.994758   0.836600
     3  C    0.255844  -0.321383
     4  C    1.387005  -2.086797
     5  C   -1.741162   2.871381
     6  C    0.501023  -1.064762
     7  C    0.941680  -1.730080
     8  C   -1.357181   1.695789
     9  C    0.100412  -0.479738
    10  C    0.548394  -0.879308
    11  C    0.733922  -1.341921
    12  H   -0.297795   0.454135
    13  H   -0.428802   0.564916
    14  H   -0.032202   0.161184
    15  H    0.089146   0.030377
    16  H   -0.469050   0.624956
    17  H    0.017471   0.090288
    18  H   -0.193206   0.348345
    19  H    0.263380  -0.110357
    20  H   -0.339186   0.501175
    21  H   -0.079913   0.222983
    22  H   -0.414972   0.558760
    23  H   -0.009043   0.154579
    24  H    0.076111   0.074174
    25  H   -0.022311   0.188935
    26  H   -0.164538   0.321600
    27  H    0.102939  -0.024559
    28  H   -0.146002   0.285315
    29  H   -0.136449   0.273454
    30  H   -0.004941   0.120596
    31  H   -0.304689   0.451259
 Sum of Mulliken charges =  -1.00000   1.00000

 Dipole moment (field-independent basis, Debye):
    X=             -1.1052    Y=              0.5370    Z=              2.6473  Tot=              2.9186
 Quadrupole moment (field-independent basis, Debye-Ang):
   XX=           -146.4283   YY=           -120.1885   ZZ=           -108.4722
   XY=              6.8440   XZ=             -0.3307   YZ=              3.2880

 Summary of Natural Population Analysis:

                                       Natural Population
                Natural  -----------------------------------------------
    Atom  No    Charge         Core      Valence    Rydberg      Total
 -----------------------------------------------------------------------
      C    1   -0.28508      0.99967     2.28110    0.00431     3.28508
      C    2   -0.18646      0.99963     2.17869    0.00814     3.18646
      C    3   -0.20302      0.99961     2.19446    0.00895     3.20302
      C    4   -0.09712      0.99944     2.08786    0.00981     3.09712
      C    5   -0.00380      0.99949     1.99327    0.01104     3.00380
      C    6   -0.29366      0.99962     2.28819    0.00585     3.29366
      C    7   -0.20259      0.99956     2.19355    0.00947     3.20259
      C    8   -0.10493      0.99959     2.09392    0.01142     3.10493
      C    9   -0.18735      0.99962     2.17864    0.00909     3.18735
      C   10   -0.18748      0.99965     2.18076    0.00707     3.18748
      C   11   -0.18490      0.99963     2.17679    0.00848     3.18490
      H   12    0.09786      0.00000     0.40078    0.00136     0.40214
      H   13    0.09924      0.00000     0.39943    0.00133     0.40076
      H   14    0.09370      0.00000     0.40482    0.00148     0.40630
      H   15    0.09527      0.00000     0.40289    0.00184     0.40473
      H   16    0.09296      0.00000     0.40564    0.00140     0.40704
      H   17    0.09826      0.00000     0.40028    0.00146     0.40174
      H   18    0.09677      0.00000     0.40204    0.00119     0.40323
      H   19    0.09185      0.00000     0.40691    0.00124     0.40815
      H   20    0.10305      0.00000     0.39541    0.00154     0.39695
      H   21    0.09864      0.00000     0.40026    0.00110     0.40136
      H   22    0.10186      0.00000     0.39709    0.00105     0.39814
      H   23    0.09843      0.00000     0.39985    0.00172     0.40157
      H   24    0.10025      0.00000     0.39847    0.00128     0.39975
      H   25    0.09702      0.00000     0.40121    0.00177     0.40298
      H   26    0.09914      0.00000     0.39959    0.00127     0.40086
      H   27    0.09448      0.00000     0.40378    0.00173     0.40552
      H   28    0.09304      0.00000     0.40581    0.00115     0.40696
      H   29    0.09540      0.00000     0.40288    0.00172     0.40460
      H   30    0.09243      0.00000     0.40626    0.00131     0.40757
      H   31    0.09674      0.00000     0.40197    0.00129     0.40326
 =======================================================================
   * Total *    0.00000     10.99552    31.88262    0.12186    43.00000

 Normal termination of Gaussian 16 at Tue Dec  8 21:40:15 2020.
