 Gaussian 16, Revision A.03,

 -----------------------------------------------------------
 # opt freq B3LYP/6-31G(d) empiricaldispersion=gd3bj scf=xqc
 -----------------------------------------------------------

 ------------------------------
 CID_54274012_JID_7816_neutraal
 ------------------------------
 Symbolic Z-matrix:
 Charge =  0 Multiplicity = 1

 SCF Done:  E(RB3LYP) =  -1122.69449134     A.U. after   15 cycles
 SCF Done:  E(RB3LYP) =  -1122.69955347     A.U. after   12 cycles
 SCF Done:  E(RB3LYP) =  -1122.70022479     A.U. after   12 cycles
 SCF Done:  E(RB3LYP) =  -1122.70061304     A.U. after   12 cycles
 SCF Done:  E(RB3LYP) =  -1122.70076205     A.U. after   11 cycles
 SCF Done:  E(RB3LYP) =  -1122.70086913     A.U. after   11 cycles
 SCF Done:  E(RB3LYP) =  -1122.70099311     A.U. after   12 cycles
 SCF Done:  E(RB3LYP) =  -1122.70102067     A.U. after   11 cycles
 SCF Done:  E(RB3LYP) =  -1122.70105781     A.U. after   12 cycles
 SCF Done:  E(RB3LYP) =  -1122.70106215     A.U. after   10 cycles
 SCF Done:  E(RB3LYP) =  -1122.70107689     A.U. after    7 cycles
 SCF Done:  E(RB3LYP) =  -1122.70107708     A.U. after    7 cycles
 SCF Done:  E(RB3LYP) =  -1122.70107720     A.U. after    7 cycles
 SCF Done:  E(RB3LYP) =  -1122.70107725     A.U. after    7 cycles
 SCF Done:  E(RB3LYP) =  -1122.70107729     A.U. after    7 cycles
 Optimization completed.
    -- Stationary point found.
 Normal termination of Gaussian 16 at Fri Dec 11 13:27:30 2020.

 --------------------------------------------------------------------
 #N Geom=AllCheck Guess=TCheck SCRF=Check GenChk RB3LYP/6-31G(d) Freq
 --------------------------------------------------------------------

 Structure from the checkpoint file:  "JID_7816.chk"
 ------------------------------
 CID_54274012_JID_7816_neutraal
 ------------------------------
 Charge =  0 Multiplicity = 1

 SCF Done:  E(RB3LYP) =  -1122.70107729     A.U. after    1 cycles

  Exact polarizability: 199.989   1.432 134.904 -11.758  -8.055 129.336
 Approx polarizability: 274.824   9.659 219.487 -28.710 -19.298 225.851

                      1                      2                      3
                      A                      A                      A
 Frequencies --     24.3861                27.1808                37.6657
 Red. masses --      2.0688                 6.3460                 1.5292
 Frc consts  --      0.0007                 0.0028                 0.0013
 IR Inten    --      0.6179                 0.2477                 1.2172

                      4                      5                      6
                      A                      A                      A
 Frequencies --     42.5723                91.3468               143.8534
 Red. masses --      3.8170                 6.0766                 3.3980
 Frc consts  --      0.0041                 0.0299                 0.0414
 IR Inten    --      2.3771                 1.6166                 2.6257

                      7                      8                      9
                      A                      A                      A
 Frequencies --    168.6774               178.8540               205.9254
 Red. masses --      4.8341                 2.2817                 2.5952
 Frc consts  --      0.0810                 0.0430                 0.0648
 IR Inten    --      7.1681                63.0139                22.7980

                     10                     11                     12
                      A                      A                      A
 Frequencies --    227.3464               240.8549               260.1796
 Red. masses --      3.3646                 4.0888                 4.3759
 Frc consts  --      0.1025                 0.1398                 0.1745
 IR Inten    --     18.9330                27.0588                 1.6828

                     13                     14                     15
                      A                      A                      A
 Frequencies --    306.2655               333.9647               358.2124
 Red. masses --      5.5330                 4.1102                 2.8511
 Frc consts  --      0.3058                 0.2701                 0.2155
 IR Inten    --      5.8326                14.9696                13.7114

                     16                     17                     18
                      A                      A                      A
 Frequencies --    382.6701               416.1041               425.8836
 Red. masses --      3.1492                 3.0434                 1.7703
 Frc consts  --      0.2717                 0.3105                 0.1892
 IR Inten    --      9.3756                 0.1680                56.5411

                     19                     20                     21
                      A                      A                      A
 Frequencies --    458.2218               509.7305               547.5010
 Red. masses --      8.7403                 3.3618                 4.7404
 Frc consts  --      1.0813                 0.5146                 0.8372
 IR Inten    --      8.8266                 7.3691                12.7871

                     22                     23                     24
                      A                      A                      A
 Frequencies --    609.2957               614.3282               640.4849
 Red. masses --      6.4850                 5.0282                 6.1824
 Frc consts  --      1.4185                 1.1181                 1.4943
 IR Inten    --      4.8292                12.5805                15.7942

                     25                     26                     27
                      A                      A                      A
 Frequencies --    649.4275               660.8534               703.6426
 Red. masses --      7.7428                 6.5644                 4.9488
 Frc consts  --      1.9240                 1.6891                 1.4436
 IR Inten    --     12.9914                 0.3668                 7.2193

                     28                     29                     30
                      A                      A                      A
 Frequencies --    718.5069               724.6590               749.4195
 Red. masses --      4.6479                 8.1966                 2.8605
 Frc consts  --      1.4137                 2.5360                 0.9465
 IR Inten    --     19.2258                10.9600                21.1447

                     31                     32                     33
                      A                      A                      A
 Frequencies --    774.7410               807.2875               838.0394
 Red. masses --      4.5499                 4.8098                 1.6054
 Frc consts  --      1.6090                 1.8468                 0.6643
 IR Inten    --     19.0665                10.0848                 9.4704

                     34                     35                     36
                      A                      A                      A
 Frequencies --    854.2434               862.5605               922.1722
 Red. masses --      1.2701                 4.7333                 1.6239
 Frc consts  --      0.5461                 2.0749                 0.8137
 IR Inten    --      0.0691                16.6001                 4.5398

                     37                     38                     39
                      A                      A                      A
 Frequencies --    961.3861               964.9576               991.5748
 Red. masses --      1.3259                 1.2899                 3.1895
 Frc consts  --      0.7220                 0.7077                 1.8476
 IR Inten    --      0.1935                 0.6278                 0.8628

                     40                     41                     42
                      A                      A                      A
 Frequencies --   1022.1183              1043.4047              1075.9715
 Red. masses --      1.4213                 2.8262                 1.5249
 Frc consts  --      0.8748                 1.8128                 1.0402
 IR Inten    --      0.5956                 2.8086                12.5413

                     43                     44                     45
                      A                      A                      A
 Frequencies --   1115.0190              1133.6889              1153.5891
 Red. masses --      2.7000                 1.6888                 1.3215
 Frc consts  --      1.9778                 1.2788                 1.0361
 IR Inten    --      7.0636                34.8914                 4.1912

                     46                     47                     48
                      A                      A                      A
 Frequencies --   1166.5464              1191.1645              1213.7739
 Red. masses --      1.5490                 2.0096                 1.5890
 Frc consts  --      1.2419                 1.6799                 1.3793
 IR Inten    --      9.3102                15.9629               129.5719

                     49                     50                     51
                      A                      A                      A
 Frequencies --   1221.1041              1236.7829              1247.3549
 Red. masses --      1.2299                 2.5389                 2.6998
 Frc consts  --      1.0805                 2.2881                 2.4749
 IR Inten    --     14.5006                 2.7708                 1.0450

                     52                     53                     54
                      A                      A                      A
 Frequencies --   1270.0475              1313.2165              1340.6195
 Red. masses --      1.4447                 2.0772                 1.8341
 Frc consts  --      1.3730                 2.1105                 1.9422
 IR Inten    --     17.1811                12.5991                26.9885

                     55                     56                     57
                      A                      A                      A
 Frequencies --   1354.8641              1359.6456              1399.9812
 Red. masses --      2.0212                 3.3808                 2.2211
 Frc consts  --      2.1860                 3.6823                 2.5649
 IR Inten    --      0.8152                11.9683               103.6201

                     58                     59                     60
                      A                      A                      A
 Frequencies --   1407.6677              1442.9460              1464.5533
 Red. masses --      5.5529                 1.2483                 2.4021
 Frc consts  --      6.4829                 1.5314                 3.0356
 IR Inten    --    243.8835                 0.0647                 6.8191

                     61                     62                     63
                      A                      A                      A
 Frequencies --   1511.6093              1513.6791              1517.6727
 Red. masses --      1.3732                 2.2682                 1.0498
 Frc consts  --      1.8487                 3.0620                 1.4246
 IR Inten    --     14.9697                30.8947                 5.7455

                     64                     65                     66
                      A                      A                      A
 Frequencies --   1523.8449              1567.1311              1638.5987
 Red. masses --      1.1078                 2.5034                 5.7765
 Frc consts  --      1.5156                 3.6223                 9.1383
 IR Inten    --      9.9586                16.4164                 0.8732

                     67                     68                     69
                      A                      A                      A
 Frequencies --   1678.1565              1759.8739              1847.6148
 Red. masses --      5.8093                 9.3360                11.3801
 Frc consts  --      9.6392                17.0363                22.8887
 IR Inten    --      2.3688               257.9813               554.5216

                     70                     71                     72
                      A                      A                      A
 Frequencies --   3042.6880              3055.3060              3099.2716
 Red. masses --      1.0399                 1.0628                 1.0965
 Frc consts  --      5.6721                 5.8456                 6.2057
 IR Inten    --     34.9796                26.9273                20.6120

                     73                     74                     75
                      A                      A                      A
 Frequencies --   3111.9474              3113.3960              3125.9427
 Red. masses --      1.0983                 1.0900                 1.1025
 Frc consts  --      6.2668                 6.2250                 6.3475
 IR Inten    --      7.2733                 4.2347                16.3813

                     76                     77                     78
                      A                      A                      A
 Frequencies --   3173.2884              3180.0032              3190.8097
 Red. masses --      1.0867                 1.0884                 1.0944
 Frc consts  --      6.4475                 6.4845                 6.5648
 IR Inten    --     12.6545                17.3134                23.8239

                     79                     80                     81
                      A                      A                      A
 Frequencies --   3207.4606              3676.7066              3766.7720
 Red. masses --      1.0924                 1.0803                 1.0661
 Frc consts  --      6.6216                 8.6044                 8.9122
 IR Inten    --      8.5744                98.9303                52.6044

 - Thermochemistry -
 -------------------
 Temperature   298.150 Kelvin.  Pressure   1.00000 Atm.
 Atom     1 has atomic number  6 and mass  12.00000

 Molecular mass:   248.06195 amu.
 Principal axes and moments of inertia in atomic units:
                           1         2         3
     Eigenvalues --  2339.199306812.602597374.37093
           X            0.99993  -0.01151   0.00212
           Y            0.01157   0.99947  -0.03052
           Z           -0.00177   0.03054   0.99953
 This molecule is an asymmetric top.
 Rotational symmetry number  1.
 Warning -- assumption of classical behavior for rotation
           may cause significant error
 Rotational temperatures (Kelvin)      0.03703     0.01271     0.01175
 Rotational constants (GHZ):           0.77152     0.26491     0.24473
 Zero-point vibrational energy     591618.0 (Joules/Mol)
                                  141.40010 (Kcal/Mol)
 Warning -- explicit consideration of  23 degrees of freedom as
           vibrations may cause significant error
 Vibrational temperatures:     35.09    39.11    54.19    61.25   131.43
          (Kelvin)            206.97   242.69   257.33   296.28   327.10
                              346.54   374.34   440.65   480.50   515.39
                              550.58   598.68   612.75   659.28   733.39
                              787.73   876.64   883.88   921.51   934.38
                              950.82  1012.38  1033.77  1042.62  1078.25
                             1114.68  1161.51  1205.75  1229.07  1241.03
                             1326.80  1383.22  1388.36  1426.65  1470.60
                             1501.23  1548.08  1604.26  1631.13  1659.76
                             1678.40  1713.82  1746.35  1756.90  1779.45
                             1794.67  1827.32  1889.43  1928.85  1949.35
                             1956.23  2014.26  2025.32  2076.08  2107.17
                             2174.87  2177.85  2183.59  2192.47  2254.75
                             2357.58  2414.49  2532.07  2658.31  4377.75
                             4395.90  4459.16  4477.40  4479.48  4497.53
                             4565.65  4575.32  4590.86  4614.82  5289.96
                             5419.54

 Zero-point correction=                           0.225335 (Hartree/Particle)
 Thermal correction to Energy=                    0.241036
 Thermal correction to Enthalpy=                  0.241980
 Thermal correction to Gibbs Free Energy=         0.179823
 Sum of electronic and zero-point Energies=          -1122.475742
 Sum of electronic and thermal Energies=             -1122.460041
 Sum of electronic and thermal Enthalpies=           -1122.459097
 Sum of electronic and thermal Free Energies=        -1122.521254

                     E (Thermal)             CV                S
                      KCal/Mol        Cal/Mol-Kelvin    Cal/Mol-Kelvin
 Total                  151.252             58.702            130.820
 Electronic               0.000              0.000              0.000
 Translational            0.889              2.981             42.426
 Rotational               0.889              2.981             33.130
 Vibrational            149.475             52.740             55.264
 Vibration     1          0.593              1.985              6.241
 Vibration     2          0.593              1.984              6.025
 Vibration     3          0.594              1.982              5.378
 Vibration     4          0.595              1.980              5.136
 Vibration     5          0.602              1.955              3.631
 Vibration     6          0.616              1.909              2.752
 Vibration     7          0.625              1.881              2.450
 Vibration     8          0.629              1.868              2.340
 Vibration     9          0.640              1.831              2.080
 Vibration    10          0.651              1.799              1.900
 Vibration    11          0.658              1.778              1.797
 Vibration    12          0.668              1.746              1.661
 Vibration    13          0.697              1.662              1.382
 Vibration    14          0.715              1.608              1.241
 Vibration    15          0.733              1.558              1.130
 Vibration    16          0.752              1.507              1.029
 Vibration    17          0.779              1.435              0.905
 Vibration    18          0.788              1.414              0.872
 Vibration    19          0.816              1.343              0.771
 Vibration    20          0.865              1.228              0.634
 Vibration    21          0.903              1.145              0.549
 Vibration    22          0.968              1.012              0.434
 Vibration    23          0.974              1.002              0.426

                           ! Non-Optimized Parameters !
 Normal termination of Gaussian 16 at Fri Dec 11 13:38:01 2020.

 ----------------------------------------------------------------------
 # B3LYP/6-311++G(d,p) empiricaldispersion=gd3bj scf=xqc pop=npa geom=c
 heck
 ----------------------------------------------------------------------

 --------------------------------------
 CID_54274012_JID_7816_Energie_neutraal
 --------------------------------------
 Structure from the checkpoint file:  "JID_7816.chk"
 Charge =  0 Multiplicity = 1

 SCF Done:  E(RB3LYP) =  -1122.93515179     A.U. after   17 cycles
 Normal termination of Gaussian 16 at Fri Dec 11 13:42:36 2020.

 ----------------------------------------------------------------------
 # B3LYP/6-311++G(d,p) empiricaldispersion=gd3bj scf=xqc pop=npa geom=c
 heck
 ----------------------------------------------------------------------

 ------------------------------------
 CID_54274012_JID_7816_Energie_kation
 ------------------------------------
 Structure from the checkpoint file:  "JID_7816.chk"
 Charge =  1 Multiplicity = 2

 SCF Done:  E(UB3LYP) =  -1122.66535587     A.U. after   29 cycles
 Normal termination of Gaussian 16 at Fri Dec 11 13:53:18 2020.
 Gaussian 16:  ES64L-G16RevA.03 25-Dec-2016

 ----------------------------------------------------------------------
 # B3LYP/6-311++G(d,p) empiricaldispersion=gd3bj scf=xqc pop=npa geom=c
 heck
 ----------------------------------------------------------------------

 -----------------------------------
 CID_54274012_JID_7816_Energie_anion
 -----------------------------------
 Structure from the checkpoint file:  "JID_7816.chk"
 Charge = -1 Multiplicity = 2

                         Standard orientation:
 ---------------------------------------------------------------------
 Center     Atomic      Atomic             Coordinates (Angstroms)
 Number     Number       Type             X           Y           Z
 ---------------------------------------------------------------------
      1          6           0        5.107091   -0.892258    0.998206
      2          6           0        3.743085   -0.479172    0.502568
      3          6           0        3.604270    0.297268   -0.655786
      4          6           0        2.347253    0.652416   -1.133964
      5          6           0        1.189277    0.245380   -0.464072
      6          6           0        1.317433   -0.531383    0.689296
      7          6           0        2.579507   -0.884303    1.164615
      8          6           0       -0.160925    0.682744   -0.978306
      9          7           0       -1.256311   -0.133980   -0.519470
     10          6           0       -2.048961    0.349432    0.544625
     11          6           0       -3.047844   -0.548179    0.702813
     12          7           0       -2.857743   -1.572680   -0.219043
     13          6           0       -1.755025   -1.309692   -1.048789
     14          8           0       -1.348390   -1.961940   -1.996296
     15          8           0       -4.112901   -0.641127    1.537151
     16          6           0       -1.586331    1.664149    1.069157
     17         16           0       -0.646659    2.393692   -0.361699
     18          1           0        5.473225   -1.776567    0.460228
     19          1           0        5.844653   -0.095841    0.851280
     20          1           0        5.086102   -1.143336    2.063522
     21          1           0        4.493247    0.621944   -1.191225
     22          1           0        2.262940    1.257066   -2.034043
     23          1           0        0.428094   -0.873018    1.209653
     24          1           0        2.661277   -1.491288    2.063101
     25          1           0       -0.163751    0.727329   -2.070180
     26          1           0       -3.512984   -2.317152   -0.401510
     27          1           0       -4.151515    0.160304    2.081072
     28          1           0       -0.916571    1.577172    1.932281
     29          1           0       -2.402436    2.347051    1.323576
 ---------------------------------------------------------------------

 SCF Done:  E(UB3LYP) =  -1122.93614502     A.U. after   33 cycles
 SCF Done:  E(UB3LYP) =  -1122.93614502     a.u. after    1 cycles

 The electronic state is 2-A.
 Alpha  occ. eigenvalues --  -88.73328 -19.05151 -18.98002 -14.25232 -14.24963
 Alpha  occ. eigenvalues --  -10.19071 -10.15774 -10.14541 -10.09967 -10.09380
 Alpha  occ. eigenvalues --  -10.09145 -10.09119 -10.08583 -10.08319 -10.07953
 Alpha  occ. eigenvalues --  -10.07887 -10.07832  -7.81896  -5.78297  -5.77988
 Alpha  occ. eigenvalues --   -5.77229  -0.97426  -0.94863  -0.88375  -0.82107
 Alpha  occ. eigenvalues --   -0.76897  -0.70331  -0.68818  -0.66009  -0.65527
 Alpha  occ. eigenvalues --   -0.60877  -0.58106  -0.54298  -0.51974  -0.51049
 Alpha  occ. eigenvalues --   -0.50641  -0.47502  -0.42684  -0.42499  -0.40859
 Alpha  occ. eigenvalues --   -0.39393  -0.37005  -0.36661  -0.35290  -0.34298
 Alpha  occ. eigenvalues --   -0.33774  -0.33217  -0.33000  -0.32438  -0.31440
 Alpha  occ. eigenvalues --   -0.30504  -0.29023  -0.28671  -0.28423  -0.26264
 Alpha  occ. eigenvalues --   -0.25466  -0.25044  -0.23649  -0.20180  -0.18399
 Alpha  occ. eigenvalues --   -0.17179  -0.16474  -0.15222  -0.12081  -0.08280
 Alpha  occ. eigenvalues --    0.04071
 Alpha virt. eigenvalues --    0.05989   0.06453   0.07346   0.07805   0.08519
 Alpha virt. eigenvalues --    0.08881   0.09458   0.09803   0.10474   0.11247
 Alpha virt. eigenvalues --    0.11654   0.12028   0.12543   0.13216   0.13745

  Beta  occ. eigenvalues --  -88.73288 -19.05029 -18.98000 -14.25227 -14.24963
  Beta  occ. eigenvalues --  -10.19059 -10.15748 -10.14517 -10.09844 -10.09382
  Beta  occ. eigenvalues --  -10.09138 -10.09089 -10.08552 -10.08329 -10.07897
  Beta  occ. eigenvalues --  -10.07876 -10.07806  -7.81860  -5.78168  -5.77966
  Beta  occ. eigenvalues --   -5.77207  -0.97254  -0.94771  -0.88342  -0.82055
  Beta  occ. eigenvalues --   -0.76827  -0.70247  -0.68683  -0.65943  -0.65456
  Beta  occ. eigenvalues --   -0.60793  -0.58005  -0.54165  -0.51905  -0.50903
  Beta  occ. eigenvalues --   -0.50517  -0.47445  -0.42573  -0.42431  -0.40809
  Beta  occ. eigenvalues --   -0.39344  -0.36951  -0.36604  -0.35228  -0.34237
  Beta  occ. eigenvalues --   -0.33713  -0.33132  -0.32966  -0.32373  -0.31366
  Beta  occ. eigenvalues --   -0.30471  -0.28833  -0.28541  -0.28322  -0.26208
  Beta  occ. eigenvalues --   -0.25249  -0.25007  -0.23464  -0.20105  -0.18363
  Beta  occ. eigenvalues --   -0.17163  -0.16269  -0.14993  -0.11947  -0.08211
  Beta virt. eigenvalues --    0.05903   0.06906   0.07398   0.07676   0.07907
  Beta virt. eigenvalues --    0.08814   0.08954   0.09692   0.09936   0.11133
  Beta virt. eigenvalues --    0.11430   0.11999   0.12251   0.12610   0.13351

 Mulliken charges and spin densities:
               1          2
     1  C   -0.375025  -0.156511
     2  C    0.612575  -0.016930
     3  C   -0.558508   0.036532
     4  C   -0.519377   0.043927
     5  C    1.379890   0.135715
     6  C   -0.708394  -0.008400
     7  C   -0.495873  -0.283944
     8  C   -0.701387   0.436651
     9  N    0.199140  -0.053012
    10  C   -1.724535   2.128843
    11  C   -0.066459  -0.024969
    12  N   -0.137241  -0.175819
    13  C    0.418346  -0.107076
    14  O   -0.411418   0.000414
    15  O   -0.274549   0.008337
    16  C    2.666342  -3.669015
    17  S   -0.187885   0.101606
    18  H    0.131559   0.023889
    19  H    0.121864   0.008749
    20  H    0.140226  -0.003391
    21  H    0.122962   0.008812
    22  H    0.118226  -0.005644
    23  H    0.143156   0.039599
    24  H    0.057502   0.091576
    25  H    0.303742   0.022291
    26  H    0.277926   0.069344
    27  H   -0.828448   1.160259
    28  H   -0.046084   0.272151
    29  H   -0.658273   0.916016
 Sum of Mulliken charges =  -1.00000   1.00000

 Dipole moment (field-independent basis, Debye):
    X=              9.4426    Y=             -2.4240    Z=             -3.4940  Tot=             10.3560
 Quadrupole moment (field-independent basis, Debye-Ang):
   XX=           -166.7823   YY=           -141.2129   ZZ=           -143.1248
   XY=             12.4131   XZ=             21.5206   YZ=            -14.2396

 Summary of Natural Population Analysis:

                                       Natural Population
                Natural  -----------------------------------------------
    Atom  No    Charge         Core      Valence    Rydberg      Total
 -----------------------------------------------------------------------
      C    1   -0.29163      0.99964     2.28701    0.00498     3.29163
      C    2   -0.01797      0.99952     2.01058    0.00787     3.01797
      C    3   -0.10300      0.99952     2.09564    0.00783     3.10300
      C    4   -0.08219      0.99952     2.07503    0.00764     3.08219
      C    5   -0.02489      0.99948     2.01418    0.01123     3.02489
      C    6   -0.09599      0.99951     2.08712    0.00936     3.09599
      C    7   -0.09150      0.99952     2.08341    0.00857     3.09150
      C    8   -0.04485      0.99950     2.02901    0.01634     3.04485
      N    9   -0.24992      0.99959     2.73952    0.01081     3.74992
      C   10    0.00534      0.99946     1.98044    0.01476     2.99466
      C   11    0.24001      0.99931     1.74495    0.01573     2.75999
      N   12   -0.31347      0.99966     2.80568    0.00814     3.81347
      C   13    0.39671      0.99968     1.58026    0.02334     2.60329
      O   14   -0.34126      0.99987     3.33642    0.00497     4.34126
      O   15   -0.33930      0.99987     3.33304    0.00639     4.33930
      C   16   -0.24616      0.99957     2.23489    0.01170     3.24616
      S   17    0.10213      4.99967     2.88306    0.01514     7.89787
      H   18    0.10137      0.00000     0.39736    0.00128     0.39863
      H   19    0.09961      0.00000     0.39944    0.00095     0.40039
      H   20    0.10050      0.00000     0.39860    0.00090     0.39950
      H   21    0.09396      0.00000     0.40479    0.00125     0.40604
      H   22    0.09772      0.00000     0.40110    0.00118     0.40228
      H   23    0.10757      0.00000     0.39096    0.00147     0.39243
      H   24    0.09648      0.00000     0.40257    0.00095     0.40352
      H   25    0.11236      0.00000     0.38666    0.00098     0.38764
      H   26    0.20431      0.00000     0.29404    0.00165     0.29569
      H   27    0.25754      0.00000     0.19425    0.04821     0.24246
      H   28    0.10445      0.00000     0.39375    0.00180     0.39555
      H   29    0.12215      0.00000     0.37447    0.00338     0.37785
 =======================================================================
   * Total *    0.00006     20.99291    43.75822    0.24882    64.99994

 Normal termination of Gaussian 16 at Fri Dec 11 14:05:44 2020.
