 Gaussian 16, Revision A.03,

 -----------------------------------------------------------
 # opt freq B3LYP/6-31G(d) empiricaldispersion=gd3bj scf=xqc
 -----------------------------------------------------------

 -------------------------------
 CID_103452577_JID_3282_neutraal
 -------------------------------
 Symbolic Z-matrix:
 Charge =  0 Multiplicity = 1

 SCF Done:  E(RB3LYP) =  -647.259403370     A.U. after   14 cycles
 SCF Done:  E(RB3LYP) =  -647.265849368     A.U. after   12 cycles
 SCF Done:  E(RB3LYP) =  -647.266555570     A.U. after   12 cycles
 SCF Done:  E(RB3LYP) =  -647.266975926     A.U. after   12 cycles
 SCF Done:  E(RB3LYP) =  -647.268185628     A.U. after   11 cycles
 SCF Done:  E(RB3LYP) =  -647.269147185     A.U. after   12 cycles
 SCF Done:  E(RB3LYP) =  -647.269121780     A.U. after   12 cycles
 SCF Done:  E(RB3LYP) =  -647.269678335     A.U. after   12 cycles
 SCF Done:  E(RB3LYP) =  -647.269873941     A.U. after   12 cycles
 SCF Done:  E(RB3LYP) =  -647.269932691     A.U. after   11 cycles
 SCF Done:  E(RB3LYP) =  -647.270002079     A.U. after   12 cycles
 SCF Done:  E(RB3LYP) =  -647.270032433     A.U. after   11 cycles
 SCF Done:  E(RB3LYP) =  -647.270035222     A.U. after   10 cycles
 SCF Done:  E(RB3LYP) =  -647.270036241     A.U. after    8 cycles
 Optimization completed.
    -- Stationary point found.
 Normal termination of Gaussian 16 at Wed Dec  9 22:44:21 2020.

 --------------------------------------------------------------------
 #N Geom=AllCheck Guess=TCheck SCRF=Check GenChk RB3LYP/6-31G(d) Freq
 --------------------------------------------------------------------

 Structure from the checkpoint file:  "JID_3282.chk"
 -------------------------------
 CID_103452577_JID_3282_neutraal
 -------------------------------
 Charge =  0 Multiplicity = 1

 SCF Done:  E(RB3LYP) =  -647.270036241     A.U. after    1 cycles

  Exact polarizability: 121.881   1.372 121.896  -3.898   1.622  71.092
 Approx polarizability: 176.406   1.554 200.638 -12.159   1.087 102.688

                      1                      2                      3
                      A                      A                      A
 Frequencies --     24.7369                85.0758               115.2496
 Red. masses --      4.6615                 3.9712                 3.5961
 Frc consts  --      0.0017                 0.0169                 0.0281
 IR Inten    --      0.5137                 0.7232                 4.2782

                      4                      5                      6
                      A                      A                      A
 Frequencies --    141.9222               153.9095               175.8480
 Red. masses --      3.1372                 4.3745                 1.5883
 Frc consts  --      0.0372                 0.0611                 0.0289
 IR Inten    --      3.8244                 1.1893                 1.6766

                      7                      8                      9
                      A                      A                      A
 Frequencies --    201.6051               230.5833               242.6623
 Red. masses --      2.2130                 1.2196                 4.4934
 Frc consts  --      0.0530                 0.0382                 0.1559
 IR Inten    --      2.7499                 2.3705                 1.3040

                     10                     11                     12
                      A                      A                      A
 Frequencies --    267.2324               306.1413               346.0122
 Red. masses --      3.1497                 4.5203                 4.0499
 Frc consts  --      0.1325                 0.2496                 0.2857
 IR Inten    --      5.6137                 4.0694                 0.0659

                     13                     14                     15
                      A                      A                      A
 Frequencies --    394.0875               480.6799               500.2868
 Red. masses --      3.9200                 4.0050                 5.5200
 Frc consts  --      0.3587                 0.5452                 0.8140
 IR Inten    --     10.9257                 2.4495                 5.4431

                     16                     17                     18
                      A                      A                      A
 Frequencies --    523.2646               538.8844               556.1303
 Red. masses --      1.2325                 3.8214                 4.2903
 Frc consts  --      0.1988                 0.6538                 0.7818
 IR Inten    --     35.9639                 6.6581                18.8726

                     19                     20                     21
                      A                      A                      A
 Frequencies --    611.9748               624.3896               709.3528
 Red. masses --      3.8544                 7.4643                 2.6422
 Frc consts  --      0.8505                 1.7146                 0.7833
 IR Inten    --      3.4224                 7.9376                64.1488

                     22                     23                     24
                      A                      A                      A
 Frequencies --    730.7946               819.6008               827.5937
 Red. masses --      1.3823                 6.2353                 4.7103
 Frc consts  --      0.4350                 2.4678                 1.9008
 IR Inten    --    183.7867                 0.3834                12.1822

                     25                     26                     27
                      A                      A                      A
 Frequencies --    855.3724               865.2082               903.1638
 Red. masses --      2.8940                 1.3459                 3.4832
 Frc consts  --      1.2476                 0.5936                 1.6740
 IR Inten    --     13.3995                19.4316                19.7749

                     28                     29                     30
                      A                      A                      A
 Frequencies --    947.9748               962.7595              1046.7483
 Red. masses --      2.1343                 1.3945                 2.2313
 Frc consts  --      1.1301                 0.7615                 1.4404
 IR Inten    --     27.2017                 0.3994                31.3836

                     31                     32                     33
                      A                      A                      A
 Frequencies --   1054.0038              1076.4577              1115.3012
 Red. masses --      5.5493                 4.1455                 2.5552
 Frc consts  --      3.6322                 2.8302                 1.8727
 IR Inten    --     29.9939               117.2562                 4.7807

                     34                     35                     36
                      A                      A                      A
 Frequencies --   1125.6702              1155.4435              1176.0681
 Red. masses --      2.2014                 2.4812                 2.1224
 Frc consts  --      1.6435                 1.9517                 1.7296
 IR Inten    --     18.3779                21.2272               108.1305

                     37                     38                     39
                      A                      A                      A
 Frequencies --   1184.7658              1210.1531              1256.6327
 Red. masses --      1.2673                 1.4641                 3.7408
 Frc consts  --      1.0480                 1.2633                 3.4804
 IR Inten    --      0.7303                13.4363                28.5343

                     40                     41                     42
                      A                      A                      A
 Frequencies --   1273.7757              1292.7865              1327.6829
 Red. masses --      1.3886                 2.2272                 1.5653
 Frc consts  --      1.3274                 2.1931                 1.6257
 IR Inten    --     32.5422                 7.2017                17.3136

                     43                     44                     45
                      A                      A                      A
 Frequencies --   1352.1908              1370.3510              1411.1861
 Red. masses --      1.9752                 1.3754                 1.7929
 Frc consts  --      2.1278                 1.5218                 2.1036
 IR Inten    --     51.0553                35.2510               122.4252

                     46                     47                     48
                      A                      A                      A
 Frequencies --   1434.7876              1443.9178              1464.0993
 Red. masses --      1.3128                 1.9224                 1.2654
 Frc consts  --      1.5923                 2.3614                 1.5982
 IR Inten    --     23.9469               120.5050                92.0052

                     49                     50                     51
                      A                      A                      A
 Frequencies --   1485.7386              1497.8188              1510.3099
 Red. masses --      1.1531                 1.9442                 1.0484
 Frc consts  --      1.4997                 2.5699                 1.4089
 IR Inten    --     96.6160                10.7657                 5.8259

                     52                     53                     54
                      A                      A                      A
 Frequencies --   1520.7739              1524.6661              1525.7363
 Red. masses --      1.7131                 1.0901                 1.0867
 Frc consts  --      2.3343                 1.4930                 1.4905
 IR Inten    --     40.5796                36.0471                16.4026

                     55                     56                     57
                      A                      A                      A
 Frequencies --   1531.9239              1603.9945              1629.7071
 Red. masses --      1.0536                 9.1545                 5.6380
 Frc consts  --      1.4567                13.8768                 8.8225
 IR Inten    --      1.5798                65.0625                13.0126

                     58                     59                     60
                      A                      A                      A
 Frequencies --   3053.2339              3070.0932              3073.5746
 Red. masses --      1.0371                 1.0301                 1.0864
 Frc consts  --      5.6965                 5.7203                 6.0468
 IR Inten    --     14.8770                43.5235                27.6050

                     61                     62                     63
                      A                      A                      A
 Frequencies --   3119.4708              3125.0574              3138.2185
 Red. masses --      1.0944                 1.0911                 1.1027
 Frc consts  --      6.2747                 6.2784                 6.3986
 IR Inten    --      4.5958                35.0323                34.9011

                     64                     65                     66
                      A                      A                      A
 Frequencies --   3142.3990              3180.8195              3188.7436
 Red. masses --      1.1073                 1.1065                 1.0886
 Frc consts  --      6.4420                 6.5959                 6.5218
 IR Inten    --     21.8169                19.9456                 7.2163

                     67                     68                     69
                      A                      A                      A
 Frequencies --   3212.3004              3573.8099              3639.8718
 Red. masses --      1.0965                 1.0653                 1.0647
 Frc consts  --      6.6666                 8.0162                 8.3108
 IR Inten    --     34.1595               170.0451                70.9719

 - Thermochemistry -
 -------------------
 Temperature   298.150 Kelvin.  Pressure   1.00000 Atm.
 Atom     1 has atomic number  6 and mass  12.00000

 Molecular mass:   184.08479 amu.
 Principal axes and moments of inertia in atomic units:
                           1         2         3
     Eigenvalues --  1517.800812930.096783604.86464
           X            0.99984  -0.01278   0.01276
           Y            0.01252   0.99971   0.02060
           Z           -0.01302  -0.02044   0.99971
 This molecule is an asymmetric top.
 Rotational symmetry number  1.
 Warning -- assumption of classical behavior for rotation
           may cause significant error
 Rotational temperatures (Kelvin)      0.05707     0.02956     0.02403
 Rotational constants (GHZ):           1.18905     0.61593     0.50064
 Zero-point vibrational energy     539891.3 (Joules/Mol)
                                  129.03712 (Kcal/Mol)
 Warning -- explicit consideration of  19 degrees of freedom as
           vibrations may cause significant error
 Vibrational temperatures:     35.59   122.41   165.82   204.19   221.44
          (Kelvin)            253.01   290.06   331.76   349.14   384.49
                              440.47   497.83   567.00   691.59   719.80
                              752.86   775.33   800.15   880.50   898.36
                             1020.60  1051.45  1179.22  1190.72  1230.69
                             1244.84  1299.45  1363.92  1385.20  1506.04
                             1516.48  1548.78  1604.67  1619.59  1662.43
                             1692.10  1704.61  1741.14  1808.01  1832.68
                             1860.03  1910.24  1945.50  1971.63  2030.38
                             2064.34  2077.48  2106.51  2137.65  2155.03
                             2173.00  2188.05  2193.65  2195.19  2204.10
                             2307.79  2344.79  4392.92  4417.18  4422.19
                             4488.22  4496.26  4515.20  4521.21  4576.49
                             4587.89  4621.78  5141.92  5236.96

 Zero-point correction=                           0.205634 (Hartree/Particle)
 Thermal correction to Energy=                    0.218152
 Thermal correction to Enthalpy=                  0.219096
 Thermal correction to Gibbs Free Energy=         0.166390
 Sum of electronic and zero-point Energies=           -647.064402
 Sum of electronic and thermal Energies=              -647.051884
 Sum of electronic and thermal Enthalpies=            -647.050940
 Sum of electronic and thermal Free Energies=         -647.103646

                     E (Thermal)             CV                S
                      KCal/Mol        Cal/Mol-Kelvin    Cal/Mol-Kelvin
 Total                  136.893             46.865            110.930
 Electronic               0.000              0.000              0.000
 Translational            0.889              2.981             41.537
 Rotational               0.889              2.981             31.150
 Vibrational            135.115             40.904             38.243
 Vibration     1          0.593              1.985              6.212
 Vibration     2          0.601              1.960              3.770
 Vibration     3          0.608              1.937              3.179
 Vibration     4          0.615              1.911              2.778
 Vibration     5          0.619              1.898              2.623
 Vibration     6          0.628              1.872              2.372
 Vibration     7          0.638              1.838              2.118
 Vibration     8          0.652              1.794              1.874
 Vibration     9          0.659              1.775              1.783
 Vibration    10          0.672              1.733              1.614
 Vibration    11          0.697              1.662              1.383
 Vibration    12          0.724              1.583              1.184
 Vibration    13          0.761              1.483              0.985
 Vibration    14          0.837              1.293              0.708
 Vibration    15          0.856              1.249              0.657
 Vibration    16          0.878              1.198              0.602
 Vibration    17          0.894              1.164              0.568
 Vibration    18          0.912              1.126              0.532
 Vibration    19          0.971              1.006              0.430

                           ! Non-Optimized Parameters !
 Normal termination of Gaussian 16 at Wed Dec  9 22:50:32 2020.

 ----------------------------------------------------------------------
 # B3LYP/6-311++G(d,p) empiricaldispersion=gd3bj scf=xqc pop=npa geom=c
 heck
 ----------------------------------------------------------------------

 ---------------------------------------
 CID_103452577_JID_3282_Energie_neutraal
 ---------------------------------------
 Structure from the checkpoint file:  "JID_3282.chk"
 Charge =  0 Multiplicity = 1

 SCF Done:  E(RB3LYP) =  -647.467933310     A.U. after   15 cycles
 Normal termination of Gaussian 16 at Wed Dec  9 22:52:56 2020.

 ----------------------------------------------------------------------
 # B3LYP/6-311++G(d,p) empiricaldispersion=gd3bj scf=xqc pop=npa geom=c
 heck
 ----------------------------------------------------------------------

 -------------------------------------
 CID_103452577_JID_3282_Energie_kation
 -------------------------------------
 Structure from the checkpoint file:  "JID_3282.chk"
 Charge =  1 Multiplicity = 2

 SCF Done:  E(UB3LYP) =  -647.139996110     A.U. after   33 cycles
 SCF Done:  E(UB3LYP) =  -647.139996112     a.u. after    2 cycles
 Normal termination of Gaussian 16 at Wed Dec  9 23:03:59 2020.
 Gaussian 16:  ES64L-G16RevA.03 25-Dec-2016

 ----------------------------------------------------------------------
 # B3LYP/6-311++G(d,p) empiricaldispersion=gd3bj scf=xqc pop=npa geom=c
 heck
 ----------------------------------------------------------------------

 ------------------------------------
 CID_103452577_JID_3282_Energie_anion
 ------------------------------------
 Structure from the checkpoint file:  "JID_3282.chk"
 Charge = -1 Multiplicity = 2

                         Standard orientation:
 ---------------------------------------------------------------------
 Center     Atomic      Atomic             Coordinates (Angstroms)
 Number     Number       Type             X           Y           Z
 ---------------------------------------------------------------------
      1          6           0       -2.227592   -0.352863   -1.848400
      2          6           0       -2.370789   -0.606706   -0.350477
      3          6           0       -1.043771   -0.935782    0.363042
      4          6           0        0.012922    0.140565    0.166306
      5          7           0       -0.359229    1.417878    0.231052
      6          6           0        0.581820    2.372229    0.127438
      7          6           0        1.916844    2.039675   -0.039055
      8          7           0        2.323735    0.762572   -0.116305
      9          6           0        1.386378   -0.169819   -0.015784
     10          8           0        1.721316   -1.469493   -0.098074
     11          6           0        3.110977   -1.773393   -0.265666
     12          8           0       -1.296298   -1.102712    1.753971
     13          8           0       -3.003634    0.480225    0.329417
     14          1           0       -1.609017    0.529016   -2.044184
     15          1           0       -3.213526   -0.182994   -2.290869
     16          1           0       -1.765539   -1.212668   -2.348641
     17          1           0       -3.030288   -1.466302   -0.186885
     18          1           0       -0.650346   -1.885607   -0.005369
     19          1           0        0.251064    3.405118    0.181082
     20          1           0        2.685673    2.804580   -0.116839
     21          1           0        3.696235   -1.383612    0.571758
     22          1           0        3.162429   -2.861987   -0.296482
     23          1           0        3.493969   -1.342234   -1.195041
     24          1           0       -1.981402   -0.433390    1.946336
     25          1           0       -2.362600    1.219317    0.274975
 ---------------------------------------------------------------------

 SCF Done:  E(UB3LYP) =  -647.473211363     A.U. after   28 cycles

 The electronic state is 2-A.
 Alpha  occ. eigenvalues --  -19.01266 -18.98097 -18.97161 -14.12282 -14.12189
 Alpha  occ. eigenvalues --  -10.09584 -10.09432 -10.08970 -10.07162 -10.03855
 Alpha  occ. eigenvalues --  -10.03266 -10.02697 -10.01942  -0.93635  -0.89787
 Alpha  occ. eigenvalues --   -0.86512  -0.79378  -0.72522  -0.63983  -0.61635
 Alpha  occ. eigenvalues --   -0.57093  -0.54416  -0.49333  -0.46711  -0.44890
 Alpha  occ. eigenvalues --   -0.39312  -0.37852  -0.36282  -0.34316  -0.33910
 Alpha  occ. eigenvalues --   -0.32169  -0.31942  -0.30424  -0.28948  -0.28237
 Alpha  occ. eigenvalues --   -0.27414  -0.25897  -0.25086  -0.24037  -0.21552
 Alpha  occ. eigenvalues --   -0.20917  -0.19785  -0.18604  -0.16137  -0.14874
 Alpha  occ. eigenvalues --   -0.13685  -0.13315  -0.08102  -0.07992   0.06097
 Alpha virt. eigenvalues --    0.08711   0.09337   0.10272   0.11390   0.11896
 Alpha virt. eigenvalues --    0.12001   0.12906   0.13414   0.13742   0.14671
 Alpha virt. eigenvalues --    0.15006   0.15512   0.15924   0.16711   0.18590

  Beta  occ. eigenvalues --  -19.01260 -18.98100 -18.97093 -14.11663 -14.11440
  Beta  occ. eigenvalues --  -10.09586 -10.09514 -10.08960 -10.07180 -10.03852
  Beta  occ. eigenvalues --  -10.03357 -10.02484 -10.01590  -0.93603  -0.89731
  Beta  occ. eigenvalues --   -0.86418  -0.78483  -0.71316  -0.63831  -0.61429
  Beta  occ. eigenvalues --   -0.56879  -0.54144  -0.48944  -0.46450  -0.44510
  Beta  occ. eigenvalues --   -0.39176  -0.37612  -0.36083  -0.34136  -0.33805
  Beta  occ. eigenvalues --   -0.32146  -0.31791  -0.30296  -0.28685  -0.28048
  Beta  occ. eigenvalues --   -0.27336  -0.25365  -0.24346  -0.23881  -0.21466
  Beta  occ. eigenvalues --   -0.20795  -0.18827  -0.18501  -0.15395  -0.13595
  Beta  occ. eigenvalues --   -0.12541  -0.12088  -0.07323  -0.06622
  Beta virt. eigenvalues --    0.08657   0.09281   0.10218   0.11252   0.11834
  Beta virt. eigenvalues --    0.11924   0.12844   0.13242   0.13688   0.14135
  Beta virt. eigenvalues --    0.14722   0.15019   0.15646   0.15919   0.16696

 Mulliken charges and spin densities:
               1          2
     1  C   -0.549795  -0.044791
     2  C    0.055215   0.041476
     3  C   -0.961156  -0.018123
     4  C   -0.034266   0.293946
     5  N   -0.103747   0.324314
     6  C   -0.013127  -0.033765
     7  C   -0.274176   0.232799
     8  N   -0.190478   0.247652
     9  C   -0.010474  -0.056238
    10  O   -0.141849   0.004805
    11  C   -0.301580   0.002696
    12  O   -0.124743  -0.007997
    13  O   -0.249949   0.004080
    14  H    0.181983  -0.008961
    15  H    0.107588   0.020056
    16  H    0.087948   0.015745
    17  H    0.173272  -0.000432
    18  H    0.225811   0.001005
    19  H    0.108022   0.002309
    20  H    0.102851  -0.014605
    21  H    0.165025  -0.000706
    22  H    0.104674  -0.000358
    23  H    0.158960   0.001237
    24  H    0.224538   0.002039
    25  H    0.259453  -0.008181
 Sum of Mulliken charges =  -1.00000   1.00000

 Dipole moment (field-independent basis, Debye):
    X=              0.0089    Y=             -2.3613    Z=             -2.1341  Tot=              3.1828
 Quadrupole moment (field-independent basis, Debye-Ang):
   XX=           -105.0347   YY=            -91.3067   ZZ=            -90.4988
   XY=             -4.9429   XZ=              2.6826   YZ=              3.9522

 Summary of Natural Population Analysis:

                                       Natural Population
                Natural  -----------------------------------------------
    Atom  No    Charge         Core      Valence    Rydberg      Total
 -----------------------------------------------------------------------
      C    1   -0.29897      0.99965     2.29472    0.00460     3.29897
      C    2    0.05883      0.99957     1.92885    0.01276     2.94117
      C    3    0.03609      0.99951     1.94607    0.01833     2.96391
      C    4    0.11591      0.99950     1.86753    0.01706     2.88409
      N    5   -0.16172      0.99965     2.64726    0.01482     3.66172
      C    6   -0.03598      0.99959     2.02064    0.01576     3.03598
      C    7    0.03127      0.99960     1.95308    0.01605     2.96873
      N    8   -0.19130      0.99965     2.67866    0.01299     3.69130
      C    9    0.24118      0.99942     1.74180    0.01760     2.75882
      O   10   -0.28139      0.99985     3.27277    0.00877     4.28139
      C   11   -0.10152      0.99960     2.09355    0.00837     3.10152
      O   12   -0.37112      0.99990     3.36432    0.00690     4.37112
      O   13   -0.40065      0.99990     3.39321    0.00754     4.40065
      H   14    0.10888      0.00000     0.38911    0.00201     0.39112
      H   15    0.09350      0.00000     0.40551    0.00099     0.40650
      H   16    0.09585      0.00000     0.40297    0.00118     0.40415
      H   17    0.07790      0.00000     0.42018    0.00193     0.42210
      H   18    0.09278      0.00000     0.40573    0.00149     0.40722
      H   19    0.08025      0.00000     0.41860    0.00115     0.41975
      H   20    0.07654      0.00000     0.42229    0.00117     0.42346
      H   21    0.08753      0.00000     0.41117    0.00131     0.41247
      H   22    0.07921      0.00000     0.41996    0.00084     0.42079
      H   23    0.08645      0.00000     0.41222    0.00132     0.41355
      H   24    0.23204      0.00000     0.26532    0.00264     0.26796
      H   25    0.24845      0.00000     0.24843    0.00312     0.25155
 =======================================================================
   * Total *    0.00000     12.99539    35.82392    0.18069    49.00000

 Normal termination of Gaussian 16 at Wed Dec  9 23:09:09 2020.
