 Gaussian 16, Revision A.03,

 -----------------------------------------------------------
 # opt freq B3LYP/6-31G(d) empiricaldispersion=gd3bj scf=xqc
 -----------------------------------------------------------

 ------------------------------
 CID_83905395_JID_2459_neutraal
 ------------------------------
 Symbolic Z-matrix:
 Charge =  0 Multiplicity = 1

 SCF Done:  E(RB3LYP) =  -499.042019694     A.U. after   14 cycles
 SCF Done:  E(RB3LYP) =  -499.045479945     A.U. after   12 cycles
 SCF Done:  E(RB3LYP) =  -499.045767670     A.U. after   10 cycles
 SCF Done:  E(RB3LYP) =  -499.045812483     A.U. after   11 cycles
 SCF Done:  E(RB3LYP) =  -499.045836094     A.U. after   10 cycles
 SCF Done:  E(RB3LYP) =  -499.045840065     A.U. after    9 cycles
 SCF Done:  E(RB3LYP) =  -499.045841053     A.U. after    8 cycles
 SCF Done:  E(RB3LYP) =  -499.045841145     A.U. after    7 cycles
 Optimization completed.
    -- Stationary point found.
 Normal termination of Gaussian 16 at Wed Dec  9 17:26:49 2020.

 --------------------------------------------------------------------
 #N Geom=AllCheck Guess=TCheck SCRF=Check GenChk RB3LYP/6-31G(d) Freq
 --------------------------------------------------------------------

 Structure from the checkpoint file:  "JID_2459.chk"
 ------------------------------
 CID_83905395_JID_2459_neutraal
 ------------------------------
 Charge =  0 Multiplicity = 1

 SCF Done:  E(RB3LYP) =  -499.045841145     A.U. after    1 cycles

  Exact polarizability: 129.951  -3.191 116.373  12.789   7.271  80.631
 Approx polarizability: 189.947  -6.825 190.478  26.043  18.056 124.046

                      1                      2                      3
                      A                      A                      A
 Frequencies --     73.4793                93.6491               134.4797
 Red. masses --      3.0382                 3.8937                 3.4852
 Frc consts  --      0.0097                 0.0201                 0.0371
 IR Inten    --      0.3181                 0.0878                 0.8994

                      4                      5                      6
                      A                      A                      A
 Frequencies --    202.5509               242.2628               264.3662
 Red. masses --      2.0013                 2.7664                 1.1809
 Frc consts  --      0.0484                 0.0957                 0.0486
 IR Inten    --      0.1208                 0.9653                 1.3454

                      7                      8                      9
                      A                      A                      A
 Frequencies --    277.6969               321.3099               346.7098
 Red. masses --      3.0765                 1.0930                 3.5611
 Frc consts  --      0.1398                 0.0665                 0.2522
 IR Inten    --      0.4243                38.2682                 3.4404

                     10                     11                     12
                      A                      A                      A
 Frequencies --    401.8505               418.1241               451.6348
 Red. masses --      2.9939                 2.6437                 2.5167
 Frc consts  --      0.2848                 0.2723                 0.3024
 IR Inten    --      3.5167                 3.7109                 6.8509

                     13                     14                     15
                      A                      A                      A
 Frequencies --    503.3577               546.6069               589.2373
 Red. masses --      3.2322                 5.1623                 5.6838
 Frc consts  --      0.4825                 0.9087                 1.1627
 IR Inten    --      1.6595                 2.8126                 3.0378

                     16                     17                     18
                      A                      A                      A
 Frequencies --    630.5776               714.0663               758.1996
 Red. masses --      2.8540                 2.8064                 3.8043
 Frc consts  --      0.6686                 0.8431                 1.2885
 IR Inten    --      5.8767                 3.0921                 1.8767

                     19                     20                     21
                      A                      A                      A
 Frequencies --    764.0560               827.5583               846.2319
 Red. masses --      2.7488                 2.7806                 1.4364
 Frc consts  --      0.9455                 1.1220                 0.6061
 IR Inten    --     13.1144                10.0768                 9.6985

                     22                     23                     24
                      A                      A                      A
 Frequencies --    869.0539               889.1260               901.5630
 Red. masses --      3.4299                 2.2993                 1.5009
 Frc consts  --      1.5262                 1.0710                 0.7188
 IR Inten    --      6.2194                52.0678               193.3430

                     25                     26                     27
                      A                      A                      A
 Frequencies --    932.5893               944.3016               967.5379
 Red. masses --      2.2325                 1.4218                 1.7192
 Frc consts  --      1.1440                 0.7470                 0.9482
 IR Inten    --      0.3206                 0.6574                 5.5564

                     28                     29                     30
                      A                      A                      A
 Frequencies --    979.9120              1022.4622              1035.7604
 Red. masses --      1.4210                 1.4996                 2.8698
 Frc consts  --      0.8039                 0.9237                 1.8139
 IR Inten    --      0.2786                 1.6946                 1.3876

                     31                     32                     33
                      A                      A                      A
 Frequencies --   1057.1281              1070.6736              1107.6370
 Red. masses --      1.6603                 2.2602                 1.6371
 Frc consts  --      1.0932                 1.5266                 1.1834
 IR Inten    --      4.8982                 8.5326                28.9485

                     34                     35                     36
                      A                      A                      A
 Frequencies --   1144.6002              1163.4916              1195.1137
 Red. masses --      1.6844                 3.1379                 1.4486
 Frc consts  --      1.3002                 2.5027                 1.2191
 IR Inten    --      5.2903                 4.8555                 2.4434

                     37                     38                     39
                      A                      A                      A
 Frequencies --   1216.9548              1225.9649              1256.8244
 Red. masses --      1.6456                 1.4857                 1.6725
 Frc consts  --      1.4359                 1.3156                 1.5566
 IR Inten    --      6.7516                 0.9852                 0.6962

                     40                     41                     42
                      A                      A                      A
 Frequencies --   1273.1473              1290.0633              1293.9339
 Red. masses --      1.9715                 1.2983                 2.4565
 Frc consts  --      1.8828                 1.2730                 2.4232
 IR Inten    --     12.7930                 3.3706                 2.6386

                     43                     44                     45
                      A                      A                      A
 Frequencies --   1313.3065              1341.1072              1352.9351
 Red. masses --      1.7167                 1.7157                 1.2971
 Frc consts  --      1.7445                 1.8181                 1.3988
 IR Inten    --      5.2661                 4.0076                 0.2292

                     46                     47                     48
                      A                      A                      A
 Frequencies --   1360.7080              1399.4273              1419.8681
 Red. masses --      1.7280                 1.3517                 1.2342
 Frc consts  --      1.8850                 1.5597                 1.4660
 IR Inten    --      4.5819                18.1069                 2.7452

                     49                     50                     51
                      A                      A                      A
 Frequencies --   1451.1698              1463.9675              1504.3863
 Red. masses --      1.4517                 2.2431                 1.1190
 Frc consts  --      1.8012                 2.8324                 1.4922
 IR Inten    --      9.6736                11.6058                 3.1723

                     52                     53                     54
                      A                      A                      A
 Frequencies --   1522.1024              1529.3609              1531.4491
 Red. masses --      1.1167                 1.6171                 1.2491
 Frc consts  --      1.5243                 2.2284                 1.7261
 IR Inten    --      5.2089                 9.9574                 2.2198

                     55                     56                     57
                      A                      A                      A
 Frequencies --   1536.4946              1625.7063              1652.4139
 Red. masses --      1.0627                 6.6231                 6.5753
 Frc consts  --      1.4781                10.3132                10.5781
 IR Inten    --      8.1088                13.3600                24.1246

                     58                     59                     60
                      A                      A                      A
 Frequencies --   1698.6239              3025.7910              3037.3405
 Red. masses --      1.0921                 1.0841                 1.0850
 Frc consts  --      1.8565                 5.8481                 5.8974
 IR Inten    --     19.3184                20.7088                46.3932

                     61                     62                     63
                      A                      A                      A
 Frequencies --   3051.9416              3058.2319              3069.8766
 Red. masses --      1.0622                 1.0396                 1.0656
 Frc consts  --      5.8293                 5.7286                 5.9167
 IR Inten    --     11.8582                23.8457                36.0225

                     64                     65                     66
                      A                      A                      A
 Frequencies --   3091.0809              3111.8634              3125.3479
 Red. masses --      1.0960                 1.1056                 1.0989
 Frc consts  --      6.1698                 6.3077                 6.3243
 IR Inten    --     24.6613                34.6507                36.7824

                     67                     68                     69
                      A                      A                      A
 Frequencies --   3143.3553              3163.7714              3170.8566
 Red. masses --      1.1026                 1.0890                 1.0892
 Frc consts  --      6.4187                 6.4225                 6.4522
 IR Inten    --     21.0642                38.0609                18.8448

                     70                     71                     72
                      A                      A                      A
 Frequencies --   3198.9343              3455.0739              3543.4832
 Red. masses --      1.0943                 1.0488                 1.0924
 Frc consts  --      6.5977                 7.3766                 8.0816
 IR Inten    --     24.5068                 1.3090                 0.3424

 - Thermochemistry -
 -------------------
 Temperature   298.150 Kelvin.  Pressure   1.00000 Atm.
 Atom     1 has atomic number  6 and mass  12.00000

 Molecular mass:   162.11570 amu.
 Principal axes and moments of inertia in atomic units:
                           1         2         3
     Eigenvalues --  1245.818942164.532062824.31253
           X            0.99991   0.01329   0.00207
           Y           -0.01330   0.99988   0.00822
           Z           -0.00196  -0.00824   0.99996
 This molecule is an asymmetric top.
 Rotational symmetry number  1.
 Warning -- assumption of classical behavior for rotation
           may cause significant error
 Rotational temperatures (Kelvin)      0.06952     0.04002     0.03067
 Rotational constants (GHZ):           1.44864     0.83378     0.63900
 Zero-point vibrational energy     599304.1 (Joules/Mol)
                                  143.23712 (Kcal/Mol)
 Warning -- explicit consideration of  15 degrees of freedom as
           vibrations may cause significant error
 Vibrational temperatures:    105.72   134.74   193.49   291.43   348.56
          (Kelvin)            380.36   399.54   462.29   498.84   578.17
                              601.59   649.80   724.22   786.45   847.78
                              907.26  1027.38  1090.88  1099.31  1190.67
                             1217.54  1250.37  1279.25  1297.15  1341.79
                             1358.64  1392.07  1409.87  1471.09  1490.23
                             1520.97  1540.46  1593.64  1646.82  1674.00
                             1719.50  1750.93  1763.89  1808.29  1831.77
                             1856.11  1861.68  1889.56  1929.55  1946.57
                             1957.76  2013.46  2042.87  2087.91  2106.32
                             2164.48  2189.97  2200.41  2203.41  2210.67
                             2339.03  2377.46  2443.94  4353.44  4370.06
                             4391.06  4400.11  4416.87  4447.38  4477.28
                             4496.68  4522.59  4551.96  4562.16  4602.55
                             4971.08  5098.28

 Zero-point correction=                           0.228263 (Hartree/Particle)
 Thermal correction to Energy=                    0.238762
 Thermal correction to Enthalpy=                  0.239707
 Thermal correction to Gibbs Free Energy=         0.192515
 Sum of electronic and zero-point Energies=           -498.817578
 Sum of electronic and thermal Energies=              -498.807079
 Sum of electronic and thermal Enthalpies=            -498.806135
 Sum of electronic and thermal Free Energies=         -498.853326

                     E (Thermal)             CV                S
                      KCal/Mol        Cal/Mol-Kelvin    Cal/Mol-Kelvin
 Total                  149.826             42.097             99.322
 Electronic               0.000              0.000              0.000
 Translational            0.889              2.981             41.158
 Rotational               0.889              2.981             30.411
 Vibrational            148.048             36.135             27.753
 Vibration     1          0.599              1.967              4.058
 Vibration     2          0.603              1.954              3.582
 Vibration     3          0.613              1.919              2.881
 Vibration     4          0.639              1.836              2.110
 Vibration     5          0.658              1.776              1.786
 Vibration     6          0.671              1.738              1.633
 Vibration     7          0.679              1.715              1.548
 Vibration     8          0.707              1.633              1.303
 Vibration     9          0.725              1.582              1.181
 Vibration    10          0.767              1.466              0.956
 Vibration    11          0.781              1.431              0.898
 Vibration    12          0.810              1.357              0.791
 Vibration    13          0.859              1.243              0.650
 Vibration    14          0.902              1.147              0.551
 Vibration    15          0.947              1.055              0.469

 Optimization completed.
    -- Stationary point found.
 Normal termination of Gaussian 16 at Wed Dec  9 17:33:25 2020.

 ----------------------------------------------------------------------
 # B3LYP/6-311++G(d,p) empiricaldispersion=gd3bj scf=xqc pop=npa geom=c
 heck
 ----------------------------------------------------------------------

 --------------------------------------
 CID_83905395_JID_2459_Energie_neutraal
 --------------------------------------
 Structure from the checkpoint file:  "JID_2459.chk"
 Charge =  0 Multiplicity = 1

 SCF Done:  E(RB3LYP) =  -499.182798073     A.U. after   15 cycles
 Normal termination of Gaussian 16 at Wed Dec  9 17:36:24 2020.

 ----------------------------------------------------------------------
 # B3LYP/6-311++G(d,p) empiricaldispersion=gd3bj scf=xqc pop=npa geom=c
 heck
 ----------------------------------------------------------------------

 ------------------------------------
 CID_83905395_JID_2459_Energie_kation
 ------------------------------------
 Structure from the checkpoint file:  "JID_2459.chk"
 Charge =  1 Multiplicity = 2

 SCF Done:  E(UB3LYP) =  -498.868856908     A.U. after   27 cycles
 Normal termination of Gaussian 16 at Wed Dec  9 17:45:10 2020.
 Gaussian 16:  ES64L-G16RevA.03 25-Dec-2016

 ----------------------------------------------------------------------
 # B3LYP/6-311++G(d,p) empiricaldispersion=gd3bj scf=xqc pop=npa geom=c
 heck
 ----------------------------------------------------------------------

 -----------------------------------
 CID_83905395_JID_2459_Energie_anion
 -----------------------------------
 Structure from the checkpoint file:  "JID_2459.chk"
 Charge = -1 Multiplicity = 2

                         Standard orientation:
 ---------------------------------------------------------------------
 Center     Atomic      Atomic             Coordinates (Angstroms)
 Number     Number       Type             X           Y           Z
 ---------------------------------------------------------------------
      1          6           0       -1.995232    0.042800    1.529838
      2          6           0       -2.159699   -0.383275    0.070054
      3          6           0       -1.071684    0.210674   -0.878381
      4          6           0       -1.014632    1.766589   -0.868938
      5          6           0        0.171516    2.157726    0.052533
      6          6           0        1.029797    0.915081    0.061977
      7          6           0        0.337887   -0.172157   -0.485670
      8          6           0        0.990324   -1.399885   -0.576403
      9          7           0        2.246072   -1.595673   -0.145534
     10          6           0        2.885057   -0.548650    0.390452
     11          6           0        2.330786    0.729577    0.515081
     12          7           0       -2.257129   -1.844729    0.026560
     13          1           0       -1.027724   -0.285737    1.927640
     14          1           0       -2.783864   -0.414432    2.133606
     15          1           0       -2.057349    1.129052    1.644075
     16          1           0       -3.121172    0.006317   -0.292669
     17          1           0       -1.312678   -0.155030   -1.885438
     18          1           0       -1.961568    2.212178   -0.547692
     19          1           0       -0.816719    2.127131   -1.883819
     20          1           0       -0.164121    2.393054    1.070501
     21          1           0        0.712845    3.038090   -0.310815
     22          1           0        0.502894   -2.262917   -1.027581
     23          1           0        3.901739   -0.736943    0.731206
     24          1           0        2.910696    1.541936    0.944539
     25          1           0       -2.326640   -2.165545   -0.938698
     26          1           0       -1.403667   -2.255211    0.404701
 ---------------------------------------------------------------------

 SCF Done:  E(UB3LYP) =  -499.169556076     A.U. after   33 cycles
 SCF Done:  E(UB3LYP) =  -499.169556076     a.u. after    1 cycles

 The electronic state is 2-A.
 Alpha  occ. eigenvalues --  -14.19360 -14.18415 -10.09370 -10.09318 -10.09144
 Alpha  occ. eigenvalues --  -10.07415 -10.07009 -10.06920 -10.06671 -10.06659
 Alpha  occ. eigenvalues --  -10.06159 -10.04793  -0.83029  -0.78488  -0.74029
 Alpha  occ. eigenvalues --   -0.66845  -0.63708  -0.62509  -0.59142  -0.52247
 Alpha  occ. eigenvalues --   -0.50789  -0.48202  -0.45416  -0.40191  -0.38649
 Alpha  occ. eigenvalues --   -0.38186  -0.37120  -0.34819  -0.32471  -0.31976
 Alpha  occ. eigenvalues --   -0.31408  -0.28632  -0.28230  -0.27020  -0.26402
 Alpha  occ. eigenvalues --   -0.25536  -0.24614  -0.24062  -0.22554  -0.22072
 Alpha  occ. eigenvalues --   -0.16617  -0.15081  -0.14872  -0.13197   0.04774
 Alpha virt. eigenvalues --    0.06956   0.07161   0.07934   0.08589   0.09023
 Alpha virt. eigenvalues --    0.09393   0.10085   0.10649   0.10864   0.12049
 Alpha virt. eigenvalues --    0.12607   0.13021   0.13746   0.14360   0.14874

  Beta  occ. eigenvalues --  -14.19252 -14.18386 -10.09336 -10.09312 -10.09128
  Beta  occ. eigenvalues --  -10.07304 -10.07013 -10.06913 -10.06658 -10.06639
  Beta  occ. eigenvalues --  -10.06131 -10.04764  -0.82878  -0.78432  -0.73908
  Beta  occ. eigenvalues --   -0.66750  -0.63625  -0.62438  -0.59064  -0.52179
  Beta  occ. eigenvalues --   -0.50695  -0.48086  -0.45348  -0.40117  -0.38577
  Beta  occ. eigenvalues --   -0.38108  -0.37048  -0.34755  -0.32403  -0.31907
  Beta  occ. eigenvalues --   -0.31360  -0.28409  -0.28096  -0.26970  -0.26346
  Beta  occ. eigenvalues --   -0.25468  -0.24534  -0.23994  -0.22466  -0.22006
  Beta  occ. eigenvalues --   -0.16239  -0.14905  -0.14744  -0.13087
  Beta virt. eigenvalues --    0.07195   0.07623   0.07882   0.08588   0.09083
  Beta virt. eigenvalues --    0.09478   0.09858   0.10550   0.11153   0.11433
  Beta virt. eigenvalues --    0.12454   0.12735   0.13390   0.14383   0.14655

 Mulliken charges and spin densities:
               1          2
     1  C    0.490920  -1.115511
     2  C    1.082687  -1.474946
     3  C    0.481754  -0.215985
     4  C    0.203494  -0.869708
     5  C    1.886517  -2.301732
     6  C   -0.216860   0.372713
     7  C   -1.300600   1.522019
     8  C   -0.889988   0.489738
     9  N   -0.094527   0.085511
    10  C    0.449710  -0.840914
    11  C   -0.539014   0.584824
    12  N   -0.366343   0.035553
    13  H   -0.064624   0.223769
    14  H    0.187059  -0.027201
    15  H   -0.229543   0.377604
    16  H   -0.377116   0.579502
    17  H   -0.579346   0.827270
    18  H   -0.217702   0.392034
    19  H   -0.243060   0.396747
    20  H   -0.139333   0.309272
    21  H   -0.090785   0.260992
    22  H   -0.050673   0.227694
    23  H    0.037791   0.109966
    24  H   -0.517685   0.689633
    25  H   -0.078619   0.305845
    26  H    0.175885   0.055311
 Sum of Mulliken charges =  -1.00000   1.00000

 Dipole moment (field-independent basis, Debye):
    X=              2.8050    Y=             -0.6723    Z=              0.7259  Tot=              2.9743
 Quadrupole moment (field-independent basis, Debye-Ang):
   XX=           -126.3309   YY=           -114.9665   ZZ=           -106.8736
   XY=              2.0601   XZ=             -3.9067   YZ=             -2.9361

 Summary of Natural Population Analysis:

                                       Natural Population
                Natural  -----------------------------------------------
    Atom  No    Charge         Core      Valence    Rydberg      Total
 -----------------------------------------------------------------------
      C    1   -0.29347      0.99964     2.28707    0.00676     3.29347
      C    2   -0.00531      0.99959     1.99300    0.01271     3.00531
      C    3   -0.12297      0.99956     2.10964    0.01377     3.12297
      C    4   -0.18396      0.99964     2.17587    0.00845     3.18396
      C    5   -0.20228      0.99960     2.19459    0.00809     3.20228
      C    6    0.02617      0.99946     1.96430    0.01007     2.97383
      C    7   -0.03222      0.99944     2.02147    0.01131     3.03222
      C    8    0.02408      0.99951     1.96282    0.01359     2.97592
      N    9   -0.22850      0.99971     2.71697    0.01181     3.72850
      C   10    0.02870      0.99959     1.95763    0.01408     2.97130
      C   11   -0.12521      0.99950     2.11643    0.00929     3.12521
      N   12   -0.42214      0.99977     2.91171    0.01066     3.92214
      H   13    0.09841      0.00000     0.40045    0.00114     0.40159
      H   14    0.10328      0.00000     0.39573    0.00099     0.39672
      H   15    0.10271      0.00000     0.39598    0.00131     0.39729
      H   16    0.09106      0.00000     0.40658    0.00236     0.40894
      H   17    0.10528      0.00000     0.39225    0.00247     0.39472
      H   18    0.10226      0.00000     0.39588    0.00186     0.39774
      H   19    0.09963      0.00000     0.39894    0.00142     0.40037
      H   20    0.10847      0.00000     0.38902    0.00251     0.39153
      H   21    0.10335      0.00000     0.39564    0.00101     0.39665
      H   22    0.08795      0.00000     0.40990    0.00214     0.41205
      H   23    0.08535      0.00000     0.41348    0.00116     0.41465
      H   24    0.10216      0.00000     0.39675    0.00109     0.39784
      H   25    0.17476      0.00000     0.32284    0.00240     0.32524
      H   26    0.17242      0.00000     0.32532    0.00226     0.32758
 =======================================================================
   * Total *    0.00000     11.99502    31.85027    0.15471    44.00000

 Normal termination of Gaussian 16 at Wed Dec  9 17:55:16 2020.
