 Gaussian 16, Revision A.03,

 -----------------------------------------------------------
 # opt freq B3LYP/6-31G(d) empiricaldispersion=gd3bj scf=xqc
 -----------------------------------------------------------

 -------------------------------
 CID_106425783_JID_1019_neutraal
 -------------------------------
 Symbolic Z-matrix:
 Charge =  0 Multiplicity = 1

 SCF Done:  E(RB3LYP) =  -841.999743609     A.U. after   13 cycles
 SCF Done:  E(RB3LYP) =  -842.008233388     A.U. after   12 cycles
 SCF Done:  E(RB3LYP) =  -842.007773151     A.U. after   13 cycles
 SCF Done:  E(RB3LYP) =  -842.008650381     A.U. after   11 cycles
 SCF Done:  E(RB3LYP) =  -842.009069111     A.U. after   11 cycles
 SCF Done:  E(RB3LYP) =  -842.009116523     A.U. after   11 cycles
 SCF Done:  E(RB3LYP) =  -842.009191933     A.U. after   10 cycles
 SCF Done:  E(RB3LYP) =  -842.009204555     A.U. after   10 cycles
 SCF Done:  E(RB3LYP) =  -842.009213815     A.U. after    9 cycles
 SCF Done:  E(RB3LYP) =  -842.009226246     A.U. after   10 cycles
 SCF Done:  E(RB3LYP) =  -842.009231491     A.U. after    8 cycles
 SCF Done:  E(RB3LYP) =  -842.009231615     A.U. after    7 cycles
 SCF Done:  E(RB3LYP) =  -842.009231647     A.U. after    6 cycles
 SCF Done:  E(RB3LYP) =  -842.009231676     A.U. after    6 cycles
 SCF Done:  E(RB3LYP) =  -842.009231699     A.U. after    6 cycles
 Optimization completed.
    -- Stationary point found.
 Normal termination of Gaussian 16 at Tue Dec  8 19:12:55 2020.

 --------------------------------------------------------------------
 #N Geom=AllCheck Guess=TCheck SCRF=Check GenChk RB3LYP/6-31G(d) Freq
 --------------------------------------------------------------------

 Structure from the checkpoint file:  "JID_1019.chk"
 -------------------------------
 CID_106425783_JID_1019_neutraal
 -------------------------------
 Charge =  0 Multiplicity = 1

 SCF Done:  E(RB3LYP) =  -842.009231699     A.U. after    1 cycles

  Exact polarizability: 117.494  -0.251 108.752   5.554   4.478 100.614
 Approx polarizability: 151.336   7.015 161.835  15.434  10.357 154.770

                      1                      2                      3
                      A                      A                      A
 Frequencies --     19.4187                39.8710                57.4900
 Red. masses --      4.3969                 3.8638                 3.7510
 Frc consts  --      0.0010                 0.0036                 0.0073
 IR Inten    --      1.2642                 3.0173                 3.4610

                      4                      5                      6
                      A                      A                      A
 Frequencies --     80.7042               103.9902               115.9915
 Red. masses --      3.4310                 2.7486                 2.8273
 Frc consts  --      0.0132                 0.0175                 0.0224
 IR Inten    --      1.0266                 0.0854                 1.6781

                      7                      8                      9
                      A                      A                      A
 Frequencies --    140.8925               181.7643               245.0225
 Red. masses --      3.1301                 2.8993                 3.2363
 Frc consts  --      0.0366                 0.0564                 0.1145
 IR Inten    --      2.1664                 2.5121                 1.5507

                     10                     11                     12
                      A                      A                      A
 Frequencies --    267.2502               326.7857               405.5926
 Red. masses --      2.1570                 2.4554                 3.0512
 Frc consts  --      0.0908                 0.1545                 0.2957
 IR Inten    --      0.2885                 3.8810                 0.0205

                     13                     14                     15
                      A                      A                      A
 Frequencies --    413.5077               431.9438               494.5656
 Red. masses --      2.1793                 2.7209                 2.2070
 Frc consts  --      0.2196                 0.2991                 0.3181
 IR Inten    --      1.5138                 4.0024                 5.4618

                     16                     17                     18
                      A                      A                      A
 Frequencies --    591.2733               669.6887               744.3623
 Red. masses --      2.2337                 4.0180                 2.4908
 Frc consts  --      0.4601                 1.0617                 0.8131
 IR Inten    --      3.9951                 3.5808                21.6256

                     19                     20                     21
                      A                      A                      A
 Frequencies --    755.0260               822.2653               848.1311
 Red. masses --      2.5621                 2.1870                 1.3165
 Frc consts  --      0.8605                 0.8712                 0.5580
 IR Inten    --      6.8789                 3.5648                55.7996

                     22                     23                     24
                      A                      A                      A
 Frequencies --    892.2944               905.6847               908.7965
 Red. masses --      1.8289                 1.3421                 1.7499
 Frc consts  --      0.8579                 0.6486                 0.8515
 IR Inten    --     21.3821                 9.2183                 1.0020

                     25                     26                     27
                      A                      A                      A
 Frequencies --    949.2605               960.8261               981.0734
 Red. masses --      1.3673                 2.2471                 2.3053
 Frc consts  --      0.7259                 1.2223                 1.3073
 IR Inten    --     38.1338                 1.5866                18.0757

                     28                     29                     30
                      A                      A                      A
 Frequencies --    994.6296              1031.1364              1043.4785
 Red. masses --      3.5062                 1.1053                 2.4525
 Frc consts  --      2.0437                 0.6924                 1.5734
 IR Inten    --     13.9175                 9.1216                34.0160

                     31                     32                     33
                      A                      A                      A
 Frequencies --   1047.4516              1070.0460              1113.9423
 Red. masses --      3.7266                 2.4578                 1.4746
 Frc consts  --      2.4089                 1.6580                 1.0781
 IR Inten    --     74.4196                 8.9217                 0.8364

                     34                     35                     36
                      A                      A                      A
 Frequencies --   1130.0055              1148.4886              1174.4222
 Red. masses --      2.0715                 2.3728                 1.3061
 Frc consts  --      1.5585                 1.8440                 1.0614
 IR Inten    --     12.7243                 8.0369                 7.4437

                     37                     38                     39
                      A                      A                      A
 Frequencies --   1176.2493              1209.4876              1235.8795
 Red. masses --      1.1437                 1.6228                 1.2483
 Frc consts  --      0.9323                 1.3987                 1.1234
 IR Inten    --      3.7464                 7.1961                21.7916

                     40                     41                     42
                      A                      A                      A
 Frequencies --   1249.2019              1267.2358              1291.8280
 Red. masses --      1.2919                 1.2341                 1.2181
 Frc consts  --      1.1878                 1.1676                 1.1977
 IR Inten    --      8.7664                 1.7086                12.2666

                     43                     44                     45
                      A                      A                      A
 Frequencies --   1312.4759              1322.5255              1337.1126
 Red. masses --      1.4250                 1.3396                 1.2618
 Frc consts  --      1.4463                 1.3805                 1.3292
 IR Inten    --      6.5640                 4.0773                 1.0272

                     46                     47                     48
                      A                      A                      A
 Frequencies --   1348.7203              1370.1986              1407.7441
 Red. masses --      1.2189                 1.3651                 1.4051
 Frc consts  --      1.3064                 1.5100                 1.6406
 IR Inten    --     11.6201                32.4179                 9.8965

                     49                     50                     51
                      A                      A                      A
 Frequencies --   1434.9957              1462.2780              1486.8530
 Red. masses --      1.5609                 1.1493                 1.1087
 Frc consts  --      1.8938                 1.4480                 1.4441
 IR Inten    --     13.2596                 2.9650                 4.3783

                     52                     53                     54
                      A                      A                      A
 Frequencies --   1498.6757              1501.8679              1529.5410
 Red. masses --      1.2462                 1.1370                 1.0835
 Frc consts  --      1.6491                 1.5110                 1.4935
 IR Inten    --     30.2305                 5.9047                 1.8194

                     55                     56                     57
                      A                      A                      A
 Frequencies --   1533.6433              1557.9082              1719.9208
 Red. masses --      1.0892                 1.1193                 4.2665
 Frc consts  --      1.5094                 1.6006                 7.4359
 IR Inten    --      4.6340                 3.2091                 3.8143

                     58                     59                     60
                      A                      A                      A
 Frequencies --   2960.3874              2973.9516              3030.4520
 Red. masses --      1.0721                 1.0841                 1.0530
 Frc consts  --      5.5358                 5.6493                 5.6979
 IR Inten    --     49.4026                79.2911               105.2455

                     61                     62                     63
                      A                      A                      A
 Frequencies --   3042.0927              3051.8259              3078.9150
 Red. masses --      1.0590                 1.0870                 1.0618
 Frc consts  --      5.7742                 5.9647                 5.9307
 IR Inten    --      0.8925                29.4068                20.7520

                     64                     65                     66
                      A                      A                      A
 Frequencies --   3080.8044              3082.6639              3087.7847
 Red. masses --      1.0608                 1.1104                 1.1136
 Frc consts  --      5.9319                 6.2171                 6.2558
 IR Inten    --     20.4327                26.2935               102.4769

                     67                     68                     69
                      A                      A                      A
 Frequencies --   3132.8852              3145.4870              3158.7163
 Red. masses --      1.1065                 1.0993                 1.0606
 Frc consts  --      6.3988                 6.4083                 6.2345
 IR Inten    --      3.9594                 1.0294                 7.9060

                     70                     71                     72
                      A                      A                      A
 Frequencies --   3172.1967              3243.2363              3468.3796
 Red. masses --      1.0937                 1.1165                 1.0733
 Frc consts  --      6.4841                 6.9193                 7.6070
 IR Inten    --     11.1851                16.6006                 1.1335

 - Thermochemistry -
 -------------------
 Temperature   298.150 Kelvin.  Pressure   1.00000 Atm.
 Atom     1 has atomic number  6 and mass  12.00000

 Molecular mass:   173.08744 amu.
 Principal axes and moments of inertia in atomic units:
                           1         2         3
     Eigenvalues --  1242.048893814.714064313.34147
           X            0.99967  -0.02504  -0.00535
           Y            0.02494   0.99950  -0.01958
           Z            0.00583   0.01944   0.99979
 This molecule is an asymmetric top.
 Rotational symmetry number  1.
 Warning -- assumption of classical behavior for rotation
           may cause significant error
 Rotational temperatures (Kelvin)      0.06973     0.02271     0.02008
 Rotational constants (GHZ):           1.45304     0.47310     0.41841
 Zero-point vibrational energy     592577.3 (Joules/Mol)
                                  141.62938 (Kcal/Mol)
 Warning -- explicit consideration of  16 degrees of freedom as
           vibrations may cause significant error
 Vibrational temperatures:     27.94    57.37    82.72   116.12   149.62
          (Kelvin)            166.89   202.71   261.52   352.53   384.51
                              470.17   583.56   594.95   621.47   711.57
                              850.71   963.53  1070.97  1086.31  1183.06
                             1220.27  1283.81  1303.08  1307.56  1365.77
                             1382.41  1411.55  1431.05  1483.58  1501.33
                             1507.05  1539.56  1602.71  1625.83  1652.42
                             1689.73  1692.36  1740.18  1778.15  1797.32
                             1823.27  1858.65  1888.36  1902.82  1923.81
                             1940.51  1971.41  2025.43  2064.64  2103.89
                             2139.25  2156.26  2160.85  2200.67  2206.57
                             2241.48  2474.58  4259.34  4278.85  4360.14
                             4376.89  4390.90  4429.87  4432.59  4435.27
                             4442.63  4507.52  4525.65  4544.69  4564.08
                             4666.29  4990.22

 Zero-point correction=                           0.225701 (Hartree/Particle)
 Thermal correction to Energy=                    0.238348
 Thermal correction to Enthalpy=                  0.239292
 Thermal correction to Gibbs Free Energy=         0.184043
 Sum of electronic and zero-point Energies=           -841.783531
 Sum of electronic and thermal Energies=              -841.770884
 Sum of electronic and thermal Enthalpies=            -841.769940
 Sum of electronic and thermal Free Energies=         -841.825188

                     E (Thermal)             CV                S
                      KCal/Mol        Cal/Mol-Kelvin    Cal/Mol-Kelvin
 Total                  149.566             44.733            116.281
 Electronic               0.000              0.000              0.000
 Translational            0.889              2.981             41.353
 Rotational               0.889              2.981             31.392
 Vibrational            147.788             38.771             43.536
 Vibration     1          0.593              1.986              6.693
 Vibration     2          0.594              1.981              5.265
 Vibration     3          0.596              1.975              4.542
 Vibration     4          0.600              1.962              3.874
 Vibration     5          0.605              1.946              3.378
 Vibration     6          0.608              1.936              3.166
 Vibration     7          0.615              1.912              2.792
 Vibration     8          0.630              1.865              2.310
 Vibration     9          0.660              1.771              1.766
 Vibration    10          0.672              1.733              1.614
 Vibration    11          0.710              1.622              1.276
 Vibration    12          0.771              1.458              0.942
 Vibration    13          0.777              1.441              0.914
 Vibration    14          0.793              1.401              0.852
 Vibration    15          0.850              1.262              0.672
 Vibration    16          0.949              1.050              0.465

 Optimization completed.
    -- Stationary point found.
 Normal termination of Gaussian 16 at Tue Dec  8 19:17:56 2020.

 ----------------------------------------------------------------------
 # B3LYP/6-311++G(d,p) empiricaldispersion=gd3bj scf=xqc pop=npa geom=c
 heck
 ----------------------------------------------------------------------

 ---------------------------------------
 CID_106425783_JID_1019_Energie_neutraal
 ---------------------------------------
 Structure from the checkpoint file:  "JID_1019.chk"
 Charge =  0 Multiplicity = 1

 SCF Done:  E(RB3LYP) =  -842.168739262     A.U. after   14 cycles
 Normal termination of Gaussian 16 at Tue Dec  8 19:19:53 2020.

 ----------------------------------------------------------------------
 # B3LYP/6-311++G(d,p) empiricaldispersion=gd3bj scf=xqc pop=npa geom=c
 heck
 ----------------------------------------------------------------------

 -------------------------------------
 CID_106425783_JID_1019_Energie_kation
 -------------------------------------
 Structure from the checkpoint file:  "JID_1019.chk"
 Charge =  1 Multiplicity = 2

 SCF Done:  E(UB3LYP) =  -841.867571200     A.U. after   28 cycles
 Normal termination of Gaussian 16 at Tue Dec  8 19:24:57 2020.
 Gaussian 16:  ES64L-G16RevA.03 25-Dec-2016

 ----------------------------------------------------------------------
 # B3LYP/6-311++G(d,p) empiricaldispersion=gd3bj scf=xqc pop=npa geom=c
 heck
 ----------------------------------------------------------------------

 ------------------------------------
 CID_106425783_JID_1019_Energie_anion
 ------------------------------------
 Structure from the checkpoint file:  "JID_1019.chk"
 Charge = -1 Multiplicity = 2

                         Standard orientation:
 ---------------------------------------------------------------------
 Center     Atomic      Atomic             Coordinates (Angstroms)
 Number     Number       Type             X           Y           Z
 ---------------------------------------------------------------------
      1          6           0       -2.086214    2.328118    0.832537
      2          6           0       -2.804155    1.512719    0.055998
      3          6           0       -2.198377    0.635787   -0.990480
      4         16           0       -2.274422   -1.164541   -0.534285
      5          6           0       -1.271418   -1.168729    1.004605
      6          6           0        0.219072   -1.424462    0.790941
      7          7           0        0.800644   -0.468839   -0.150125
      8          6           0        2.246442   -0.567690   -0.234153
      9          6           0        2.905446    0.479171   -1.151181
     10          8           0        3.641721    1.057106   -0.051743
     11          6           0        3.012560    0.159393    0.890522
     12          1           0       -1.006824    2.404537    0.720704
     13          1           0       -2.548459    2.945083    1.598076
     14          1           0       -3.881248    1.428275    0.193936
     15          1           0       -2.753315    0.687360   -1.933208
     16          1           0       -1.159552    0.915656   -1.174354
     17          1           0       -1.430325   -0.205948    1.499091
     18          1           0       -1.695295   -1.950675    1.641952
     19          1           0        0.725647   -1.299322    1.757689
     20          1           0        0.382547   -2.472218    0.479550
     21          1           0        0.402696   -0.664289   -1.069125
     22          1           0        2.605181   -1.596476   -0.407658
     23          1           0        3.571433    0.093644   -1.932864
     24          1           0        2.191421    1.188817   -1.589813
     25          1           0        2.356963    0.690202    1.592617
     26          1           0        3.751482   -0.432808    1.444056
 ---------------------------------------------------------------------

 SCF Done:  E(UB3LYP) =  -842.152040594     A.U. after   33 cycles
 SCF Done:  E(UB3LYP) =  -842.152040594     a.u. after    1 cycles

 The electronic state is 2-A.
 Alpha  occ. eigenvalues --  -88.74263 -19.02166 -14.20476 -10.11929 -10.11708
 Alpha  occ. eigenvalues --  -10.10549 -10.10513 -10.09776 -10.09676 -10.08672
 Alpha  occ. eigenvalues --  -10.07425  -7.82848  -5.79232  -5.78878  -5.78225
 Alpha  occ. eigenvalues --   -0.94742  -0.81615  -0.72411  -0.68125  -0.63592
 Alpha  occ. eigenvalues --   -0.60711  -0.59721  -0.54946  -0.48788  -0.46465
 Alpha  occ. eigenvalues --   -0.45936  -0.42036  -0.39976  -0.39267  -0.38387
 Alpha  occ. eigenvalues --   -0.35081  -0.34334  -0.32936  -0.32402  -0.30791
 Alpha  occ. eigenvalues --   -0.30691  -0.29893  -0.28088  -0.26806  -0.26179
 Alpha  occ. eigenvalues --   -0.22870  -0.22018  -0.21073  -0.17434  -0.15943
 Alpha  occ. eigenvalues --   -0.14393  -0.12840   0.04666
 Alpha virt. eigenvalues --    0.06544   0.06781   0.07572   0.07946   0.08528
 Alpha virt. eigenvalues --    0.08771   0.09523   0.10901   0.11161   0.11331
 Alpha virt. eigenvalues --    0.11669   0.11917   0.12766   0.13583   0.13941

  Beta  occ. eigenvalues --  -88.74259 -19.02165 -14.20455 -10.11908 -10.11690
  Beta  occ. eigenvalues --  -10.10538 -10.10491 -10.09746 -10.09661 -10.08648
  Beta  occ. eigenvalues --  -10.07396  -7.82842  -5.79228  -5.78873  -5.78221
  Beta  occ. eigenvalues --   -0.94728  -0.81586  -0.72372  -0.68082  -0.63553
  Beta  occ. eigenvalues --   -0.60668  -0.59672  -0.54886  -0.48719  -0.46404
  Beta  occ. eigenvalues --   -0.45869  -0.41990  -0.39929  -0.39220  -0.38340
  Beta  occ. eigenvalues --   -0.35061  -0.34303  -0.32890  -0.32355  -0.30749
  Beta  occ. eigenvalues --   -0.30663  -0.29853  -0.28044  -0.26757  -0.26144
  Beta  occ. eigenvalues --   -0.22828  -0.21992  -0.21043  -0.17329  -0.15927
  Beta  occ. eigenvalues --   -0.14332  -0.12812
  Beta virt. eigenvalues --    0.06856   0.07379   0.07630   0.07964   0.08392
  Beta virt. eigenvalues --    0.09114   0.09378   0.09922   0.11339   0.11363
  Beta virt. eigenvalues --    0.11673   0.12044   0.12363   0.12907   0.13676

 Mulliken charges and spin densities:
               1          2
     1  C    0.362188  -0.900965
     2  C   -0.601170   0.663438
     3  C    0.409068  -0.757418
     4  S    0.351963  -0.218262
     5  C   -1.038480   0.655718
     6  C    1.670644  -2.069367
     7  N   -0.117000   0.140928
     8  C   -0.919153   0.620776
     9  C    0.996943  -1.173227
    10  O   -0.262993   0.034535
    11  C    0.698189  -0.929170
    12  H    0.126300   0.004698
    13  H   -0.190935   0.316415
    14  H   -0.296781   0.447113
    15  H   -0.148192   0.379101
    16  H    0.129725  -0.018722
    17  H    0.200324  -0.038211
    18  H   -0.587555   0.840536
    19  H   -0.402231   0.551342
    20  H   -0.218924   0.324026
    21  H   -0.242701   0.461304
    22  H   -0.471746   0.637614
    23  H   -0.306849   0.456496
    24  H   -0.021567   0.160510
    25  H    0.119538   0.021720
    26  H   -0.238605   0.389071
 Sum of Mulliken charges =  -1.00000   1.00000

 Dipole moment (field-independent basis, Debye):
    X=             -1.6610    Y=              2.6571    Z=             -0.3493  Tot=              3.1530
 Quadrupole moment (field-independent basis, Debye-Ang):
   XX=           -148.4073   YY=           -123.5830   ZZ=           -111.3737
   XY=              6.8462   XZ=              2.6204   YZ=              2.4001

 Summary of Natural Population Analysis:

                                       Natural Population
                Natural  -----------------------------------------------
    Atom  No    Charge         Core      Valence    Rydberg      Total
 -----------------------------------------------------------------------
      C    1   -0.19005      0.99956     2.18199    0.00850     3.19005
      C    2   -0.09358      0.99956     2.08284    0.01118     3.09358
      C    3   -0.26352      0.99956     2.25226    0.01170     3.26352
      S    4    0.08270      4.99964     2.90166    0.01599     7.91730
      C    5   -0.25585      0.99958     2.24528    0.01099     3.25585
      C    6   -0.09059      0.99960     2.07893    0.01206     3.09059
      N    7   -0.34648      0.99972     2.83406    0.01270     3.84648
      C    8   -0.03335      0.99960     2.02085    0.01290     3.03335
      C    9   -0.00230      0.99962     1.98958    0.01310     3.00230
      O   10   -0.30649      0.99991     3.29839    0.00819     4.30649
      C   11   -0.00481      0.99962     1.99246    0.01274     3.00481
      H   12    0.09561      0.00000     0.40294    0.00145     0.40439
      H   13    0.09452      0.00000     0.40453    0.00095     0.40548
      H   14    0.09560      0.00000     0.40273    0.00166     0.40440
      H   15    0.10946      0.00000     0.38901    0.00153     0.39054
      H   16    0.10799      0.00000     0.38993    0.00208     0.39201
      H   17    0.10962      0.00000     0.38828    0.00211     0.39038
      H   18    0.10792      0.00000     0.39059    0.00149     0.39208
      H   19    0.09545      0.00000     0.40254    0.00201     0.40455
      H   20    0.08481      0.00000     0.41245    0.00274     0.41519
      H   21    0.17753      0.00000     0.31847    0.00400     0.32247
      H   22    0.08864      0.00000     0.40780    0.00356     0.41136
      H   23    0.08491      0.00000     0.41324    0.00185     0.41509
      H   24    0.08336      0.00000     0.41487    0.00177     0.41664
      H   25    0.08435      0.00000     0.41394    0.00171     0.41565
      H   26    0.08454      0.00000     0.41374    0.00173     0.41546
 =======================================================================
   * Total *    0.00000     14.99597    31.84333    0.16070    47.00000

 Normal termination of Gaussian 16 at Tue Dec  8 19:30:58 2020.
