 Gaussian 16, Revision A.03,

 -----------------------------------------------------------
 # opt freq B3LYP/6-31G(d) empiricaldispersion=gd3bj scf=xqc
 -----------------------------------------------------------

 ------------------------------
 CID_53015245_JID_2621_neutraal
 ------------------------------
 Symbolic Z-matrix:
 Charge =  0 Multiplicity = 1

 SCF Done:  E(RB3LYP) =  -565.775456189     A.U. after   15 cycles
 SCF Done:  E(RB3LYP) =  -565.778248509     A.U. after   12 cycles
 SCF Done:  E(RB3LYP) =  -565.778844834     A.U. after   12 cycles
 SCF Done:  E(RB3LYP) =  -565.779145753     A.U. after   12 cycles
 SCF Done:  E(RB3LYP) =  -565.779322419     A.U. after   12 cycles
 SCF Done:  E(RB3LYP) =  -565.779430408     A.U. after   11 cycles
 SCF Done:  E(RB3LYP) =  -565.779519302     A.U. after   12 cycles
 SCF Done:  E(RB3LYP) =  -565.779551970     A.U. after   11 cycles
 SCF Done:  E(RB3LYP) =  -565.779564223     A.U. after   10 cycles
 SCF Done:  E(RB3LYP) =  -565.779578052     A.U. after   10 cycles
 SCF Done:  E(RB3LYP) =  -565.779624696     A.U. after    7 cycles
 SCF Done:  E(RB3LYP) =  -565.779624862     A.U. after    7 cycles
 SCF Done:  E(RB3LYP) =  -565.779625056     A.U. after    7 cycles
 SCF Done:  E(RB3LYP) =  -565.779625234     A.U. after    7 cycles
 SCF Done:  E(RB3LYP) =  -565.779625313     A.U. after    7 cycles
 Optimization completed.
    -- Stationary point found.
 Normal termination of Gaussian 16 at Wed Dec  9 17:44:36 2020.

 --------------------------------------------------------------------
 #N Geom=AllCheck Guess=TCheck SCRF=Check GenChk RB3LYP/6-31G(d) Freq
 --------------------------------------------------------------------

 Structure from the checkpoint file:  "JID_2621.chk"
 ------------------------------
 CID_53015245_JID_2621_neutraal
 ------------------------------
 Charge =  0 Multiplicity = 1

 SCF Done:  E(RB3LYP) =  -565.779625313     A.U. after    1 cycles

  Exact polarizability: 108.025  -3.643  84.842   1.169   5.970  79.079
 Approx polarizability: 147.114 -18.085 145.463  -3.877  18.913 131.576

                      1                      2                      3
                      A                      A                      A
 Frequencies --     29.2903                39.4931                54.7993
 Red. masses --      4.0953                 5.0743                 4.0534
 Frc consts  --      0.0021                 0.0047                 0.0072
 IR Inten    --      1.8767                 1.8681                 0.5765

                      4                      5                      6
                      A                      A                      A
 Frequencies --     73.7224               170.7592               219.8936
 Red. masses --      1.1747                 4.8788                 3.9199
 Frc consts  --      0.0038                 0.0838                 0.1117
 IR Inten    --      0.7879                 1.3555                 5.3690

                      7                      8                      9
                      A                      A                      A
 Frequencies --    278.1803               338.2654               376.8722
 Red. masses --      4.6765                 2.4859                 5.1470
 Frc consts  --      0.2132                 0.1676                 0.4307
 IR Inten    --      1.5410                 1.5637                 0.6223

                     10                     11                     12
                      A                      A                      A
 Frequencies --    405.9076               621.0765               643.4803
 Red. masses --      2.8837                 4.0595                 5.0413
 Frc consts  --      0.2799                 0.9226                 1.2299
 IR Inten    --      0.1253                 0.5921                 6.4907

                     13                     14                     15
                      A                      A                      A
 Frequencies --    667.7487               674.1243               699.1403
 Red. masses --      4.7859                 3.9185                 5.1082
 Frc consts  --      1.2573                 1.0492                 1.4711
 IR Inten    --      1.1180                16.8209                13.1768

                     16                     17                     18
                      A                      A                      A
 Frequencies --    716.1972               762.9394               797.2739
 Red. masses --      1.2274                 4.5985                 1.3640
 Frc consts  --      0.3709                 1.5770                 0.5108
 IR Inten    --     18.5079                23.3109                35.1446

                     19                     20                     21
                      A                      A                      A
 Frequencies --    828.5335               851.7556               916.5008
 Red. masses --      6.1139                 1.3583                 6.0621
 Frc consts  --      2.4728                 0.5806                 3.0001
 IR Inten    --     14.9343                 4.6265                21.5457

                     22                     23                     24
                      A                      A                      A
 Frequencies --    921.0614               969.0721               997.7280
 Red. masses --      6.4610                 2.3088                 2.6119
 Frc consts  --      3.2294                 1.2775                 1.5319
 IR Inten    --      5.2873                 5.0342                 4.0959

                     25                     26                     27
                      A                      A                      A
 Frequencies --   1038.7564              1054.6754              1078.8647
 Red. masses --      4.7018                 3.5545                 4.3539
 Frc consts  --      2.9891                 2.3295                 2.9858
 IR Inten    --      1.4609                21.6916                 2.0892

                     28                     29                     30
                      A                      A                      A
 Frequencies --   1083.4293              1104.2637              1148.7893
 Red. masses --      1.5654                 1.3823                 2.0504
 Frc consts  --      1.0826                 0.9931                 1.5943
 IR Inten    --      4.6062                20.0183                12.2114

                     31                     32                     33
                      A                      A                      A
 Frequencies --   1206.0758              1268.5991              1306.4624
 Red. masses --      1.4448                 1.7765                 4.6689
 Frc consts  --      1.2383                 1.6845                 4.6952
 IR Inten    --      5.4226                33.8606                30.5351

                     34                     35                     36
                      A                      A                      A
 Frequencies --   1318.2818              1382.9872              1401.2279
 Red. masses --      1.8568                 1.5793                 4.5208
 Frc consts  --      1.9013                 1.7797                 5.2297
 IR Inten    --     30.2890                57.9635                20.0726

                     37                     38                     39
                      A                      A                      A
 Frequencies --   1411.2282              1435.5011              1440.2852
 Red. masses --      5.9465                 1.5750                 2.0739
 Frc consts  --      6.9776                 1.9123                 2.5348
 IR Inten    --      9.3984                 1.7476                30.6507

                     40                     41                     42
                      A                      A                      A
 Frequencies --   1495.7524              1503.2640              1504.0592
 Red. masses --      1.1757                 1.0743                 1.0669
 Frc consts  --      1.5498                 1.4303                 1.4221
 IR Inten    --     13.9514                13.8872                13.5416

                     43                     44                     45
                      A                      A                      A
 Frequencies --   1540.3064              1559.6083              1575.8842
 Red. masses --      2.8646                 4.0812                 8.1895
 Frc consts  --      4.0043                 5.8488                11.9828
 IR Inten    --     57.0031                18.9345                14.5390

                     46                     47                     48
                      A                      A                      A
 Frequencies --   1643.0864              3071.8604              3093.2318
 Red. masses --      7.7487                 1.0376                 1.0589
 Frc consts  --     12.3254                 5.7688                 5.9696
 IR Inten    --     91.9370                 4.2269                13.4714

                     49                     50                     51
                      A                      A                      A
 Frequencies --   3131.0383              3144.0096              3180.9933
 Red. masses --      1.1014                 1.1073                 1.1017
 Frc consts  --      6.3615                 6.4486                 6.5681
 IR Inten    --      3.5505                 2.9210                 1.5952

                     52                     53                     54
                      A                      A                      A
 Frequencies --   3260.8912              3263.2594              3290.9551
 Red. masses --      1.0918                 1.0963                 1.1040
 Frc consts  --      6.8403                 6.8786                 7.0450
 IR Inten    --      9.2055                 0.0700                 2.1122

 - Thermochemistry -
 -------------------
 Temperature   298.150 Kelvin.  Pressure   1.00000 Atm.
 Atom     1 has atomic number  6 and mass  12.00000

 Molecular mass:   164.06981 amu.
 Principal axes and moments of inertia in atomic units:
                           1         2         3
     Eigenvalues --   816.625343384.310243631.42039
           X            0.99964   0.02663   0.00097
           Y           -0.02659   0.99925  -0.02806
           Z           -0.00172   0.02803   0.99961
 This molecule is an asymmetric top.
 Rotational symmetry number  1.
 Warning -- assumption of classical behavior for rotation
           may cause significant error
 Rotational temperatures (Kelvin)      0.10606     0.02559     0.02385
 Rotational constants (GHZ):           2.21000     0.53327     0.49698
 Zero-point vibrational energy     406679.1 (Joules/Mol)
                                   97.19865 (Kcal/Mol)
 Warning -- explicit consideration of  10 degrees of freedom as
           vibrations may cause significant error
 Vibrational temperatures:     42.14    56.82    78.84   106.07   245.68
          (Kelvin)            316.38   400.24   486.69   542.23   584.01
                              893.59   925.82   960.74   969.91  1005.91
                             1030.45  1097.70  1147.10  1192.07  1225.49
                             1318.64  1325.20  1394.28  1435.51  1494.54
                             1517.44  1552.25  1558.81  1588.79  1652.85
                             1735.27  1825.23  1879.71  1896.71  1989.81
                             2016.05  2030.44  2065.37  2072.25  2152.05
                             2162.86  2164.01  2216.16  2243.93  2267.35
                             2364.03  4419.72  4450.47  4504.87  4523.53
                             4576.74  4691.70  4695.10  4734.95

 Zero-point correction=                           0.154896 (Hartree/Particle)
 Thermal correction to Energy=                    0.165186
 Thermal correction to Enthalpy=                  0.166130
 Thermal correction to Gibbs Free Energy=         0.116294
 Sum of electronic and zero-point Energies=           -565.624729
 Sum of electronic and thermal Energies=              -565.614439
 Sum of electronic and thermal Enthalpies=            -565.613495
 Sum of electronic and thermal Free Energies=         -565.663332

                     E (Thermal)             CV                S
                      KCal/Mol        Cal/Mol-Kelvin    Cal/Mol-Kelvin
 Total                  103.656             36.838            104.890
 Electronic               0.000              0.000              0.000
 Translational            0.889              2.981             41.194
 Rotational               0.889              2.981             30.685
 Vibrational            101.879             30.876             33.011
 Vibration     1          0.593              1.984              5.877
 Vibration     2          0.594              1.981              5.284
 Vibration     3          0.596              1.976              4.636
 Vibration     4          0.599              1.966              4.051
 Vibration     5          0.626              1.878              2.427
 Vibration     6          0.647              1.811              1.960
 Vibration     7          0.679              1.714              1.545
 Vibration     8          0.719              1.599              1.220
 Vibration     9          0.747              1.519              1.052
 Vibration    10          0.771              1.457              0.941

                           ! Non-Optimized Parameters !
 Normal termination of Gaussian 16 at Wed Dec  9 17:48:27 2020.

 ----------------------------------------------------------------------
 # B3LYP/6-311++G(d,p) empiricaldispersion=gd3bj scf=xqc pop=npa geom=c
 heck
 ----------------------------------------------------------------------

 --------------------------------------
 CID_53015245_JID_2621_Energie_neutraal
 --------------------------------------
 Structure from the checkpoint file:  "JID_2621.chk"
 Charge =  0 Multiplicity = 1

 SCF Done:  E(RB3LYP) =  -565.931803210     A.U. after   14 cycles
 Normal termination of Gaussian 16 at Wed Dec  9 17:50:30 2020.

 ----------------------------------------------------------------------
 # B3LYP/6-311++G(d,p) empiricaldispersion=gd3bj scf=xqc pop=npa geom=c
 heck
 ----------------------------------------------------------------------

 ------------------------------------
 CID_53015245_JID_2621_Energie_kation
 ------------------------------------
 Structure from the checkpoint file:  "JID_2621.chk"
 Charge =  1 Multiplicity = 2

 SCF Done:  E(UB3LYP) =  -565.611559467     A.U. after   24 cycles
 Normal termination of Gaussian 16 at Wed Dec  9 17:53:57 2020.
 Gaussian 16:  ES64L-G16RevA.03 25-Dec-2016

 ----------------------------------------------------------------------
 # B3LYP/6-311++G(d,p) empiricaldispersion=gd3bj scf=xqc pop=npa geom=c
 heck
 ----------------------------------------------------------------------

 -----------------------------------
 CID_53015245_JID_2621_Energie_anion
 -----------------------------------
 Structure from the checkpoint file:  "JID_2621.chk"
 Charge = -1 Multiplicity = 2

                         Standard orientation:
 ---------------------------------------------------------------------
 Center     Atomic      Atomic             Coordinates (Angstroms)
 Number     Number       Type             X           Y           Z
 ---------------------------------------------------------------------
      1          6           0        3.466463    1.511251   -0.235677
      2          6           0        2.420536    0.473143   -0.046947
      3          7           0        1.306627    0.549685    0.623966
      4          6           0        0.763236   -0.702321    0.434227
      5          7           0        1.480707   -1.512363   -0.301095
      6          8           0        2.603122   -0.728946   -0.629613
      7          6           0       -0.569288   -1.106600    0.989387
      8          7           0       -1.655577   -0.377013    0.358670
      9          6           0       -2.148631   -0.584712   -0.917799
     10          6           0       -3.088694    0.396231   -1.107590
     11          7           0       -3.181870    1.205650    0.006436
     12          6           0       -2.305796    0.720636    0.858051
     13          1           0        4.432967    1.157762    0.138119
     14          1           0        3.584914    1.747186   -1.298363
     15          1           0        3.175629    2.413246    0.303976
     16          1           0       -0.711445   -2.180364    0.843711
     17          1           0       -0.598599   -0.895591    2.061765
     18          1           0       -1.785302   -1.390153   -1.538293
     19          1           0       -3.709667    0.564567   -1.976854
     20          1           0       -2.089628    1.107437    1.845090
 ---------------------------------------------------------------------

 SCF Done:  E(UB3LYP) =  -565.922272846     A.U. after   33 cycles
 SCF Done:  E(UB3LYP) =  -565.922272846     a.u. after    1 cycles

 The electronic state is 2-A.
 Alpha  occ. eigenvalues --  -19.08879 -14.26833 -14.23757 -14.19912 -14.19010
 Alpha  occ. eigenvalues --  -10.15127 -10.12363 -10.11681 -10.11593 -10.09482
 Alpha  occ. eigenvalues --  -10.08264 -10.07589  -1.04020  -0.91643  -0.82122
 Alpha  occ. eigenvalues --   -0.78594  -0.75552  -0.65418  -0.63648  -0.62032
 Alpha  occ. eigenvalues --   -0.51070  -0.49837  -0.48788  -0.47150  -0.43512
 Alpha  occ. eigenvalues --   -0.39602  -0.37814  -0.35470  -0.34406  -0.33025
 Alpha  occ. eigenvalues --   -0.32102  -0.31176  -0.30947  -0.30576  -0.28819
 Alpha  occ. eigenvalues --   -0.28599  -0.22301  -0.21386  -0.18232  -0.17697
 Alpha  occ. eigenvalues --   -0.17176  -0.16821  -0.13213   0.04910
 Alpha virt. eigenvalues --    0.06897   0.07738   0.08471   0.09357   0.10469
 Alpha virt. eigenvalues --    0.10994   0.11256   0.11540   0.12148   0.13062
 Alpha virt. eigenvalues --    0.13764   0.14384   0.14926   0.15908   0.16359

  Beta  occ. eigenvalues --  -19.08704 -14.26822 -14.23492 -14.19956 -14.19003
  Beta  occ. eigenvalues --  -10.14940 -10.12347 -10.11650 -10.11495 -10.09466
  Beta  occ. eigenvalues --  -10.08263 -10.07559  -1.03713  -0.91616  -0.81981
  Beta  occ. eigenvalues --   -0.78538  -0.75200  -0.65357  -0.63518  -0.61885
  Beta  occ. eigenvalues --   -0.50935  -0.49776  -0.48572  -0.47049  -0.43406
  Beta  occ. eigenvalues --   -0.39393  -0.37156  -0.35415  -0.34311  -0.32945
  Beta  occ. eigenvalues --   -0.31998  -0.31071  -0.30814  -0.30358  -0.28693
  Beta  occ. eigenvalues --   -0.28475  -0.22024  -0.20862  -0.18112  -0.17445
  Beta  occ. eigenvalues --   -0.17124  -0.15889  -0.13117
  Beta virt. eigenvalues --    0.07611   0.08041   0.08680   0.09539   0.09786
  Beta virt. eigenvalues --    0.10890   0.11428   0.11857   0.12066   0.12448
  Beta virt. eigenvalues --    0.13241   0.14015   0.14812   0.15067   0.15955

 Mulliken charges and spin densities:
               1          2
     1  C    2.529213  -3.254452
     2  C   -1.805493   1.840871
     3  N   -0.144911   0.048878
     4  C    0.318441   0.574888
     5  N   -0.432285   0.209192
     6  O    0.192859   0.013348
     7  C    0.198957  -1.262977
     8  N    0.095333   0.124926
     9  C   -0.388545   0.294050
    10  C    0.146005  -0.330259
    11  N   -0.199820   0.013599
    12  C    0.058964  -0.181136
    13  H   -0.153867   0.314068
    14  H   -0.651484   0.844873
    15  H   -0.084805   0.246613
    16  H   -0.176213   0.398630
    17  H   -0.550415   0.748922
    18  H    0.045133   0.087766
    19  H    0.076564   0.049989
    20  H   -0.073630   0.218211
 Sum of Mulliken charges =  -1.00000   1.00000

 Dipole moment (field-independent basis, Debye):
    X=             -2.3419    Y=             -1.8690    Z=             -0.7666  Tot=              3.0928
 Quadrupole moment (field-independent basis, Debye-Ang):
   XX=           -129.2611   YY=           -104.6719   ZZ=            -95.8009
   XY=             -3.1892   XZ=             12.2555   YZ=              6.3464

 Summary of Natural Population Analysis:

                                       Natural Population
                Natural  -----------------------------------------------
    Atom  No    Charge         Core      Valence    Rydberg      Total
 -----------------------------------------------------------------------
      C    1   -0.31692      0.99962     2.31170    0.00560     3.31692
      C    2    0.31320      0.99965     1.66867    0.01848     2.68680
      N    3   -0.28404      0.99967     2.77467    0.00969     3.78404
      C    4    0.17080      0.99964     1.81112    0.01844     2.82920
      N    5   -0.06155      0.99966     2.54940    0.01249     3.56155
      O    6   -0.16226      0.99985     3.15403    0.00838     4.16226
      C    7   -0.10037      0.99955     2.08762    0.01319     3.10037
      N    8   -0.20375      0.99965     2.69253    0.01157     3.70375
      C    9   -0.03396      0.99955     2.02289    0.01152     3.03396
      C   10   -0.03904      0.99959     2.02618    0.01327     3.03904
      N   11   -0.26108      0.99973     2.75040    0.01095     3.76108
      C   12    0.11649      0.99963     1.86606    0.01782     2.88351
      H   13    0.10985      0.00000     0.38914    0.00102     0.39015
      H   14    0.11892      0.00000     0.37546    0.00561     0.38108
      H   15    0.11400      0.00000     0.38487    0.00113     0.38600
      H   16    0.11121      0.00000     0.38686    0.00193     0.38879
      H   17    0.11428      0.00000     0.38196    0.00376     0.38572
      H   18    0.10542      0.00000     0.39366    0.00092     0.39458
      H   19    0.09345      0.00000     0.40566    0.00089     0.40655
      H   20    0.09535      0.00000     0.40314    0.00151     0.40465
 =======================================================================
   * Total *   -0.00000     11.99578    30.83602    0.16820    43.00000

 Normal termination of Gaussian 16 at Wed Dec  9 17:58:27 2020.
