 Gaussian 16, Revision A.03,

 -----------------------------------------------------------
 # opt freq B3LYP/6-31G(d) empiricaldispersion=gd3bj scf=xqc
 -----------------------------------------------------------

 -------------------------------
 CID_113385988_JID_8898_neutraal
 -------------------------------
 Symbolic Z-matrix:
 Charge =  0 Multiplicity = 1

 SCF Done:  E(RB3LYP) =  -1825.18710906     A.U. after   15 cycles
 SCF Done:  E(RB3LYP) =  -1825.19209470     A.U. after   13 cycles
 SCF Done:  E(RB3LYP) =  -1825.19277110     A.U. after   12 cycles
 SCF Done:  E(RB3LYP) =  -1825.19299565     A.U. after   13 cycles
 SCF Done:  E(RB3LYP) =  -1825.19331214     A.U. after   13 cycles
 SCF Done:  E(RB3LYP) =  -1825.19367118     A.U. after   12 cycles
 SCF Done:  E(RB3LYP) =  -1825.19365595     A.U. after   14 cycles
 SCF Done:  E(RB3LYP) =  -1825.19434094     A.U. after   12 cycles
 SCF Done:  E(RB3LYP) =  -1825.19459557     A.U. after   12 cycles
 SCF Done:  E(RB3LYP) =  -1825.19478832     A.U. after   12 cycles
 SCF Done:  E(RB3LYP) =  -1825.19489268     A.U. after   10 cycles
 SCF Done:  E(RB3LYP) =  -1825.19489524     A.U. after   10 cycles
 SCF Done:  E(RB3LYP) =  -1825.19489652     A.U. after   10 cycles
 SCF Done:  E(RB3LYP) =  -1825.19489683     A.U. after    8 cycles
 SCF Done:  E(RB3LYP) =  -1825.19489690     A.U. after    8 cycles
 Optimization completed.
    -- Stationary point found.
 Normal termination of Gaussian 16 at Fri Dec 11 23:04:07 2020.

 --------------------------------------------------------------------
 #N Geom=AllCheck Guess=TCheck SCRF=Check GenChk RB3LYP/6-31G(d) Freq
 --------------------------------------------------------------------

 Structure from the checkpoint file:  "JID_8898.chk"
 -------------------------------
 CID_113385988_JID_8898_neutraal
 -------------------------------
 Charge =  0 Multiplicity = 1

 SCF Done:  E(RB3LYP) =  -1825.19489690     A.U. after    1 cycles

  Exact polarizability: 231.523  14.993 195.611 -15.537   6.184 156.382
 Approx polarizability: 353.344  29.433 314.940 -34.847   6.571 257.112

                      1                      2                      3
                      A                      A                      A
 Frequencies --     17.1175                31.5400                40.0831
 Red. masses --      4.3605                 5.3696                 4.9004
 Frc consts  --      0.0008                 0.0031                 0.0046
 IR Inten    --      0.0546                 0.6012                 0.6217

                      4                      5                      6
                      A                      A                      A
 Frequencies --     49.6784                58.4982                64.8587
 Red. masses --      3.3165                 3.6463                 3.5590
 Frc consts  --      0.0048                 0.0074                 0.0088
 IR Inten    --      0.8493                 2.8876                 0.3944

                      7                      8                      9
                      A                      A                      A
 Frequencies --     79.5756               124.6492               134.1851
 Red. masses --      3.8920                 4.4741                 3.5125
 Frc consts  --      0.0145                 0.0410                 0.0373
 IR Inten    --      0.4160                 1.8831                 0.5168

                     10                     11                     12
                      A                      A                      A
 Frequencies --    161.4093               165.8660               197.3736
 Red. masses --      1.1107                 2.9338                 4.2557
 Frc consts  --      0.0170                 0.0476                 0.0977
 IR Inten    --      0.0760                 0.2131                 0.3513

                     13                     14                     15
                      A                      A                      A
 Frequencies --    227.0963               231.7698               248.7413
 Red. masses --      2.0442                 3.1517                 3.3507
 Frc consts  --      0.0621                 0.0998                 0.1221
 IR Inten    --      1.6972                 0.1465                 3.6247

                     16                     17                     18
                      A                      A                      A
 Frequencies --    258.9007               274.1463               315.6695
 Red. masses --      1.7506                 2.4206                 3.3151
 Frc consts  --      0.0691                 0.1072                 0.1946
 IR Inten    --     17.9117                24.7786                 2.6863

                     19                     20                     21
                      A                      A                      A
 Frequencies --    327.1681               349.9450               384.5424
 Red. masses --      3.1127                 6.2137                 4.6704
 Frc consts  --      0.1963                 0.4483                 0.4069
 IR Inten    --      8.9274                 2.7268                 3.6132

                     22                     23                     24
                      A                      A                      A
 Frequencies --    409.4282               432.1133               469.7386
 Red. masses --      4.7809                 7.0410                 7.3321
 Frc consts  --      0.4722                 0.7746                 0.9532
 IR Inten    --      2.0389                 1.4448                 2.8013

                     25                     26                     27
                      A                      A                      A
 Frequencies --    495.0296               547.1893               553.5837
 Red. masses --      4.1180                 4.5065                 8.2492
 Frc consts  --      0.5946                 0.7950                 1.4895
 IR Inten    --      1.4669                 0.6003                 1.6152

                     28                     29                     30
                      A                      A                      A
 Frequencies --    567.6075               589.5093               616.1420
 Red. masses --      6.6338                 5.6054                 4.2478
 Frc consts  --      1.2592                 1.1477                 0.9501
 IR Inten    --      3.3402                 2.2225                 2.9482

                     31                     32                     33
                      A                      A                      A
 Frequencies --    695.1254               700.3072               736.5535
 Red. masses --      7.1613                 6.0264                 5.5855
 Frc consts  --      2.0388                 1.7414                 1.7853
 IR Inten    --      2.4698                 2.5058                 2.4548

                     34                     35                     36
                      A                      A                      A
 Frequencies --    763.9220               770.1447               774.7798
 Red. masses --      2.8094                 6.2136                 5.2831
 Frc consts  --      0.9660                 2.1714                 1.8685
 IR Inten    --     28.5489                13.6373                15.3164

                     37                     38                     39
                      A                      A                      A
 Frequencies --    806.5813               814.5729               815.3547
 Red. masses --      1.7768                 2.4435                 1.6497
 Frc consts  --      0.6810                 0.9553                 0.6462
 IR Inten    --     12.5619                 6.9136                 8.6220

                     40                     41                     42
                      A                      A                      A
 Frequencies --    876.5969               935.4827               939.0187
 Red. masses --      1.3649                 1.3403                 4.6554
 Frc consts  --      0.6179                 0.6911                 2.4186
 IR Inten    --    102.4350                 0.2993                32.3656

                     43                     44                     45
                      A                      A                      A
 Frequencies --    985.3521               989.5280              1000.6207
 Red. masses --      1.3029                 1.1793                 2.7490
 Frc consts  --      0.7453                 0.6804                 1.6217
 IR Inten    --      2.3985                 2.4570                30.8923

                     46                     47                     48
                      A                      A                      A
 Frequencies --   1007.6314              1010.8919              1052.3587
 Red. masses --      1.4735                 1.7485                 5.7420
 Frc consts  --      0.8814                 1.0528                 3.7466
 IR Inten    --     25.4386                24.9870               114.3296

                     49                     50                     51
                      A                      A                      A
 Frequencies --   1061.5543              1093.5814              1101.0945
 Red. masses --      2.8715                 2.0651                 4.9898
 Frc consts  --      1.9065                 1.4551                 3.5643
 IR Inten    --      2.1286                13.1473                 6.0158

                     52                     53                     54
                      A                      A                      A
 Frequencies --   1109.3485              1113.3433              1159.1294
 Red. masses --      2.5485                 1.6108                 1.4813
 Frc consts  --      1.8478                 1.1764                 1.1727
 IR Inten    --      0.7824                 2.0916                 5.5117

                     55                     56                     57
                      A                      A                      A
 Frequencies --   1192.4675              1237.7476              1254.9456
 Red. masses --      1.1642                 2.1702                 1.6513
 Frc consts  --      0.9754                 1.9589                 1.5322
 IR Inten    --      0.3201                 9.2502                 1.3756

                     58                     59                     60
                      A                      A                      A
 Frequencies --   1287.2253              1315.8352              1338.4949
 Red. masses --      1.4193                 2.0261                 2.2807
 Frc consts  --      1.3856                 2.0669                 2.4074
 IR Inten    --     28.1160                 7.9954                79.1471

                     61                     62                     63
                      A                      A                      A
 Frequencies --   1350.6731              1370.3244              1384.8703
 Red. masses --      1.8452                 1.9783                 1.1566
 Frc consts  --      1.9833                 2.1887                 1.3069
 IR Inten    --      1.0585                24.6716                 4.1196

                     64                     65                     66
                      A                      A                      A
 Frequencies --   1431.5959              1437.9943              1453.6804
 Red. masses --      1.3158                 1.4128                 5.7095
 Frc consts  --      1.5888                 1.7213                 7.1087
 IR Inten    --      6.5409                23.1969                56.6284

                     67                     68                     69
                      A                      A                      A
 Frequencies --   1473.9286              1483.9013              1494.4110
 Red. masses --      3.1263                 2.1355                 1.0567
 Frc consts  --      4.0016                 2.7705                 1.3904
 IR Inten    --      0.9955                 6.4335                 6.8703

                     70                     71                     72
                      A                      A                      A
 Frequencies --   1504.9582              1511.2116              1524.5563
 Red. masses --      1.0915                 1.0585                 1.0575
 Frc consts  --      1.4566                 1.4242                 1.4482
 IR Inten    --      4.8744                 5.4347                 7.9855

                     73                     74                     75
                      A                      A                      A
 Frequencies --   1531.7315              1536.9440              1553.2418
 Red. masses --      1.1186                 1.1371                 4.5703
 Frc consts  --      1.5463                 1.5826                 6.4964
 IR Inten    --      5.6933                 0.9103                55.4600

                     76                     77                     78
                      A                      A                      A
 Frequencies --   1613.4895              1632.2247              1695.7041
 Red. masses --      6.0446                 5.7819                 1.0909
 Frc consts  --      9.2715                 9.0757                 1.8481
 IR Inten    --      1.5351                 2.6237                24.5999

                     79                     80                     81
                      A                      A                      A
 Frequencies --   3018.8500              3051.2054              3058.2587
 Red. masses --      1.0734                 1.0675                 1.0351
 Frc consts  --      5.7638                 5.8556                 5.7039
 IR Inten    --     48.1673                13.2408                24.0945

                     82                     83                     84
                      A                      A                      A
 Frequencies --   3065.3994              3117.5352              3127.6103
 Red. masses --      1.0290                 1.0962                 1.1036
 Frc consts  --      5.6969                 6.2773                 6.3603
 IR Inten    --     23.1637                 2.2762                26.9997

                     85                     86                     87
                      A                      A                      A
 Frequencies --   3140.7553              3153.0697              3154.9995
 Red. masses --      1.1015                 1.1070                 1.0876
 Frc consts  --      6.4018                 6.4842                 6.3783
 IR Inten    --     39.0745                12.2906                14.1747

                     88                     89                     90
                      A                      A                      A
 Frequencies --   3159.8660              3198.7432              3214.7217
 Red. masses --      1.1057                 1.0869                 1.0917
 Frc consts  --      6.5047                 6.5521                 6.6473
 IR Inten    --      7.9486                 4.6074                 4.3419

                     91                     92                     93
                      A                      A                      A
 Frequencies --   3222.5991              3456.6374              3544.5881
 Red. masses --      1.0967                 1.0495                 1.0923
 Frc consts  --      6.7103                 7.3884                 8.0862
 IR Inten    --     12.1130                 3.0019                 0.3957

 - Thermochemistry -
 -------------------
 Temperature   298.150 Kelvin.  Pressure   1.00000 Atm.
 Atom     1 has atomic number  6 and mass  12.00000

 Molecular mass:   297.04281 amu.
 Principal axes and moments of inertia in atomic units:
                           1         2         3
     Eigenvalues --  3956.126468024.677059562.15098
           X            0.99993  -0.01195   0.00100
           Y            0.01195   0.99992   0.00282
           Z           -0.00104  -0.00281   1.00000
 This molecule is an asymmetric top.
 Rotational symmetry number  1.
 Warning -- assumption of classical behavior for rotation
           may cause significant error
 Rotational temperatures (Kelvin)      0.02189     0.01079     0.00906
 Rotational constants (GHZ):           0.45619     0.22490     0.18874
 Zero-point vibrational energy     676087.6 (Joules/Mol)
                                  161.58882 (Kcal/Mol)
 Warning -- explicit consideration of  30 degrees of freedom as
           vibrations may cause significant error
 Vibrational temperatures:     24.63    45.38    57.67    71.48    84.17
          (Kelvin)             93.32   114.49   179.34   193.06   232.23
                              238.64   283.98   326.74   333.47   357.88
                              372.50   394.44   454.18   470.72   503.49
                              553.27   589.08   621.71   675.85   712.24
                              787.28   796.48   816.66   848.17   886.49
                             1000.13  1007.59  1059.74  1099.11  1108.07
                             1114.74  1160.49  1171.99  1173.11  1261.23
                             1345.95  1351.04  1417.70  1423.71  1439.67
                             1449.76  1454.45  1514.11  1527.34  1573.42
                             1584.23  1596.11  1601.85  1667.73  1715.69
                             1780.84  1805.59  1852.03  1893.19  1925.80
                             1943.32  1971.59  1992.52  2059.75  2068.95
                             2091.52  2120.65  2135.00  2150.12  2165.30
                             2174.30  2193.50  2203.82  2211.32  2234.77
                             2321.45  2348.41  2439.74  4343.45  4390.00
                             4400.15  4410.43  4485.44  4499.93  4518.85
                             4536.56  4539.34  4546.34  4602.28  4625.27
                             4636.60  4973.33  5099.87

 Zero-point correction=                           0.257508 (Hartree/Particle)
 Thermal correction to Energy=                    0.276724
 Thermal correction to Enthalpy=                  0.277668
 Thermal correction to Gibbs Free Energy=         0.207013
 Sum of electronic and zero-point Energies=          -1824.937389
 Sum of electronic and thermal Energies=             -1824.918173
 Sum of electronic and thermal Enthalpies=           -1824.917229
 Sum of electronic and thermal Free Energies=        -1824.987884

                     E (Thermal)             CV                S
                      KCal/Mol        Cal/Mol-Kelvin    Cal/Mol-Kelvin
 Total                  173.647             69.424            148.706
 Electronic               0.000              0.000              0.000
 Translational            0.889              2.981             42.963
 Rotational               0.889              2.981             34.073
 Vibrational            171.870             63.462             71.670
 Vibration     1          0.593              1.986              6.943
 Vibration     2          0.594              1.983              5.730
 Vibration     3          0.594              1.981              5.255
 Vibration     4          0.595              1.978              4.830
 Vibration     5          0.596              1.974              4.507
 Vibration     6          0.597              1.971              4.304
 Vibration     7          0.600              1.963              3.901
 Vibration     8          0.610              1.928              3.027
 Vibration     9          0.613              1.919              2.885
 Vibration    10          0.622              1.890              2.533
 Vibration    11          0.624              1.884              2.482
 Vibration    12          0.637              1.844              2.157
 Vibration    13          0.651              1.800              1.902
 Vibration    14          0.653              1.792              1.865
 Vibration    15          0.662              1.765              1.739
 Vibration    16          0.668              1.748              1.669
 Vibration    17          0.676              1.721              1.570
 Vibration    18          0.703              1.644              1.332
 Vibration    19          0.711              1.621              1.274
 Vibration    20          0.727              1.575              1.166
 Vibration    21          0.753              1.503              1.021
 Vibration    22          0.774              1.450              0.929
 Vibration    23          0.793              1.400              0.852
 Vibration    24          0.827              1.317              0.738
 Vibration    25          0.851              1.261              0.671
 Vibration    26          0.902              1.146              0.550
 Vibration    27          0.909              1.132              0.537
 Vibration    28          0.924              1.101              0.509
 Vibration    29          0.947              1.054              0.468
 Vibration    30          0.976              0.998              0.423

                           ! Non-Optimized Parameters !
 Normal termination of Gaussian 16 at Fri Dec 11 23:21:44 2020.

 ----------------------------------------------------------------------
 # B3LYP/6-311++G(d,p) empiricaldispersion=gd3bj scf=xqc pop=npa geom=c
 heck
 ----------------------------------------------------------------------

 ---------------------------------------
 CID_113385988_JID_8898_Energie_neutraal
 ---------------------------------------
 Structure from the checkpoint file:  "JID_8898.chk"
 Charge =  0 Multiplicity = 1

 SCF Done:  E(RB3LYP) =  -1825.44677768     A.U. after   18 cycles
 Normal termination of Gaussian 16 at Fri Dec 11 23:31:17 2020.

 ----------------------------------------------------------------------
 # B3LYP/6-311++G(d,p) empiricaldispersion=gd3bj scf=xqc pop=npa geom=c
 heck
 ----------------------------------------------------------------------

 -------------------------------------
 CID_113385988_JID_8898_Energie_kation
 -------------------------------------
 Structure from the checkpoint file:  "JID_8898.chk"
 Charge =  1 Multiplicity = 2

 SCF Done:  E(UB3LYP) =  -1825.14951554     A.U. after   31 cycles
 Normal termination of Gaussian 16 at Fri Dec 11 23:55:07 2020.
 Gaussian 16:  ES64L-G16RevA.03 25-Dec-2016

 ----------------------------------------------------------------------
 # B3LYP/6-311++G(d,p) empiricaldispersion=gd3bj scf=xqc pop=npa geom=c
 heck
 ----------------------------------------------------------------------

 ------------------------------------
 CID_113385988_JID_8898_Energie_anion
 ------------------------------------
 Structure from the checkpoint file:  "JID_8898.chk"
 Charge = -1 Multiplicity = 2

                         Standard orientation:
 ---------------------------------------------------------------------
 Center     Atomic      Atomic             Coordinates (Angstroms)
 Number     Number       Type             X           Y           Z
 ---------------------------------------------------------------------
      1          6           0       -1.480941    3.341186   -0.161560
      2          6           0       -2.562430    2.595595   -0.956161
      3          6           0       -2.748444    1.186465   -0.471739
      4          7           0       -3.927195    0.740294   -0.102495
      5         16           0       -3.743073   -0.869040    0.383569
      6          6           0       -2.020813   -0.814525    0.049733
      7          7           0       -1.649639    0.353141   -0.401944
      8         16           0       -0.956782   -2.178915    0.364596
      9          6           0        0.578677   -1.559951   -0.340285
     10          6           0        0.971794   -2.115405   -1.559601
     11          6           0        2.168800   -1.719938   -2.151455
     12          6           0        2.956844   -0.760753   -1.524041
     13          6           0        2.558029   -0.198138   -0.305306
     14          6           0        1.357981   -0.591406    0.318422
     15          6           0        0.964125   -0.025364    1.665812
     16          7           0        1.606133   -0.811309    2.728356
     17         16           0        3.655419    1.011018    0.454806
     18          6           0        2.909798    2.554828   -0.195300
     19          1           0       -1.757004    3.422009    0.895316
     20          1           0       -1.339851    4.352576   -0.556511
     21          1           0       -0.528620    2.805676   -0.223819
     22          1           0       -3.525744    3.108572   -0.892063
     23          1           0       -2.277027    2.561008   -2.015772
     24          1           0        0.335897   -2.852158   -2.038717
     25          1           0        2.479666   -2.153285   -3.097232
     26          1           0        3.892831   -0.438661   -1.968772
     27          1           0        1.213531    1.045282    1.686854
     28          1           0       -0.114869   -0.101945    1.796349
     29          1           0        1.273621   -0.478227    3.632428
     30          1           0        2.608292   -0.622808    2.708125
     31          1           0        2.929426    2.557912   -1.287711
     32          1           0        1.880682    2.670168    0.154886
     33          1           0        3.514530    3.384439    0.180573
 ---------------------------------------------------------------------

 SCF Done:  E(UB3LYP) =  -1825.45061534     A.U. after   33 cycles
 SCF Done:  E(UB3LYP) =  -1825.45061534     a.u. after    1 cycles

 The electronic state is 2-A.
 Alpha  occ. eigenvalues --  -88.77300 -88.75412 -88.73496 -14.20021 -14.19127
 Alpha  occ. eigenvalues --  -14.19022 -10.13265 -10.11711 -10.09595 -10.08601
 Alpha  occ. eigenvalues --  -10.08554 -10.08487 -10.08020 -10.07244 -10.06843
 Alpha  occ. eigenvalues --  -10.06770 -10.06225 -10.05980  -7.85786  -7.83999
 Alpha  occ. eigenvalues --   -7.82059  -5.82179  -5.81722  -5.81291  -5.80399
 Alpha  occ. eigenvalues --   -5.79980  -5.79415  -5.78454  -5.78103  -5.77433
 Alpha  occ. eigenvalues --   -0.88316  -0.78650  -0.76115  -0.75086  -0.70415
 Alpha  occ. eigenvalues --   -0.68889  -0.67157  -0.64286  -0.62920  -0.59886
 Alpha  occ. eigenvalues --   -0.56160  -0.53651  -0.53046  -0.49013  -0.46815
 Alpha  occ. eigenvalues --   -0.46266  -0.42792  -0.40082  -0.38217  -0.36816
 Alpha  occ. eigenvalues --   -0.36320  -0.35157  -0.33958  -0.33636  -0.32383
 Alpha  occ. eigenvalues --   -0.32146  -0.31667  -0.30983  -0.29721  -0.29485
 Alpha  occ. eigenvalues --   -0.28332  -0.27354  -0.26742  -0.26076  -0.25137
 Alpha  occ. eigenvalues --   -0.24663  -0.23999  -0.22693  -0.21611  -0.20216
 Alpha  occ. eigenvalues --   -0.19437  -0.16547  -0.16136  -0.14934  -0.14646
 Alpha  occ. eigenvalues --   -0.14132  -0.12520  -0.11802   0.03920
 Alpha virt. eigenvalues --    0.06475   0.07127   0.07405   0.07960   0.08409
 Alpha virt. eigenvalues --    0.08671   0.09566   0.09984   0.10012   0.10570
 Alpha virt. eigenvalues --    0.10623   0.11502   0.11915   0.12128   0.12874

  Beta  occ. eigenvalues --  -88.77270 -88.75415 -88.73495 -14.19775 -14.19119
  Beta  occ. eigenvalues --  -14.19009 -10.12949 -10.11665 -10.09592 -10.08501
  Beta  occ. eigenvalues --  -10.08483 -10.08398 -10.07996 -10.07250 -10.06844
  Beta  occ. eigenvalues --  -10.06707 -10.06021 -10.05956  -7.85758  -7.84001
  Beta  occ. eigenvalues --   -7.82057  -5.82169  -5.81714  -5.81183  -5.80407
  Beta  occ. eigenvalues --   -5.79988  -5.79412  -5.78441  -5.78108  -5.77433
  Beta  occ. eigenvalues --   -0.88059  -0.78583  -0.75872  -0.74837  -0.70218
  Beta  occ. eigenvalues --   -0.68709  -0.67042  -0.64136  -0.62694  -0.59720
  Beta  occ. eigenvalues --   -0.56042  -0.53499  -0.52939  -0.48791  -0.46631
  Beta  occ. eigenvalues --   -0.46088  -0.42612  -0.40006  -0.38126  -0.36726
  Beta  occ. eigenvalues --   -0.36194  -0.35010  -0.33853  -0.33515  -0.32233
  Beta  occ. eigenvalues --   -0.31817  -0.31538  -0.30899  -0.29443  -0.29301
  Beta  occ. eigenvalues --   -0.28187  -0.27189  -0.26456  -0.25935  -0.25030
  Beta  occ. eigenvalues --   -0.24486  -0.23859  -0.22524  -0.21387  -0.19362
  Beta  occ. eigenvalues --   -0.19164  -0.16147  -0.15941  -0.14431  -0.14018
  Beta  occ. eigenvalues --   -0.13903  -0.12447  -0.11269
  Beta virt. eigenvalues --    0.06607   0.07454   0.07860   0.08111   0.08413
  Beta virt. eigenvalues --    0.08805   0.09156   0.09576   0.09975   0.10188
  Beta virt. eigenvalues --    0.10585   0.10591   0.11555   0.11944   0.12127

 Mulliken charges and spin densities:
               1          2
     1  C   -0.236881  -0.130362
     2  C   -0.963721   0.434565
     3  C   -0.458758  -0.298814
     4  N   -0.008114   0.101860
     5  S    0.125008   0.072325
     6  C   -0.277688   0.088821
     7  N    0.124143   0.025424
     8  S    0.238966  -0.033063
     9  C    0.953980   0.026604
    10  C   -0.386435   0.134920
    11  C   -0.542182   0.029317
    12  C   -0.107048   0.046293
    13  C    0.287300   0.167322
    14  C    1.075896  -0.280489
    15  C   -1.506634   0.109161
    16  N   -0.287596   0.040960
    17  S   -0.270835   0.135750
    18  C   -0.022432  -0.671464
    19  H    0.048904   0.080135
    20  H   -0.138801   0.277677
    21  H    0.472812  -0.389197
    22  H    0.134225   0.006812
    23  H    0.104328   0.053667
    24  H    0.163924  -0.012915
    25  H    0.123688   0.006097
    26  H    0.150201   0.007208
    27  H   -0.033328   0.109012
    28  H    0.163592   0.039494
    29  H    0.146717   0.065563
    30  H    0.206798   0.004881
    31  H    0.128001   0.048022
    32  H   -0.129896   0.272320
    33  H   -0.278136   0.432094
 Sum of Mulliken charges =  -1.00000   1.00000

 Dipole moment (field-independent basis, Debye):
    X=              0.6053    Y=             -1.4435    Z=             -0.8166  Tot=              1.7655
 Quadrupole moment (field-independent basis, Debye-Ang):
   XX=           -190.4863   YY=           -165.8020   ZZ=           -142.1320
   XY=             -3.8660   XZ=             -3.1602   YZ=              3.3575

 Summary of Natural Population Analysis:

                                       Natural Population
                Natural  -----------------------------------------------
    Atom  No    Charge         Core      Valence    Rydberg      Total
 -----------------------------------------------------------------------
      C    1   -0.28376      0.99966     2.27828    0.00581     3.28376
      C    2   -0.20485      0.99959     2.19692    0.00834     3.20485
      C    3    0.20100      0.99962     1.78103    0.01834     2.79900
      N    4   -0.29642      0.99968     2.78421    0.01253     3.79642
      S    5    0.26026      4.99939     2.71503    0.02531     7.73974
      C    6   -0.00967      0.99960     1.99246    0.01761     3.00967
      N    7   -0.28509      0.99960     2.77070    0.01479     3.78509
      S    8    0.15299      4.99940     2.82745    0.02016     7.84701
      C    9   -0.07738      0.99933     2.06304    0.01500     3.07738
      C   10   -0.05891      0.99949     2.04975    0.00966     3.05891
      C   11   -0.10729      0.99956     2.09943    0.00830     3.10729
      C   12   -0.08342      0.99950     2.07450    0.00942     3.08342
      C   13   -0.06443      0.99934     2.05136    0.01373     3.06443
      C   14   -0.00520      0.99936     1.99288    0.01296     3.00520
      C   15   -0.10392      0.99958     2.09140    0.01293     3.10392
      N   16   -0.41716      0.99977     2.90787    0.00952     3.91716
      S   17    0.08524      4.99958     2.89410    0.02108     7.91476
      C   18   -0.33746      0.99961     2.33121    0.00663     3.33746
      H   19    0.09582      0.00000     0.40314    0.00104     0.40418
      H   20    0.09483      0.00000     0.40423    0.00094     0.40517
      H   21    0.10511      0.00000     0.39306    0.00183     0.39489
      H   22    0.10225      0.00000     0.39594    0.00181     0.39775
      H   23    0.10201      0.00000     0.39670    0.00129     0.39799
      H   24    0.10012      0.00000     0.39896    0.00092     0.39988
      H   25    0.09564      0.00000     0.40339    0.00097     0.40436
      H   26    0.10001      0.00000     0.39888    0.00111     0.39999
      H   27    0.08858      0.00000     0.40948    0.00194     0.41142
      H   28    0.10319      0.00000     0.39509    0.00172     0.39681
      H   29    0.16954      0.00000     0.32899    0.00146     0.33046
      H   30    0.17407      0.00000     0.32412    0.00181     0.32593
      H   31    0.09985      0.00000     0.39888    0.00127     0.40015
      H   32    0.10124      0.00000     0.39693    0.00183     0.39876
      H   33    0.10321      0.00000     0.39520    0.00160     0.39679
 =======================================================================
   * Total *   -0.00000     29.99170    47.74462    0.26368    78.00000

 Normal termination of Gaussian 16 at Sat Dec 12 00:21:14 2020.
