 Gaussian 16, Revision A.03,

 -----------------------------------------------------------
 # opt freq B3LYP/6-31G(d) empiricaldispersion=gd3bj scf=xqc
 -----------------------------------------------------------

 -------------------------------
 CID_106243674_JID_6215_neutraal
 -------------------------------
 Symbolic Z-matrix:
 Charge =  0 Multiplicity = 1

 SCF Done:  E(RB3LYP) =  -1052.29861447     A.U. after   14 cycles
 SCF Done:  E(RB3LYP) =  -1052.30411723     A.U. after   12 cycles
 SCF Done:  E(RB3LYP) =  -1052.30104867     A.U. after   12 cycles
 SCF Done:  E(RB3LYP) =  -1052.30476590     A.U. after   11 cycles
 SCF Done:  E(RB3LYP) =  -1052.30543304     A.U. after   11 cycles
 SCF Done:  E(RB3LYP) =  -1052.30570552     A.U. after   11 cycles
 SCF Done:  E(RB3LYP) =  -1052.30575184     A.U. after   11 cycles
 SCF Done:  E(RB3LYP) =  -1052.30576363     A.U. after   10 cycles
 SCF Done:  E(RB3LYP) =  -1052.30576931     A.U. after    9 cycles
 SCF Done:  E(RB3LYP) =  -1052.30577181     A.U. after    8 cycles
 SCF Done:  E(RB3LYP) =  -1052.30581937     A.U. after   11 cycles
 SCF Done:  E(RB3LYP) =  -1052.30583302     A.U. after   10 cycles
 SCF Done:  E(RB3LYP) =  -1052.30583299     A.U. after    8 cycles
 SCF Done:  E(RB3LYP) =  -1052.30583306     A.U. after    6 cycles
 SCF Done:  E(RB3LYP) =  -1052.30583308     A.U. after    6 cycles
 Optimization completed.
    -- Stationary point found.
 Normal termination of Gaussian 16 at Thu Dec 10 21:36:57 2020.

 --------------------------------------------------------------------
 #N Geom=AllCheck Guess=TCheck SCRF=Check GenChk RB3LYP/6-31G(d) Freq
 --------------------------------------------------------------------

 Structure from the checkpoint file:  "JID_6215.chk"
 -------------------------------
 CID_106243674_JID_6215_neutraal
 -------------------------------
 Charge =  0 Multiplicity = 1

 SCF Done:  E(RB3LYP) =  -1052.30583308     A.U. after    1 cycles

  Exact polarizability: 188.614  19.294 156.476 -10.221  15.753 138.346
 Approx polarizability: 249.829  34.120 238.489 -24.386  36.508 226.345

                      1                      2                      3
                      A                      A                      A
 Frequencies --     27.7048                31.4178                33.8876
 Red. masses --      3.3340                 4.9023                 1.0695
 Frc consts  --      0.0015                 0.0029                 0.0007
 IR Inten    --      0.6846                 0.0816                 0.3225

                      4                      5                      6
                      A                      A                      A
 Frequencies --     53.2514                76.7136               109.4682
 Red. masses --      4.0831                 3.0811                 2.2646
 Frc consts  --      0.0068                 0.0107                 0.0160
 IR Inten    --      1.6472                 0.6996                 1.4943

                      7                      8                      9
                      A                      A                      A
 Frequencies --    137.5794               144.0014               161.4992
 Red. masses --      2.9365                 2.1292                 2.1453
 Frc consts  --      0.0327                 0.0260                 0.0330
 IR Inten    --      2.0232                 0.3993                 4.5816

                     10                     11                     12
                      A                      A                      A
 Frequencies --    183.9985               192.7691               230.0365
 Red. masses --      3.4612                 2.7727                 1.3404
 Frc consts  --      0.0690                 0.0607                 0.0418
 IR Inten    --      1.3908                 0.0319                 1.6339

                     13                     14                     15
                      A                      A                      A
 Frequencies --    235.2604               270.6528               299.4131
 Red. masses --      3.0867                 3.1787                 2.7111
 Frc consts  --      0.1007                 0.1372                 0.1432
 IR Inten    --      1.2287                 1.3562                 0.1384

                     16                     17                     18
                      A                      A                      A
 Frequencies --    316.4690               342.0338               345.5602
 Red. masses --      2.3055                 3.7528                 2.6777
 Frc consts  --      0.1360                 0.2587                 0.1884
 IR Inten    --     12.5371                 0.8694                 3.4961

                     19                     20                     21
                      A                      A                      A
 Frequencies --    366.3876               402.7355               417.3440
 Red. masses --      3.2156                 2.4254                 1.2183
 Frc consts  --      0.2543                 0.2318                 0.1250
 IR Inten    --      1.4955                 3.5599                38.4341

                     22                     23                     24
                      A                      A                      A
 Frequencies --    452.7467               467.2545               484.2563
 Red. masses --      3.7127                 3.2488                 2.8927
 Frc consts  --      0.4484                 0.4179                 0.3997
 IR Inten    --      2.4183                 5.2126                10.4367

                     25                     26                     27
                      A                      A                      A
 Frequencies --    504.7243               520.8466               557.1477
 Red. masses --      2.6859                 1.2340                 3.7732
 Frc consts  --      0.4031                 0.1972                 0.6901
 IR Inten    --     36.0689               106.4004                15.2774

                     28                     29                     30
                      A                      A                      A
 Frequencies --    604.2706               645.8660               697.8095
 Red. masses --      3.7512                 5.7504                 4.8285
 Frc consts  --      0.8070                 1.4133                 1.3853
 IR Inten    --      8.7304                 3.3866                 5.7291

                     31                     32                     33
                      A                      A                      A
 Frequencies --    724.2034               743.4591               751.9788
 Red. masses --      3.1855                 4.9739                 3.8305
 Frc consts  --      0.9843                 1.6198                 1.2762
 IR Inten    --     52.0851                 2.0180                28.4268

                     34                     35                     36
                      A                      A                      A
 Frequencies --    781.1658               801.8565               811.5571
 Red. masses --      2.4184                 1.8675                 2.8229
 Frc consts  --      0.8695                 0.7075                 1.0954
 IR Inten    --     97.1128                29.0329                 5.5460

                     37                     38                     39
                      A                      A                      A
 Frequencies --    837.4047               848.3757               876.8922
 Red. masses --      1.6127                 1.8641                 1.4556
 Frc consts  --      0.6663                 0.7905                 0.6594
 IR Inten    --    106.3663                14.4473                43.4112

                     40                     41                     42
                      A                      A                      A
 Frequencies --    883.8236               920.4170               948.3725
 Red. masses --      1.3927                 1.2817                 1.8048
 Frc consts  --      0.6410                 0.6397                 0.9564
 IR Inten    --     12.4368                 1.1725                14.6924

                     43                     44                     45
                      A                      A                      A
 Frequencies --    953.4778               972.6880               983.7396
 Red. masses --      2.3544                 1.8168                 1.9387
 Frc consts  --      1.2611                 1.0128                 1.1054
 IR Inten    --      7.2826                14.4789                 4.8807

                     46                     47                     48
                      A                      A                      A
 Frequencies --    995.1342              1020.5512              1030.4679
 Red. masses --      1.2230                 1.3828                 1.5584
 Frc consts  --      0.7136                 0.8485                 0.9750
 IR Inten    --     10.5349                23.0048                 0.3848

                     49                     50                     51
                      A                      A                      A
 Frequencies --   1074.4896              1107.9831              1117.1327
 Red. masses --      1.4726                 2.3779                 1.8444
 Frc consts  --      1.0017                 1.7200                 1.3562
 IR Inten    --      6.9764                21.2047                22.5394

                     52                     53                     54
                      A                      A                      A
 Frequencies --   1125.1405              1155.9046              1189.0444
 Red. masses --      1.9112                 1.3970                 1.2489
 Frc consts  --      1.4255                 1.0997                 1.0403
 IR Inten    --     29.3432                37.3826                11.0018

                     55                     56                     57
                      A                      A                      A
 Frequencies --   1197.6086              1212.1026              1267.4457
 Red. masses --      2.2870                 1.7398                 1.5467
 Frc consts  --      1.9326                 1.5060                 1.4639
 IR Inten    --     22.2949                 3.0922                70.4355

                     58                     59                     60
                      A                      A                      A
 Frequencies --   1291.8321              1293.1094              1311.5425
 Red. masses --      2.1887                 1.5735                 1.4825
 Frc consts  --      2.1520                 1.5502                 1.5025
 IR Inten    --     23.2836                54.7034                23.5206

                     61                     62                     63
                      A                      A                      A
 Frequencies --   1323.3264              1337.6277              1376.1239
 Red. masses --      1.7866                 2.6438                 1.8731
 Frc consts  --      1.8434                 2.7871                 2.0899
 IR Inten    --     11.9369                58.6022                15.0658

                     64                     65                     66
                      A                      A                      A
 Frequencies --   1393.0003              1393.5808              1410.5045
 Red. masses --      1.1751                 2.0846                 1.3132
 Frc consts  --      1.3435                 2.3852                 1.5393
 IR Inten    --      5.1003                12.5087                23.8675

                     67                     68                     69
                      A                      A                      A
 Frequencies --   1442.6951              1443.3980              1453.6057
 Red. masses --      1.3491                 1.3782                 1.8641
 Frc consts  --      1.6544                 1.6918                 2.3206
 IR Inten    --      9.5202                19.3889                 7.0821

                     70                     71                     72
                      A                      A                      A
 Frequencies --   1476.2629              1498.5373              1509.3366
 Red. masses --      1.1295                 1.0579                 1.3770
 Frc consts  --      1.4503                 1.3997                 1.8482
 IR Inten    --      9.2374                 4.1269                37.8339

                     73                     74                     75
                      A                      A                      A
 Frequencies --   1513.9129              1516.3657              1517.1602
 Red. masses --      1.0860                 1.0647                 1.1064
 Frc consts  --      1.4665                 1.4424                 1.5004
 IR Inten    --     14.7312                 3.1241                23.2727

                     76                     77                     78
                      A                      A                      A
 Frequencies --   1530.4012              1531.2555              1548.4054
 Red. masses --      1.0623                 1.2172                 1.0775
 Frc consts  --      1.4659                 1.6815                 1.5221
 IR Inten    --     16.6392                26.0033                 2.0807

                     79                     80                     81
                      A                      A                      A
 Frequencies --   1571.3686              1649.8300              1657.8935
 Red. masses --      2.6896                 4.7234                 1.7037
 Frc consts  --      3.9128                 7.5750                 2.7591
 IR Inten    --     70.8034                 8.5534                28.2684

                     82                     83                     84
                      A                      A                      A
 Frequencies --   1688.6499              3000.0002              3035.7043
 Red. masses --      2.3819                 1.0693                 1.0395
 Frc consts  --      4.0017                 5.6701                 5.6443
 IR Inten    --     56.6241                68.4451                51.5220

                     85                     86                     87
                      A                      A                      A
 Frequencies --   3061.9127              3067.5412              3072.6932
 Red. masses --      1.0388                 1.0317                 1.0572
 Frc consts  --      5.7383                 5.7196                 5.8808
 IR Inten    --      9.0173                19.8262                20.3240

                     88                     89                     90
                      A                      A                      A
 Frequencies --   3087.2734              3098.7140              3119.1055
 Red. masses --      1.0981                 1.0915                 1.1009
 Frc consts  --      6.1666                 6.1752                 6.3104
 IR Inten    --     25.6785                11.8300                19.5705

                     91                     92                     93
                      A                      A                      A
 Frequencies --   3126.3770              3133.3293              3151.3867
 Red. masses --      1.1051                 1.1028                 1.1054
 Frc consts  --      6.3638                 6.3789                 6.4682
 IR Inten    --      0.3133                31.8345                 8.3477

                     94                     95                     96
                      A                      A                      A
 Frequencies --   3158.9756              3159.0976              3163.2363
 Red. masses --      1.1009                 1.0898                 1.1056
 Frc consts  --      6.4727                 6.4081                 6.5182
 IR Inten    --     14.8089                22.4788                 7.1664

                     97                     98                     99
                      A                      A                      A
 Frequencies --   3168.7789              3188.5423              3498.7091
 Red. masses --      1.0868                 1.0939                 1.0495
 Frc consts  --      6.4298                 6.5525                 7.5693
 IR Inten    --     15.4870                27.7105                10.3153

                    100                    101                    102
                      A                      A                      A
 Frequencies --   3511.0898              3609.6166              3647.1474
 Red. masses --      1.0733                 1.0951                 1.0651
 Frc consts  --      7.7960                 8.4068                 8.3473
 IR Inten    --     11.7233                10.3712                41.3741

 - Thermochemistry -
 -------------------
 Temperature   298.150 Kelvin.  Pressure   1.00000 Atm.
 Atom     1 has atomic number  6 and mass  12.00000

 Molecular mass:   240.12964 amu.
 Principal axes and moments of inertia in atomic units:
                           1         2         3
     Eigenvalues --  2472.254407808.551158429.11215
           X            0.99977   0.02006   0.00808
           Y           -0.02014   0.99975   0.01002
           Z           -0.00788  -0.01018   0.99992
 This molecule is an asymmetric top.
 Rotational symmetry number  1.
 Warning -- assumption of classical behavior for rotation
           may cause significant error
 Rotational temperatures (Kelvin)      0.03503     0.01109     0.01028
 Rotational constants (GHZ):           0.73000     0.23112     0.21411
 Zero-point vibrational energy     815760.3 (Joules/Mol)
                                  194.97140 (Kcal/Mol)
 Warning -- explicit consideration of  28 degrees of freedom as
           vibrations may cause significant error
 Vibrational temperatures:     39.86    45.20    48.76    76.62   110.37
          (Kelvin)            157.50   197.95   207.19   232.36   264.73
                              277.35   330.97   338.49   389.41   430.79
                              455.33   492.11   497.18   527.15   579.45
                              600.46   651.40   672.28   696.74   726.19
                              749.38   801.61   869.41   929.26  1003.99
                             1041.97  1069.67  1081.93  1123.92  1153.69
                             1167.65  1204.84  1220.62  1261.65  1271.63
                             1324.27  1364.50  1371.84  1399.48  1415.38
                             1431.78  1468.35  1482.61  1545.95  1594.14
                             1607.30  1618.83  1663.09  1710.77  1723.09
                             1743.95  1823.57  1858.66  1860.50  1887.02
                             1903.97  1924.55  1979.94  2004.22  2005.05
                             2029.40  2075.72  2076.73  2091.41  2124.01
                             2156.06  2171.60  2178.18  2181.71  2182.86
                             2201.91  2203.14  2227.81  2260.85  2373.74
                             2385.34  2429.59  4316.33  4367.70  4405.41
                             4413.51  4420.92  4441.90  4458.36  4487.70
                             4498.16  4508.16  4534.14  4545.06  4545.24
                             4551.19  4559.17  4587.60  5033.86  5051.68
                             5193.43  5247.43

 Zero-point correction=                           0.310707 (Hartree/Particle)
 Thermal correction to Energy=                    0.328781
 Thermal correction to Enthalpy=                  0.329726
 Thermal correction to Gibbs Free Energy=         0.263254
 Sum of electronic and zero-point Energies=          -1051.995126
 Sum of electronic and thermal Energies=             -1051.977052
 Sum of electronic and thermal Enthalpies=           -1051.976108
 Sum of electronic and thermal Free Energies=        -1052.042579

                     E (Thermal)             CV                S
                      KCal/Mol        Cal/Mol-Kelvin    Cal/Mol-Kelvin
 Total                  206.313             67.816            139.902
 Electronic               0.000              0.000              0.000
 Translational            0.889              2.981             42.329
 Rotational               0.889              2.981             33.453
 Vibrational            204.536             61.855             64.119
 Vibration     1          0.593              1.984              5.987
 Vibration     2          0.594              1.983              5.738
 Vibration     3          0.594              1.983              5.588
 Vibration     4          0.596              1.976              4.693
 Vibration     5          0.599              1.965              3.973
 Vibration     6          0.606              1.942              3.278
 Vibration     7          0.614              1.916              2.837
 Vibration     8          0.616              1.909              2.750
 Vibration     9          0.622              1.890              2.532
 Vibration    10          0.631              1.862              2.287
 Vibration    11          0.635              1.850              2.201
 Vibration    12          0.652              1.795              1.879
 Vibration    13          0.655              1.787              1.838
 Vibration    14          0.674              1.727              1.592
 Vibration    15          0.692              1.675              1.420
 Vibration    16          0.703              1.642              1.328
 Vibration    17          0.721              1.591              1.203
 Vibration    18          0.724              1.584              1.186
 Vibration    19          0.739              1.541              1.095
 Vibration    20          0.768              1.464              0.953
 Vibration    21          0.780              1.433              0.901
 Vibration    22          0.811              1.355              0.788
 Vibration    23          0.825              1.323              0.745
 Vibration    24          0.840              1.285              0.699
 Vibration    25          0.860              1.240              0.646
 Vibration    26          0.876              1.204              0.608
 Vibration    27          0.913              1.124              0.530
 Vibration    28          0.963              1.023              0.442

 Optimization completed.
    -- Stationary point found.
 Normal termination of Gaussian 16 at Thu Dec 10 21:50:07 2020.

 ----------------------------------------------------------------------
 # B3LYP/6-311++G(d,p) empiricaldispersion=gd3bj scf=xqc pop=npa geom=c
 heck
 ----------------------------------------------------------------------

 ---------------------------------------
 CID_106243674_JID_6215_Energie_neutraal
 ---------------------------------------
 Structure from the checkpoint file:  "JID_6215.chk"
 Charge =  0 Multiplicity = 1

 SCF Done:  E(RB3LYP) =  -1052.53051831     A.U. after   14 cycles
 Normal termination of Gaussian 16 at Thu Dec 10 21:56:48 2020.

 ----------------------------------------------------------------------
 # B3LYP/6-311++G(d,p) empiricaldispersion=gd3bj scf=xqc pop=npa geom=c
 heck
 ----------------------------------------------------------------------

 -------------------------------------
 CID_106243674_JID_6215_Energie_kation
 -------------------------------------
 Structure from the checkpoint file:  "JID_6215.chk"
 Charge =  1 Multiplicity = 2

 SCF Done:  E(UB3LYP) =  -1052.26637208     A.U. after   30 cycles
 Normal termination of Gaussian 16 at Thu Dec 10 22:17:10 2020.
 Gaussian 16:  ES64L-G16RevA.03 25-Dec-2016

 ----------------------------------------------------------------------
 # B3LYP/6-311++G(d,p) empiricaldispersion=gd3bj scf=xqc pop=npa geom=c
 heck
 ----------------------------------------------------------------------

 ------------------------------------
 CID_106243674_JID_6215_Energie_anion
 ------------------------------------
 Structure from the checkpoint file:  "JID_6215.chk"
 Charge = -1 Multiplicity = 2

                         Standard orientation:
 ---------------------------------------------------------------------
 Center     Atomic      Atomic             Coordinates (Angstroms)
 Number     Number       Type             X           Y           Z
 ---------------------------------------------------------------------
      1          6           0       -4.361022   -2.113056   -1.066428
      2          6           0       -3.586771   -0.998264   -0.405615
      3          6           0       -2.320977   -0.626628   -0.878288
      4          6           0       -1.596045    0.417518   -0.306820
      5          6           0       -2.144951    1.134679    0.780386
      6          6           0       -3.394329    0.751382    1.273073
      7          6           0       -4.101801   -0.300087    0.688801
      8          7           0       -1.400071    2.183159    1.343243
      9          7           0       -0.321670    0.818236   -0.792671
     10          6           0        0.811433    0.389885    0.038083
     11          6           0        2.135492    0.766644   -0.642967
     12          6           0        2.228828    2.272565   -0.887248
     13          6           0        3.353037    0.318907    0.191797
     14         16           0        3.598514   -1.498512    0.315398
     15          6           0        2.738663   -1.891616    1.880309
     16          8           0        2.182039    0.149054   -1.935053
     17          1           0       -4.777723   -1.799009   -2.032828
     18          1           0       -3.726428   -2.986196   -1.259625
     19          1           0       -5.197303   -2.440320   -0.440168
     20          1           0       -1.880801   -1.165043   -1.716561
     21          1           0       -3.822409    1.292684    2.114035
     22          1           0       -5.075905   -0.571596    1.088104
     23          1           0       -0.815695    2.628603    0.639705
     24          1           0       -1.972934    2.866256    1.826420
     25          1           0       -0.160417    0.467369   -1.734417
     26          1           0        0.731842    0.865918    1.020860
     27          1           0        0.791087   -0.700309    0.194444
     28          1           0        2.232405    2.815846    0.064299
     29          1           0        3.147633    2.508192   -1.432572
     30          1           0        1.371845    2.608743   -1.474497
     31          1           0        4.256967    0.694325   -0.296625
     32          1           0        3.317659    0.740104    1.202148
     33          1           0        3.150286   -1.295324    2.699581
     34          1           0        1.660421   -1.733009    1.813806
     35          1           0        2.930997   -2.948115    2.083856
     36          1           0        2.288775   -0.806694   -1.770422
 ---------------------------------------------------------------------

 SCF Done:  E(UB3LYP) =  -1052.51748848     A.U. after   33 cycles
 SCF Done:  E(UB3LYP) =  -1052.51748848     a.u. after    1 cycles

 The electronic state is 2-A.
 Alpha  occ. eigenvalues --  -88.75729 -19.03616 -14.21741 -14.21439 -10.14640
 Alpha  occ. eigenvalues --  -10.11241 -10.11098 -10.10584 -10.10366 -10.10185
 Alpha  occ. eigenvalues --  -10.08153 -10.08011 -10.07465 -10.07356 -10.07213
 Alpha  occ. eigenvalues --  -10.06878  -7.84321  -5.80717  -5.80338  -5.79708
 Alpha  occ. eigenvalues --   -0.94307  -0.84391  -0.80244  -0.74670  -0.72426
 Alpha  occ. eigenvalues --   -0.68307  -0.66292  -0.64276  -0.61141  -0.58861
 Alpha  occ. eigenvalues --   -0.58052  -0.52514  -0.52215  -0.48389  -0.48070
 Alpha  occ. eigenvalues --   -0.42838  -0.42122  -0.41044  -0.40113  -0.38176
 Alpha  occ. eigenvalues --   -0.36998  -0.35235  -0.34951  -0.33899  -0.33592
 Alpha  occ. eigenvalues --   -0.33289  -0.33210  -0.32600  -0.32244  -0.30409
 Alpha  occ. eigenvalues --   -0.29538  -0.29443  -0.28723  -0.27687  -0.27449
 Alpha  occ. eigenvalues --   -0.26415  -0.25291  -0.24463  -0.22322  -0.20965
 Alpha  occ. eigenvalues --   -0.20134  -0.17857  -0.14600  -0.13650  -0.10513
 Alpha  occ. eigenvalues --    0.04166
 Alpha virt. eigenvalues --    0.06025   0.06078   0.06826   0.07697   0.07966
 Alpha virt. eigenvalues --    0.08174   0.08820   0.09081   0.09255   0.09742
 Alpha virt. eigenvalues --    0.10699   0.10949   0.11192   0.11310   0.11912

  Beta  occ. eigenvalues --  -88.75724 -19.03608 -14.21736 -14.21397 -10.14637
  Beta  occ. eigenvalues --  -10.11223 -10.11097 -10.10582 -10.10316 -10.10170
  Beta  occ. eigenvalues --  -10.08154 -10.07998 -10.07455 -10.07347 -10.07199
  Beta  occ. eigenvalues --  -10.06855  -7.84316  -5.80713  -5.80325  -5.79705
  Beta  occ. eigenvalues --   -0.94288  -0.84372  -0.80202  -0.74650  -0.72398
  Beta  occ. eigenvalues --   -0.68277  -0.66265  -0.64252  -0.61086  -0.58828
  Beta  occ. eigenvalues --   -0.58013  -0.52472  -0.52165  -0.48350  -0.48042
  Beta  occ. eigenvalues --   -0.42810  -0.42083  -0.41016  -0.40079  -0.38147
  Beta  occ. eigenvalues --   -0.36970  -0.35205  -0.34918  -0.33859  -0.33549
  Beta  occ. eigenvalues --   -0.33268  -0.33178  -0.32573  -0.32212  -0.30385
  Beta  occ. eigenvalues --   -0.29510  -0.29416  -0.28702  -0.27664  -0.27421
  Beta  occ. eigenvalues --   -0.26391  -0.25266  -0.24435  -0.22274  -0.20938
  Beta  occ. eigenvalues --   -0.20119  -0.17843  -0.14577  -0.13628  -0.10492
  Beta virt. eigenvalues --    0.06004   0.06666   0.07002   0.07305   0.07885
  Beta virt. eigenvalues --    0.08152   0.08437   0.09080   0.09292   0.09569
  Beta virt. eigenvalues --    0.10056   0.10925   0.11163   0.11365   0.11536

 Mulliken charges and spin densities:
               1          2
     1  C    0.953708  -1.540157
     2  C    0.099938   0.274249
     3  C   -0.948717   1.090932
     4  C    0.883876  -0.686258
     5  C    1.123949  -1.169564
     6  C   -1.243158   1.022829
     7  C   -0.279165  -0.647180
     8  N   -0.173364  -0.118057
     9  N    0.212600  -0.031264
    10  C   -1.540946   0.068748
    11  C   -0.000110   0.760258
    12  C    0.710425  -1.131551
    13  C   -0.192749  -0.501080
    14  S   -0.431640   0.590692
    15  C    0.553176  -1.208428
    16  O   -0.170405   0.002275
    17  H    0.091046   0.061895
    18  H    0.009901   0.129801
    19  H   -0.071260   0.208712
    20  H   -0.176670   0.294310
    21  H   -0.535387   0.688331
    22  H   -0.055927   0.173242
    23  H    0.126200   0.149564
    24  H   -0.276620   0.537771
    25  H    0.267764  -0.009350
    26  H    0.300781  -0.063160
    27  H    0.703692  -0.546894
    28  H   -0.309511   0.464894
    29  H    0.026720   0.130165
    30  H    0.034975   0.128959
    31  H    0.128909   0.128954
    32  H   -0.061878   0.240679
    33  H   -0.297291   0.489865
    34  H   -0.267155   0.414267
    35  H   -0.347144   0.519020
    36  H    0.151438   0.082531
 Sum of Mulliken charges =  -1.00000   1.00000

 Dipole moment (field-independent basis, Debye):
    X=             -0.0712    Y=             -1.9422    Z=             -4.7250  Tot=              5.1091
 Quadrupole moment (field-independent basis, Debye-Ang):
   XX=           -180.4738   YY=           -158.7451   ZZ=           -151.6642
   XY=              6.4198   XZ=             -2.0704   YZ=             -1.8980

 Summary of Natural Population Analysis:

                                       Natural Population
                Natural  -----------------------------------------------
    Atom  No    Charge         Core      Valence    Rydberg      Total
 -----------------------------------------------------------------------
      C    1   -0.28902      0.99964     2.28460    0.00479     3.28902
      C    2   -0.03388      0.99952     2.02573    0.00863     3.03388
      C    3   -0.10879      0.99947     2.10115    0.00817     3.10879
      C    4    0.06716      0.99944     1.92227    0.01113     2.93284
      C    5    0.07594      0.99944     1.91287    0.01174     2.92406
      C    6   -0.11744      0.99953     2.10763    0.01028     3.11744
      C    7   -0.10129      0.99952     2.09290    0.00887     3.10129
      N    8   -0.39933      0.99972     2.88899    0.01062     3.89933
      N    9   -0.33817      0.99971     2.82809    0.01037     3.83817
      C   10   -0.10196      0.99953     2.09019    0.01223     3.10196
      C   11    0.11696      0.99952     1.86648    0.01704     2.88304
      C   12   -0.29315      0.99961     2.28532    0.00823     3.29315
      C   13   -0.25867      0.99952     2.24614    0.01301     3.25867
      S   14    0.07693      4.99963     2.90385    0.01959     7.92307
      C   15   -0.34608      0.99962     2.34043    0.00602     3.34608
      O   16   -0.38514      0.99989     3.37883    0.00642     4.38514
      H   17    0.09940      0.00000     0.39923    0.00136     0.40060
      H   18    0.10067      0.00000     0.39808    0.00124     0.39933
      H   19    0.10005      0.00000     0.39893    0.00101     0.39995
      H   20    0.09663      0.00000     0.40224    0.00113     0.40337
      H   21    0.09964      0.00000     0.39886    0.00150     0.40036
      H   22    0.09683      0.00000     0.40226    0.00091     0.40317
      H   23    0.19030      0.00000     0.30711    0.00258     0.30970
      H   24    0.18591      0.00000     0.31024    0.00385     0.31409
      H   25    0.18477      0.00000     0.31213    0.00310     0.31523
      H   26    0.10657      0.00000     0.39122    0.00222     0.39343
      H   27    0.08704      0.00000     0.41084    0.00212     0.41296
      H   28    0.10383      0.00000     0.39482    0.00135     0.39617
      H   29    0.10122      0.00000     0.39788    0.00090     0.39878
      H   30    0.11131      0.00000     0.38741    0.00128     0.38869
      H   31    0.10974      0.00000     0.38899    0.00127     0.39026
      H   32    0.11163      0.00000     0.38687    0.00150     0.38837
      H   33    0.10536      0.00000     0.39255    0.00209     0.39464
      H   34    0.10369      0.00000     0.39451    0.00180     0.39631
      H   35    0.10873      0.00000     0.38978    0.00149     0.39127
      H   36    0.23258      0.00000     0.26396    0.00346     0.26742
 =======================================================================
   * Total *   -0.00000     19.99330    44.80338    0.20331    65.00000

 Normal termination of Gaussian 16 at Thu Dec 10 22:39:32 2020.
