 Gaussian 16, Revision A.03,

 -----------------------------------------------------------
 # opt freq B3LYP/6-31G(d) empiricaldispersion=gd3bj scf=xqc
 -----------------------------------------------------------

 -------------------------------
 CID_130919680_JID_4017_neutraal
 -------------------------------
 Symbolic Z-matrix:
 Charge =  0 Multiplicity = 1

 SCF Done:  E(RB3LYP) =  -664.306463579     A.U. after   15 cycles
 SCF Done:  E(RB3LYP) =  -664.312021338     A.U. after   12 cycles
 SCF Done:  E(RB3LYP) =  -664.312852709     A.U. after   12 cycles
 SCF Done:  E(RB3LYP) =  -664.313235850     A.U. after   12 cycles
 SCF Done:  E(RB3LYP) =  -664.313356511     A.U. after   12 cycles
 SCF Done:  E(RB3LYP) =  -664.313462359     A.U. after   11 cycles
 SCF Done:  E(RB3LYP) =  -664.313587269     A.U. after   12 cycles
 SCF Done:  E(RB3LYP) =  -664.313971618     A.U. after   11 cycles
 SCF Done:  E(RB3LYP) =  -664.226679558     A.U. after   15 cycles
 SCF Done:  E(RB3LYP) =  -664.315530647     A.U. after   13 cycles
 SCF Done:  E(RB3LYP) =  -664.319289150     A.U. after   10 cycles
 SCF Done:  E(RB3LYP) =  -664.319292326     A.U. after    8 cycles
 SCF Done:  E(RB3LYP) =  -664.319293761     A.U. after    9 cycles
 SCF Done:  E(RB3LYP) =  -664.319293960     A.U. after    8 cycles
 SCF Done:  E(RB3LYP) =  -664.319293969     A.U. after    7 cycles
 Optimization completed.
    -- Stationary point found.
 Normal termination of Gaussian 16 at Thu Dec 10 09:19:32 2020.

 --------------------------------------------------------------------
 #N Geom=AllCheck Guess=TCheck SCRF=Check GenChk RB3LYP/6-31G(d) Freq
 --------------------------------------------------------------------

 Structure from the checkpoint file:  "JID_4017.chk"
 -------------------------------
 CID_130919680_JID_4017_neutraal
 -------------------------------
 Charge =  0 Multiplicity = 1

 SCF Done:  E(RB3LYP) =  -664.319293969     A.U. after    1 cycles

  Exact polarizability: 174.580   2.144 102.037   2.682   5.147  73.172
 Approx polarizability: 233.704   8.612 175.285   1.531  14.048 111.034

                      1                      2                      3
                      A                      A                      A
 Frequencies --     29.5527                61.9233                82.4789
 Red. masses --      4.9986                 6.0590                 3.4043
 Frc consts  --      0.0026                 0.0137                 0.0136
 IR Inten    --      0.3004                 0.2612                 5.4255

                      4                      5                      6
                      A                      A                      A
 Frequencies --    109.1993               167.2124               194.5669
 Red. masses --      3.4670                 2.6637                 4.4419
 Frc consts  --      0.0244                 0.0439                 0.0991
 IR Inten    --      1.1027                 4.9335                 2.7909

                      7                      8                      9
                      A                      A                      A
 Frequencies --    209.2148               267.8010               277.1936
 Red. masses --      2.3642                 5.7433                 1.4708
 Frc consts  --      0.0610                 0.2427                 0.0666
 IR Inten    --      1.1426                 2.5502                 0.3282

                     10                     11                     12
                      A                      A                      A
 Frequencies --    302.4797               309.1713               454.1236
 Red. masses --      4.3008                 4.6055                 4.3725
 Frc consts  --      0.2318                 0.2594                 0.5313
 IR Inten    --      1.4899                 6.5912                 1.6463

                     13                     14                     15
                      A                      A                      A
 Frequencies --    485.5149               502.6470               512.2456
 Red. masses --      4.2830                 1.2587                 5.9004
 Frc consts  --      0.5949                 0.1874                 0.9122
 IR Inten    --      5.8592                82.8271                 7.0035

                     16                     17                     18
                      A                      A                      A
 Frequencies --    573.6730               577.9787               643.4369
 Red. masses --      4.3833                 3.1110                 4.6420
 Frc consts  --      0.8499                 0.6123                 1.1323
 IR Inten    --     12.6080                72.6703                 4.3989

                     19                     20                     21
                      A                      A                      A
 Frequencies --    669.6113               683.5783               747.5664
 Red. masses --      5.5985                 4.5573                 2.5464
 Frc consts  --      1.4790                 1.2547                 0.8385
 IR Inten    --     19.0806                 0.7905                34.9570

                     22                     23                     24
                      A                      A                      A
 Frequencies --    756.3357               789.5869               813.1033
 Red. masses --      2.2843                 4.4562                 2.4039
 Frc consts  --      0.7699                 1.6369                 0.9364
 IR Inten    --      2.0811                43.2594                40.7217

                     25                     26                     27
                      A                      A                      A
 Frequencies --    846.1518               888.8793               897.3542
 Red. masses --      2.3538                 1.6213                 2.6295
 Frc consts  --      0.9929                 0.7547                 1.2475
 IR Inten    --     40.7880                 0.3355                 2.4176

                     28                     29                     30
                      A                      A                      A
 Frequencies --    934.9145               978.7596               992.2979
 Red. masses --      2.6320                 2.5223                 1.2794
 Frc consts  --      1.3554                 1.4237                 0.7422
 IR Inten    --     14.1636                14.9930                 0.0057

                     31                     32                     33
                      A                      A                      A
 Frequencies --   1005.6627              1043.7120              1085.4936
 Red. masses --      6.6422                 2.6046                 2.5899
 Frc consts  --      3.9579                 1.6716                 1.7980
 IR Inten    --      4.4977                38.8972                27.1132

                     34                     35                     36
                      A                      A                      A
 Frequencies --   1107.4371              1121.5490              1128.5103
 Red. masses --      4.1189                 2.1997                 2.4848
 Frc consts  --      2.9763                 1.6302                 1.8645
 IR Inten    --      4.7106                29.0445                57.1961

                     37                     38                     39
                      A                      A                      A
 Frequencies --   1186.4091              1197.9853              1213.3744
 Red. masses --      1.2724                 1.1994                 1.3946
 Frc consts  --      1.0552                 1.0142                 1.2098
 IR Inten    --      0.7662                 5.4048                15.4577

                     40                     41                     42
                      A                      A                      A
 Frequencies --   1230.9770              1271.2386              1279.4144
 Red. masses --      1.4140                 1.9543                 1.9927
 Frc consts  --      1.2624                 1.8608                 1.9218
 IR Inten    --     64.2186                80.6677                70.6992

                     43                     44                     45
                      A                      A                      A
 Frequencies --   1323.8607              1338.1632              1340.2934
 Red. masses --      1.4650                 1.7498                 3.6167
 Frc consts  --      1.5128                 1.8461                 3.8279
 IR Inten    --     10.4661                29.5787               157.4571

                     46                     47                     48
                      A                      A                      A
 Frequencies --   1354.2262              1381.0099              1424.0826
 Red. masses --      3.6191                 1.6430                 2.0160
 Frc consts  --      3.9105                 1.8462                 2.4089
 IR Inten    --     74.9378                75.6973                77.8679

                     49                     50                     51
                      A                      A                      A
 Frequencies --   1484.2197              1489.9071              1507.3946
 Red. masses --      1.5610                 1.6044                 1.8411
 Frc consts  --      2.0260                 2.0983                 2.4647
 IR Inten    --    159.7316                27.9455                24.2047

                     52                     53                     54
                      A                      A                      A
 Frequencies --   1509.1106              1523.5060              1524.2913
 Red. masses --      1.0911                 1.6102                 1.0481
 Frc consts  --      1.4640                 2.2021                 1.4348
 IR Inten    --      6.0622               131.3823                 6.6302

                     55                     56                     57
                      A                      A                      A
 Frequencies --   1535.2323              1641.9613              1650.0783
 Red. masses --      1.1119                 5.4819                 6.5324
 Frc consts  --      1.5441                 8.7077                10.4793
 IR Inten    --      2.3636                88.3212               157.4631

                     58                     59                     60
                      A                      A                      A
 Frequencies --   1843.4130              3030.9718              3051.8924
 Red. masses --     10.7168                 1.0350                 1.0697
 Frc consts  --     21.4566                 5.6021                 5.8704
 IR Inten    --    488.9362                49.9268                32.6281

                     61                     62                     63
                      A                      A                      A
 Frequencies --   3055.2438              3092.1478              3135.9265
 Red. masses --      1.0856                 1.1069                 1.0962
 Frc consts  --      5.9704                 6.2356                 6.3513
 IR Inten    --     31.4354                39.6669                10.2291

                     64                     65                     66
                      A                      A                      A
 Frequencies --   3168.1889              3198.2511              3225.2852
 Red. masses --      1.0998                 1.0889                 1.0931
 Frc consts  --      6.5040                 6.5622                 6.6993
 IR Inten    --     22.1225                10.3573                 4.5524

                     67                     68                     69
                      A                      A                      A
 Frequencies --   3240.5311              3495.1049              3618.7980
 Red. masses --      1.0926                 1.0748                 1.0776
 Frc consts  --      6.7601                 7.7355                 8.3147
 IR Inten    --      9.1105                 0.1557                25.0494

 - Thermochemistry -
 -------------------
 Temperature   298.150 Kelvin.  Pressure   1.00000 Atm.
 Atom     1 has atomic number  6 and mass  12.00000

 Molecular mass:   193.08513 amu.
 Principal axes and moments of inertia in atomic units:
                           1         2         3
     Eigenvalues --   854.911785678.004356025.98935
           X            0.99996  -0.00690   0.00548
           Y            0.00682   0.99986   0.01541
           Z           -0.00558  -0.01538   0.99987
 This molecule is an asymmetric top.
 Rotational symmetry number  1.
 Warning -- assumption of classical behavior for rotation
           may cause significant error
 Rotational temperatures (Kelvin)      0.10131     0.01525     0.01437
 Rotational constants (GHZ):           2.11103     0.31785     0.29949
 Zero-point vibrational energy     531222.2 (Joules/Mol)
                                  126.96514 (Kcal/Mol)
 Warning -- explicit consideration of  17 degrees of freedom as
           vibrations may cause significant error
 Vibrational temperatures:     42.52    89.09   118.67   157.11   240.58
          (Kelvin)            279.94   301.01   385.31   398.82   435.20
                              444.83   653.38   698.55   723.20   737.01
                              825.39   831.58   925.76   963.42   983.52
                             1075.58  1088.20  1136.04  1169.87  1217.42
                             1278.90  1291.09  1345.13  1408.22  1427.70
                             1446.92  1501.67  1561.78  1593.35  1613.66
                             1623.67  1706.98  1723.63  1745.78  1771.10
                             1829.03  1840.79  1904.74  1925.32  1928.38
                             1948.43  1986.97  2048.94  2135.46  2143.64
                             2168.80  2171.27  2191.99  2193.12  2208.86
                             2362.42  2374.09  2652.26  4360.89  4390.99
                             4395.81  4448.91  4511.90  4558.32  4601.57
                             4640.47  4662.40  5028.68  5206.64

 Zero-point correction=                           0.202332 (Hartree/Particle)
 Thermal correction to Energy=                    0.214459
 Thermal correction to Enthalpy=                  0.215403
 Thermal correction to Gibbs Free Energy=         0.162773
 Sum of electronic and zero-point Energies=           -664.116962
 Sum of electronic and thermal Energies=              -664.104835
 Sum of electronic and thermal Enthalpies=            -664.103891
 Sum of electronic and thermal Free Energies=         -664.156521

                     E (Thermal)             CV                S
                      KCal/Mol        Cal/Mol-Kelvin    Cal/Mol-Kelvin
 Total                  134.575             45.971            110.770
 Electronic               0.000              0.000              0.000
 Translational            0.889              2.981             41.679
 Rotational               0.889              2.981             31.748
 Vibrational            132.798             40.009             37.343
 Vibration     1          0.593              1.984              5.859
 Vibration     2          0.597              1.972              4.395
 Vibration     3          0.600              1.961              3.831
 Vibration     4          0.606              1.942              3.283
 Vibration     5          0.624              1.883              2.467
 Vibration     6          0.635              1.847              2.184
 Vibration     7          0.642              1.827              2.051
 Vibration     8          0.673              1.732              1.610
 Vibration     9          0.678              1.716              1.551
 Vibration    10          0.694              1.669              1.403
 Vibration    11          0.699              1.656              1.367
 Vibration    12          0.813              1.352              0.783
 Vibration    13          0.842              1.282              0.695
 Vibration    14          0.858              1.244              0.652
 Vibration    15          0.867              1.223              0.628
 Vibration    16          0.930              1.088              0.497
 Vibration    17          0.935              1.079              0.489

                           ! Non-Optimized Parameters !
 Normal termination of Gaussian 16 at Thu Dec 10 09:25:24 2020.

 ----------------------------------------------------------------------
 # B3LYP/6-311++G(d,p) empiricaldispersion=gd3bj scf=xqc pop=npa geom=c
 heck
 ----------------------------------------------------------------------

 ---------------------------------------
 CID_130919680_JID_4017_Energie_neutraal
 ---------------------------------------
 Structure from the checkpoint file:  "JID_4017.chk"
 Charge =  0 Multiplicity = 1

 SCF Done:  E(RB3LYP) =  -664.511302916     A.U. after   15 cycles
 Normal termination of Gaussian 16 at Thu Dec 10 09:27:32 2020.

 ----------------------------------------------------------------------
 # B3LYP/6-311++G(d,p) empiricaldispersion=gd3bj scf=xqc pop=npa geom=c
 heck
 ----------------------------------------------------------------------

 -------------------------------------
 CID_130919680_JID_4017_Energie_kation
 -------------------------------------
 Structure from the checkpoint file:  "JID_4017.chk"
 Charge =  1 Multiplicity = 2

 SCF Done:  E(UB3LYP) =  -664.206486639     A.U. after   24 cycles
 Normal termination of Gaussian 16 at Thu Dec 10 09:32:08 2020.
 Gaussian 16:  ES64L-G16RevA.03 25-Dec-2016

 ----------------------------------------------------------------------
 # B3LYP/6-311++G(d,p) empiricaldispersion=gd3bj scf=xqc pop=npa geom=c
 heck
 ----------------------------------------------------------------------

 ------------------------------------
 CID_130919680_JID_4017_Energie_anion
 ------------------------------------
 Structure from the checkpoint file:  "JID_4017.chk"
 Charge = -1 Multiplicity = 2

                         Standard orientation:
 ---------------------------------------------------------------------
 Center     Atomic      Atomic             Coordinates (Angstroms)
 Number     Number       Type             X           Y           Z
 ---------------------------------------------------------------------
      1          6           0       -4.739628   -0.639939   -0.188919
      2          8           0       -3.400217   -1.095001   -0.314172
      3          6           0       -2.400217   -0.207953   -0.097936
      4          6           0       -2.607634    1.140671    0.237036
      5          6           0       -1.483947    1.942266    0.419028
      6          6           0       -0.212123    1.394673    0.271613
      7          6           0       -0.123175    0.038179   -0.054598
      8          7           0       -1.188150   -0.745112   -0.240924
      9          6           0        1.223865   -0.641986   -0.178873
     10          7           0        1.833823   -0.897841    1.139832
     11          6           0        3.285897   -0.792929    0.932876
     12          6           0        3.480172    0.043511   -0.339278
     13          8           0        4.520825    0.472011   -0.801566
     14          7           0        2.219296    0.186932   -0.867705
     15          1           0       -5.367554   -1.506454   -0.399520
     16          1           0       -4.963587    0.155594   -0.911139
     17          1           0       -4.948063   -0.277983    0.825973
     18          1           0       -3.601493    1.555768    0.345344
     19          1           0       -1.606194    2.992065    0.670475
     20          1           0        0.686017    1.991307    0.386037
     21          1           0        1.073330   -1.595351   -0.700493
     22          1           0        1.537014   -0.148636    1.762409
     23          1           0        3.793875   -0.346036    1.790507
     24          1           0        3.728766   -1.783212    0.761915
     25          1           0        2.108985    0.480051   -1.829727
 ---------------------------------------------------------------------

 SCF Done:  E(UB3LYP) =  -664.500588838     A.U. after   33 cycles
 SCF Done:  E(UB3LYP) =  -664.504689004     a.u. after   15 cycles

 The electronic state is 2-A.
 Alpha  occ. eigenvalues --  -19.04406 -19.01000 -14.25005 -14.22047 -14.18216
 Alpha  occ. eigenvalues --  -10.18808 -10.14805 -10.14558 -10.12198 -10.11362
 Alpha  occ. eigenvalues --  -10.09576 -10.06453 -10.06181 -10.05689  -0.96734
 Alpha  occ. eigenvalues --   -0.95969  -0.88415  -0.82536  -0.78382  -0.68877
 Alpha  occ. eigenvalues --   -0.67812  -0.62897  -0.59812  -0.56358  -0.51602
 Alpha  occ. eigenvalues --   -0.50838  -0.49715  -0.43580  -0.42884  -0.39869
 Alpha  occ. eigenvalues --   -0.38669  -0.37674  -0.36635  -0.36509  -0.34807
 Alpha  occ. eigenvalues --   -0.34190  -0.33246  -0.32559  -0.30916  -0.29337
 Alpha  occ. eigenvalues --   -0.28806  -0.27591  -0.26561  -0.23460  -0.22048
 Alpha  occ. eigenvalues --   -0.20153  -0.18019  -0.17256  -0.15267  -0.15099
 Alpha  occ. eigenvalues --   -0.12480   0.04570
 Alpha virt. eigenvalues --    0.06749   0.06792   0.07777   0.08205   0.09105
 Alpha virt. eigenvalues --    0.09528   0.09944   0.10407   0.10581   0.10888
 Alpha virt. eigenvalues --    0.11709   0.12622   0.13027   0.13343   0.14104

  Beta  occ. eigenvalues --  -19.04404 -19.00999 -14.24999 -14.22009 -14.17997
  Beta  occ. eigenvalues --  -10.18806 -10.14830 -10.14565 -10.12191 -10.11313
  Beta  occ. eigenvalues --  -10.09441 -10.06266 -10.06210 -10.05586  -0.96713
  Beta  occ. eigenvalues --   -0.95962  -0.88371  -0.82231  -0.78335  -0.68557
  Beta  occ. eigenvalues --   -0.67664  -0.62816  -0.59703  -0.56266  -0.51492
  Beta  occ. eigenvalues --   -0.50595  -0.49618  -0.43478  -0.42853  -0.39808
  Beta  occ. eigenvalues --   -0.38561  -0.37572  -0.36610  -0.36423  -0.34729
  Beta  occ. eigenvalues --   -0.34161  -0.33199  -0.32480  -0.30812  -0.29107
  Beta  occ. eigenvalues --   -0.28465  -0.27532  -0.26457  -0.23387  -0.21792
  Beta  occ. eigenvalues --   -0.20132  -0.17867  -0.16224  -0.15112  -0.14971
  Beta  occ. eigenvalues --   -0.12108
  Beta virt. eigenvalues --    0.06695   0.07594   0.08039   0.08503   0.08751
  Beta virt. eigenvalues --    0.09348   0.09732   0.10432   0.10662   0.10735
  Beta virt. eigenvalues --    0.11464   0.11989   0.12573   0.13207   0.13646

 Mulliken charges and spin densities:
               1          2
     1  C    1.159874  -1.415580
     2  O   -0.104949   0.031065
     3  C   -0.951227   0.460255
     4  C    0.776930  -0.084105
     5  C    0.310049  -1.174361
     6  C    0.234147   0.212713
     7  C   -0.643108   0.419422
     8  N   -0.218944   0.194131
     9  C    0.233393  -1.028172
    10  N    0.021155  -0.016234
    11  C   -0.156135  -0.096882
    12  C    0.123537   0.010538
    13  O   -0.365809   0.000540
    14  N   -0.076784   0.022934
    15  H   -0.369768   0.540959
    16  H   -0.204238   0.344151
    17  H   -0.430975   0.588587
    18  H   -0.579842   0.772668
    19  H   -0.722700   0.879713
    20  H    0.064272   0.130893
    21  H    0.178965   0.046174
    22  H    0.168882   0.069828
    23  H    0.110773   0.052669
    24  H    0.163508   0.010611
    25  H    0.278994   0.027484
 Sum of Mulliken charges =  -1.00000   1.00000

 Dipole moment (field-independent basis, Debye):
    X=              7.9134    Y=             -2.2833    Z=             -0.6852  Tot=              8.2646
 Quadrupole moment (field-independent basis, Debye-Ang):
   XX=           -183.6799   YY=           -117.6887   ZZ=           -100.2521
   XY=              0.4287   XZ=              9.5385   YZ=              0.0109

 Summary of Natural Population Analysis:

                                       Natural Population
                Natural  -----------------------------------------------
    Atom  No    Charge         Core      Valence    Rydberg      Total
 -----------------------------------------------------------------------
      C    1   -0.10147      0.99960     2.09272    0.00915     3.10147
      O    2   -0.26875      0.99985     3.25903    0.00987     4.26875
      C    3    0.26504      0.99944     1.71761    0.01791     2.73496
      C    4   -0.14564      0.99952     2.13681    0.00931     3.14564
      C    5   -0.03936      0.99958     2.02869    0.01110     3.03936
      C    6   -0.15415      0.99950     2.14491    0.00974     3.15415
      C    7    0.11110      0.99951     1.87358    0.01581     2.88890
      N    8   -0.22087      0.99963     2.71049    0.01075     3.72087
      C    9    0.07536      0.99959     1.90968    0.01538     2.92464
      N   10   -0.32691      0.99976     2.81633    0.01083     3.82691
      C   11   -0.13310      0.99961     2.12374    0.00975     3.13310
      C   12    0.33435      0.99969     1.64277    0.02319     2.66565
      O   13   -0.32078      0.99987     3.31464    0.00627     4.32078
      N   14   -0.32533      0.99966     2.81729    0.00838     3.82533
      H   15    0.09191      0.00000     0.40684    0.00126     0.40809
      H   16    0.08399      0.00000     0.41437    0.00164     0.41601
      H   17    0.08900      0.00000     0.40851    0.00249     0.41100
      H   18    0.10782      0.00000     0.38967    0.00251     0.39218
      H   19    0.09843      0.00000     0.40003    0.00153     0.40157
      H   20    0.10399      0.00000     0.39457    0.00144     0.39601
      H   21    0.09564      0.00000     0.40293    0.00143     0.40436
      H   22    0.17819      0.00000     0.31921    0.00260     0.32181
      H   23    0.10354      0.00000     0.39500    0.00146     0.39646
      H   24    0.09883      0.00000     0.39977    0.00140     0.40117
      H   25    0.19918      0.00000     0.29898    0.00184     0.30082
 =======================================================================
   * Total *    0.00000     13.99480    36.81816    0.18705    51.00000

 Normal termination of Gaussian 16 at Thu Dec 10 11:01:30 2020.
