 Gaussian 16, Revision A.03,

 -----------------------------------------------------------
 # opt freq B3LYP/6-31G(d) empiricaldispersion=gd3bj scf=xqc
 -----------------------------------------------------------

 -------------------------------
 CID_62001465_JID_10483_neutraal
 -------------------------------
 Symbolic Z-matrix:
 Charge =  0 Multiplicity = 1

 SCF Done:  E(RB3LYP) =  -1240.59439541     A.U. after   15 cycles
 SCF Done:  E(RB3LYP) =  -1240.60109358     A.U. after   12 cycles
 SCF Done:  E(RB3LYP) =  -1240.60198517     A.U. after   12 cycles
 SCF Done:  E(RB3LYP) =  -1240.60341269     A.U. after   12 cycles
 SCF Done:  E(RB3LYP) =  -1240.60378056     A.U. after   12 cycles
 SCF Done:  E(RB3LYP) =  -1240.60388049     A.U. after   12 cycles
 SCF Done:  E(RB3LYP) =  -1240.60399125     A.U. after   10 cycles
 SCF Done:  E(RB3LYP) =  -1240.60404610     A.U. after   11 cycles
 SCF Done:  E(RB3LYP) =  -1240.60406711     A.U. after   11 cycles
 SCF Done:  E(RB3LYP) =  -1240.60408146     A.U. after   10 cycles
 SCF Done:  E(RB3LYP) =  -1240.60418520     A.U. after    8 cycles
 SCF Done:  E(RB3LYP) =  -1240.60418528     A.U. after    8 cycles
 SCF Done:  E(RB3LYP) =  -1240.60418533     A.U. after    7 cycles
 SCF Done:  E(RB3LYP) =  -1240.60418536     A.U. after    7 cycles
 SCF Done:  E(RB3LYP) =  -1240.60418538     A.U. after    6 cycles
 Optimization completed.
    -- Stationary point found.
 Normal termination of Gaussian 16 at Thu Dec 17 20:27:23 2020.

 --------------------------------------------------------------------
 #N Geom=AllCheck Guess=TCheck SCRF=Check GenChk RB3LYP/6-31G(d) Freq
 --------------------------------------------------------------------

 Structure from the checkpoint file:  "JID_10483.chk"
 -------------------------------
 CID_62001465_JID_10483_neutraal
 -------------------------------
 Charge =  0 Multiplicity = 1

 SCF Done:  E(RB3LYP) =  -1240.60418538     A.U. after    1 cycles

  Exact polarizability: 260.813   0.095 210.645  18.055  -3.129 104.566
 Approx polarizability: 348.840  -4.852 368.853  38.015  -7.215 169.948

                      1                      2                      3
                      A                      A                      A
 Frequencies --     14.9451                25.9673                46.6396
 Red. masses --      4.3899                 5.2062                 2.9356
 Frc consts  --      0.0006                 0.0021                 0.0038
 IR Inten    --      0.3155                 0.9262                 0.7851

                      4                      5                      6
                      A                      A                      A
 Frequencies --     54.5941                65.8220                94.4209
 Red. masses --      1.1973                 3.8239                 4.3075
 Frc consts  --      0.0021                 0.0098                 0.0226
 IR Inten    --      0.1570                 1.7294                 1.6685

                      7                      8                      9
                      A                      A                      A
 Frequencies --    113.6050               144.3830               154.0112
 Red. masses --      3.8261                 1.1107                 1.1161
 Frc consts  --      0.0291                 0.0136                 0.0156
 IR Inten    --      0.6473                 0.4230                 0.2523

                     10                     11                     12
                      A                      A                      A
 Frequencies --    163.9689               183.2808               203.6759
 Red. masses --      3.3307                 3.5466                 4.3796
 Frc consts  --      0.0528                 0.0702                 0.1070
 IR Inten    --      0.2853                 0.9391                 0.6120

                     13                     14                     15
                      A                      A                      A
 Frequencies --    215.5467               244.9215               249.5573
 Red. masses --      3.8277                 3.9876                 4.4961
 Frc consts  --      0.1048                 0.1409                 0.1650
 IR Inten    --      1.5796                 1.4003                 2.3864

                     16                     17                     18
                      A                      A                      A
 Frequencies --    288.4644               308.9474               319.1547
 Red. masses --      4.0753                 9.0673                 3.3433
 Frc consts  --      0.1998                 0.5099                 0.2006
 IR Inten    --      0.8131                 1.0118                 3.3177

                     19                     20                     21
                      A                      A                      A
 Frequencies --    325.6639               346.8518               372.0945
 Red. masses --      2.9796                 3.2214                 4.5553
 Frc consts  --      0.1862                 0.2283                 0.3716
 IR Inten    --      8.5320                28.1142                 9.4879

                     22                     23                     24
                      A                      A                      A
 Frequencies --    387.3628               444.4411               453.9816
 Red. masses --      1.4140                 4.6251                 3.8252
 Frc consts  --      0.1250                 0.5383                 0.4645
 IR Inten    --    189.5886                 0.1666                 0.8867

                     25                     26                     27
                      A                      A                      A
 Frequencies --    470.2893               483.9787               499.8626
 Red. masses --      3.3576                 3.6429                 3.4659
 Frc consts  --      0.4375                 0.5027                 0.5102
 IR Inten    --      1.6844                 6.8099                 2.3131

                     28                     29                     30
                      A                      A                      A
 Frequencies --    536.2432               552.7494               562.4945
 Red. masses --      5.8348                 4.5331                 2.3013
 Frc consts  --      0.9886                 0.8160                 0.4290
 IR Inten    --     48.8212                11.4881                46.1193

                     31                     32                     33
                      A                      A                      A
 Frequencies --    576.9853               588.4616               590.3010
 Red. masses --      4.1147                 3.0783                 2.5739
 Frc consts  --      0.8071                 0.6281                 0.5284
 IR Inten    --     41.8164                25.7380                32.0260

                     34                     35                     36
                      A                      A                      A
 Frequencies --    604.5353               653.5302               703.4674
 Red. masses --      4.0679                 6.3399                 6.0951
 Frc consts  --      0.8759                 1.5954                 1.7771
 IR Inten    --     38.0713                84.8805               105.8339

                     37                     38                     39
                      A                      A                      A
 Frequencies --    724.1480               740.7359               752.4754
 Red. masses --      4.3224                 2.1957                 5.5687
 Frc consts  --      1.3355                 0.7098                 1.8577
 IR Inten    --     38.7900                20.5176                 0.8669

                     40                     41                     42
                      A                      A                      A
 Frequencies --    779.4922               800.5257               804.6206
 Red. masses --      1.7857                 1.3189                 3.4191
 Frc consts  --      0.6393                 0.4980                 1.3042
 IR Inten    --     14.2661                10.1900                50.9802

                     43                     44                     45
                      A                      A                      A
 Frequencies --    857.5168               879.6861               897.1176
 Red. masses --      1.4458                 1.4271                 2.9025
 Frc consts  --      0.6264                 0.6507                 1.3763
 IR Inten    --     10.9531                11.8801               116.2095

                     46                     47                     48
                      A                      A                      A
 Frequencies --    944.8454               953.8627               980.0157
 Red. masses --      1.3017                 1.3413                 2.6338
 Frc consts  --      0.6847                 0.7190                 1.4904
 IR Inten    --      2.7244                 1.0700                 7.0496

                     49                     50                     51
                      A                      A                      A
 Frequencies --    985.2253              1022.1200              1038.0458
 Red. masses --      1.2624                 1.5978                 1.6135
 Frc consts  --      0.7220                 0.9835                 1.0243
 IR Inten    --      0.2090                 0.7106                10.7423

                     52                     53                     54
                      A                      A                      A
 Frequencies --   1056.3535              1072.4404              1072.6759
 Red. masses --      5.1502                 1.5860                 1.5247
 Frc consts  --      3.3861                 1.0747                 1.0337
 IR Inten    --     63.4388                22.7509                 3.0167

                     55                     56                     57
                      A                      A                      A
 Frequencies --   1078.6237              1087.6272              1105.1232
 Red. masses --      2.1383                 3.7906                 7.4169
 Frc consts  --      1.4657                 2.6419                 5.3370
 IR Inten    --      6.0552                34.9093               130.9204

                     58                     59                     60
                      A                      A                      A
 Frequencies --   1126.9986              1146.7364              1161.0238
 Red. masses --      1.7142                 1.4617                 1.4627
 Frc consts  --      1.2828                 1.1325                 1.1617
 IR Inten    --      2.6309                16.6714                 2.5276

                     61                     62                     63
                      A                      A                      A
 Frequencies --   1193.8611              1195.9622              1212.2760
 Red. masses --      1.1203                 1.2751                 2.1425
 Frc consts  --      0.9408                 1.0746                 1.8552
 IR Inten    --      0.6883                 4.5032                24.2034

                     64                     65                     66
                      A                      A                      A
 Frequencies --   1221.0524              1232.8013              1293.7533
 Red. masses --      1.8669                 2.4119                 7.2041
 Frc consts  --      1.6399                 2.1598                 7.1045
 IR Inten    --      6.3266                 2.5164                68.4064

                     67                     68                     69
                      A                      A                      A
 Frequencies --   1308.8210              1313.2391              1317.9315
 Red. masses --      2.5501                 2.3948                 2.2543
 Frc consts  --      2.5738                 2.4334                 2.3070
 IR Inten    --     26.6176                71.4433                65.4027

                     70                     71                     72
                      A                      A                      A
 Frequencies --   1349.4498              1349.5930              1395.5676
 Red. masses --      1.8917                 4.5495                 4.1628
 Frc consts  --      2.0296                 4.8823                 4.7768
 IR Inten    --     26.0305                21.9325                 1.1384

                     73                     74                     75
                      A                      A                      A
 Frequencies --   1441.5437              1443.2537              1478.4103
 Red. masses --      1.2558                 1.2286                 1.2371
 Frc consts  --      1.5375                 1.5078                 1.5930
 IR Inten    --      0.2248                 1.9959                 1.3377

                     76                     77                     78
                      A                      A                      A
 Frequencies --   1483.7984              1494.7213              1512.0622
 Red. masses --      2.5710                 1.8191                 1.0700
 Frc consts  --      3.3351                 2.3946                 1.4413
 IR Inten    --     44.7786                 3.7427                 9.6279

                     79                     80                     81
                      A                      A                      A
 Frequencies --   1512.9695              1517.3995              1526.7429
 Red. masses --      1.0444                 1.0696                 1.2884
 Frc consts  --      1.4086                 1.4510                 1.7694
 IR Inten    --      5.1044                 6.0968                20.0449

                     82                     83                     84
                      A                      A                      A
 Frequencies --   1528.4695              1531.8069              1543.5955
 Red. masses --      1.3171                 1.0937                 2.0494
 Frc consts  --      1.8130                 1.5120                 2.8771
 IR Inten    --     25.1640                 0.5929                26.3150

                     85                     86                     87
                      A                      A                      A
 Frequencies --   1544.9294              1615.9765              1636.4302
 Red. masses --      2.1144                 4.5995                 5.6907
 Frc consts  --      2.9734                 7.0768                 8.9786
 IR Inten    --     61.2225                39.5810                 3.6456

                     88                     89                     90
                      A                      A                      A
 Frequencies --   1663.9304              1667.5268              1687.0649
 Red. masses --      5.9104                 2.2894                 1.9154
 Frc consts  --      9.6413                 3.7507                 3.2120
 IR Inten    --      2.9297                57.9704               253.6191

                     91                     92                     93
                      A                      A                      A
 Frequencies --   3046.6019              3047.6876              3062.9832
 Red. masses --      1.0377                 1.0373                 1.0367
 Frc consts  --      5.6748                 5.6766                 5.7307
 IR Inten    --     43.7307                26.5404                15.0857

                     94                     95                     96
                      A                      A                      A
 Frequencies --   3100.8828              3120.2100              3123.9584
 Red. masses --      1.1007                 1.0985                 1.1006
 Frc consts  --      6.2356                 6.3012                 6.3286
 IR Inten    --     16.6664                15.9391                14.2379

                     97                     98                     99
                      A                      A                      A
 Frequencies --   3131.9806              3143.3367              3150.3681
 Red. masses --      1.1014                 1.1017                 1.1045
 Frc consts  --      6.3653                 6.4136                 6.4589
 IR Inten    --     16.6408                15.9323                15.7487

                    100                    101                    102
                      A                      A                      A
 Frequencies --   3171.3732              3180.9911              3191.2642
 Red. masses --      1.0896                 1.0862                 1.0882
 Frc consts  --      6.4567                 6.4759                 6.5294
 IR Inten    --     23.6933                 6.9636                 4.7008

                    103                    104                    105
                      A                      A                      A
 Frequencies --   3195.8264              3200.7988              3213.1613
 Red. masses --      1.0883                 1.0928                 1.0977
 Frc consts  --      6.5491                 6.5963                 6.6771
 IR Inten    --      8.8341                35.1667                19.2508

                    106                    107                    108
                      A                      A                      A
 Frequencies --   3219.9799              3542.7125              3682.3861
 Red. masses --      1.0932                 1.0503                 1.0985
 Frc consts  --      6.6781                 7.7669                 8.7759
 IR Inten    --      5.0607               117.5632                66.1774

 - Thermochemistry -
 -------------------
 Temperature   298.150 Kelvin.  Pressure   1.00000 Atm.
 Atom     1 has atomic number  6 and mass  12.00000

 Molecular mass:   290.10890 amu.
 Principal axes and moments of inertia in atomic units:
                           1         2         3
     Eigenvalues --  2748.866918993.65351**********
           X            0.99991   0.01303   0.00174
           Y           -0.01301   0.99986  -0.01019
           Z           -0.00187   0.01016   0.99995
 This molecule is an asymmetric top.
 Rotational symmetry number  1.
 Warning -- assumption of classical behavior for rotation
           may cause significant error
 Rotational temperatures (Kelvin)      0.03151     0.00963     0.00809
 Rotational constants (GHZ):           0.65654     0.20067     0.16862
 Zero-point vibrational energy     812591.4 (Joules/Mol)
                                  194.21401 (Kcal/Mol)
 Warning -- explicit consideration of  34 degrees of freedom as
           vibrations may cause significant error
 Vibrational temperatures:     21.50    37.36    67.10    78.55    94.70
          (Kelvin)            135.85   163.45   207.74   221.59   235.91
                              263.70   293.04   310.12   352.39   359.06
                              415.04   444.51   459.19   468.56   499.04
                              535.36   557.33   639.45   653.18   676.64
                              696.34   719.19   771.53   795.28   809.30
                              830.15   846.67   849.31   869.79   940.28
                             1012.13  1041.89  1065.75  1082.64  1121.52
                             1151.78  1157.67  1233.78  1265.67  1290.75
                             1359.42  1372.40  1410.02  1417.52  1470.60
                             1493.52  1519.86  1543.00  1543.34  1551.90
                             1564.85  1590.03  1621.50  1649.90  1670.45
                             1717.70  1720.72  1744.19  1756.82  1773.73
                             1861.42  1883.10  1889.46  1896.21  1941.56
                             1941.76  2007.91  2074.06  2076.52  2127.10
                             2134.85  2150.57  2175.52  2176.83  2183.20
                             2196.64  2199.13  2203.93  2220.89  2222.81
                             2325.03  2354.46  2394.02  2399.20  2427.31
                             4383.38  4384.94  4406.95  4461.48  4489.29
                             4494.68  4506.22  4522.56  4532.68  4562.90
                             4576.74  4591.52  4598.08  4605.24  4623.02
                             4632.83  5097.17  5298.13

 Zero-point correction=                           0.309500 (Hartree/Particle)
 Thermal correction to Energy=                    0.329382
 Thermal correction to Enthalpy=                  0.330326
 Thermal correction to Gibbs Free Energy=         0.259662
 Sum of electronic and zero-point Energies=          -1240.294686
 Sum of electronic and thermal Energies=             -1240.274804
 Sum of electronic and thermal Enthalpies=           -1240.273859
 Sum of electronic and thermal Free Energies=        -1240.344523

                     E (Thermal)             CV                S
                      KCal/Mol        Cal/Mol-Kelvin    Cal/Mol-Kelvin
 Total                  206.690             75.491            148.725
 Electronic               0.000              0.000              0.000
 Translational            0.889              2.981             42.893
 Rotational               0.889              2.981             33.936
 Vibrational            204.913             69.529             71.896
 Vibration     1          0.593              1.986              7.213
 Vibration     2          0.593              1.985              6.116
 Vibration     3          0.595              1.979              4.955
 Vibration     4          0.596              1.976              4.644
 Vibration     5          0.597              1.971              4.275
 Vibration     6          0.603              1.953              3.566
 Vibration     7          0.607              1.938              3.206
 Vibration     8          0.616              1.909              2.745
 Vibration     9          0.620              1.898              2.622
 Vibration    10          0.623              1.887              2.504
 Vibration    11          0.631              1.863              2.295
 Vibration    12          0.639              1.835              2.100
 Vibration    13          0.645              1.817              1.996
 Vibration    14          0.660              1.771              1.767
 Vibration    15          0.662              1.763              1.734
 Vibration    16          0.685              1.695              1.483
 Vibration    17          0.698              1.657              1.368
 Vibration    18          0.705              1.637              1.314
 Vibration    19          0.710              1.624              1.282
 Vibration    20          0.725              1.582              1.180
 Vibration    21          0.744              1.529              1.071
 Vibration    22          0.756              1.497              1.010
 Vibration    23          0.804              1.373              0.813
 Vibration    24          0.812              1.352              0.784
 Vibration    25          0.827              1.316              0.737
 Vibration    26          0.840              1.286              0.699
 Vibration    27          0.855              1.250              0.658
 Vibration    28          0.891              1.170              0.573
 Vibration    29          0.908              1.134              0.539
 Vibration    30          0.918              1.112              0.519
 Vibration    31          0.933              1.081              0.491
 Vibration    32          0.946              1.056              0.470
 Vibration    33          0.948              1.052              0.467
 Vibration    34          0.963              1.022              0.442

                           ! Non-Optimized Parameters !
 Normal termination of Gaussian 16 at Thu Dec 17 20:47:22 2020.

 ----------------------------------------------------------------------
 # B3LYP/6-311++G(d,p) empiricaldispersion=gd3bj scf=xqc pop=npa geom=c
 heck
 ----------------------------------------------------------------------

 ---------------------------------------
 CID_62001465_JID_10483_Energie_neutraal
 ---------------------------------------
 Structure from the checkpoint file:  "JID_10483.chk"
 Charge =  0 Multiplicity = 1

 SCF Done:  E(RB3LYP) =  -1240.86157376     A.U. after   16 cycles
 Normal termination of Gaussian 16 at Thu Dec 17 20:57:10 2020.

 ----------------------------------------------------------------------
 # B3LYP/6-311++G(d,p) empiricaldispersion=gd3bj scf=xqc pop=npa geom=c
 heck
 ----------------------------------------------------------------------

 -------------------------------------
 CID_62001465_JID_10483_Energie_kation
 -------------------------------------
 Structure from the checkpoint file:  "JID_10483.chk"
 Charge =  1 Multiplicity = 2

 SCF Done:  E(UB3LYP) =  -1240.58027630     A.U. after   29 cycles
 Normal termination of Gaussian 16 at Thu Dec 17 21:22:08 2020.
 Gaussian 16:  ES64L-G16RevA.03 25-Dec-2016

 ----------------------------------------------------------------------
 # B3LYP/6-311++G(d,p) empiricaldispersion=gd3bj scf=xqc pop=npa geom=c
 heck
 ----------------------------------------------------------------------

 ------------------------------------
 CID_62001465_JID_10483_Energie_anion
 ------------------------------------
 Structure from the checkpoint file:  "JID_10483.chk"
 Charge = -1 Multiplicity = 2

                         Standard orientation:
 ---------------------------------------------------------------------
 Center     Atomic      Atomic             Coordinates (Angstroms)
 Number     Number       Type             X           Y           Z
 ---------------------------------------------------------------------
      1          6           0        5.277329    1.992362    0.031641
      2          6           0        3.987607    1.216920   -0.066494
      3          6           0        3.980099   -0.164044    0.052810
      4          6           0        2.795305   -0.933371   -0.037311
      5          6           0        1.586697   -0.221889   -0.227390
      6          6           0        1.594537    1.174354   -0.365076
      7          6           0        2.771386    1.893918   -0.285332
      8         16           0       -0.001196   -1.015458   -0.371020
      9          8           0       -0.578201   -0.775749   -1.694453
     10          8           0        0.140730   -2.400540    0.128128
     11          7           0       -0.934663   -0.141272    0.718241
     12          6           0       -0.705759   -0.408688    2.138447
     13          6           0       -2.189311    0.430227    0.316435
     14          6           0       -2.291351    1.823865    0.352097
     15          6           0       -3.491478    2.456030    0.039169
     16          6           0       -4.594891    1.682282   -0.321456
     17          6           0       -4.488953    0.293353   -0.358450
     18          6           0       -3.293926   -0.363607   -0.038666
     19          6           0       -3.207906   -1.865334   -0.114272
     20          7           0        2.874581   -2.299964    0.020047
     21          1           0        6.133316    1.333431    0.203580
     22          1           0        5.465083    2.557925   -0.888967
     23          1           0        5.238302    2.718966    0.852231
     24          1           0        4.918027   -0.692709    0.208991
     25          1           0        0.651131    1.683513   -0.531186
     26          1           0        2.760508    2.974662   -0.390443
     27          1           0        0.366321   -0.525765    2.319177
     28          1           0       -1.059619    0.453667    2.708191
     29          1           0       -1.225730   -1.310546    2.483958
     30          1           0       -1.415279    2.399315    0.636583
     31          1           0       -3.562617    3.539184    0.071651
     32          1           0       -5.538388    2.158902   -0.572151
     33          1           0       -5.352916   -0.304092   -0.638285
     34          1           0       -2.797428   -2.174699   -1.081749
     35          1           0       -2.545950   -2.280169    0.650551
     36          1           0       -4.198443   -2.316400   -0.002640
     37          1           0        3.716094   -2.696371    0.410464
     38          1           0        2.010760   -2.810800    0.162033
 ---------------------------------------------------------------------

 SCF Done:  E(UB3LYP) =  -1240.85541523     A.U. after   33 cycles
 SCF Done:  E(UB3LYP) =  -1240.85541523     a.u. after    1 cycles

 The electronic state is 2-A.
 Alpha  occ. eigenvalues --  -88.94187 -18.99936 -18.99676 -14.23051 -14.20785
 Alpha  occ. eigenvalues --  -10.11289 -10.10226 -10.10209 -10.08226 -10.07177
 Alpha  occ. eigenvalues --  -10.07072 -10.06954 -10.06888 -10.06722 -10.06456
 Alpha  occ. eigenvalues --  -10.06363 -10.05869 -10.05722 -10.04807 -10.04804
 Alpha  occ. eigenvalues --   -8.00305  -5.96623  -5.96568  -5.96372  -1.00032
 Alpha  occ. eigenvalues --   -0.89081  -0.83377  -0.81625  -0.75018  -0.73298
 Alpha  occ. eigenvalues --   -0.67463  -0.66997  -0.64521  -0.61840  -0.61203
 Alpha  occ. eigenvalues --   -0.59235  -0.58018  -0.53449  -0.50233  -0.49680
 Alpha  occ. eigenvalues --   -0.49020  -0.46386  -0.43028  -0.41551  -0.40357
 Alpha  occ. eigenvalues --   -0.39107  -0.38195  -0.37547  -0.36995  -0.34791
 Alpha  occ. eigenvalues --   -0.33618  -0.33399  -0.32992  -0.32424  -0.31855
 Alpha  occ. eigenvalues --   -0.31634  -0.31172  -0.31145  -0.30360  -0.29195
 Alpha  occ. eigenvalues --   -0.28043  -0.27519  -0.25911  -0.25717  -0.25245
 Alpha  occ. eigenvalues --   -0.24840  -0.23750  -0.23366  -0.21132  -0.20204
 Alpha  occ. eigenvalues --   -0.19881  -0.18695  -0.15864  -0.15071  -0.14583
 Alpha  occ. eigenvalues --   -0.13020  -0.09956   0.04580
 Alpha virt. eigenvalues --    0.06509   0.06727   0.07544   0.07882   0.08014
 Alpha virt. eigenvalues --    0.08092   0.08851   0.09429   0.09740   0.10279
 Alpha virt. eigenvalues --    0.10469   0.11022   0.11632   0.12160   0.12285

  Beta  occ. eigenvalues --  -88.94159 -18.99895 -18.99648 -14.23035 -14.20763
  Beta  occ. eigenvalues --  -10.11258 -10.10219 -10.10119 -10.08232 -10.07194
  Beta  occ. eigenvalues --  -10.06972 -10.06886 -10.06826 -10.06659 -10.06469
  Beta  occ. eigenvalues --  -10.06360 -10.05584 -10.05552 -10.04885 -10.04759
  Beta  occ. eigenvalues --   -8.00277  -5.96586  -5.96501  -5.96357  -0.99915
  Beta  occ. eigenvalues --   -0.89003  -0.83261  -0.81536  -0.74910  -0.73036
  Beta  occ. eigenvalues --   -0.67299  -0.66756  -0.64350  -0.61656  -0.61072
  Beta  occ. eigenvalues --   -0.59157  -0.57925  -0.53256  -0.50044  -0.49597
  Beta  occ. eigenvalues --   -0.48799  -0.46284  -0.42889  -0.41475  -0.40292
  Beta  occ. eigenvalues --   -0.38977  -0.38042  -0.37470  -0.36916  -0.34691
  Beta  occ. eigenvalues --   -0.33539  -0.33353  -0.32918  -0.32345  -0.31615
  Beta  occ. eigenvalues --   -0.31467  -0.31120  -0.31073  -0.30314  -0.29165
  Beta  occ. eigenvalues --   -0.27989  -0.27166  -0.25760  -0.25540  -0.25104
  Beta  occ. eigenvalues --   -0.24784  -0.23636  -0.23212  -0.21033  -0.19925
  Beta  occ. eigenvalues --   -0.19597  -0.18562  -0.15560  -0.14607  -0.14205
  Beta  occ. eigenvalues --   -0.12326  -0.09582
  Beta virt. eigenvalues --    0.06599   0.06814   0.07662   0.08028   0.08070
  Beta virt. eigenvalues --    0.08188   0.08807   0.09382   0.09501   0.09875
  Beta virt. eigenvalues --    0.10374   0.10720   0.11197   0.11609   0.12171

 Mulliken charges and spin densities:
               1          2
     1  C    0.449980  -0.925239
     2  C    0.227859   0.367701
     3  C   -0.254062  -0.120866
     4  C   -0.010942  -0.043357
     5  C   -0.357433   0.109103
     6  C   -0.184976   0.349757
     7  C   -0.812108   0.160069
     8  S    0.435811  -0.064393
     9  O    0.002673  -0.033872
    10  O   -0.183244   0.007284
    11  N    0.344669   0.006407
    12  C    0.045274  -0.258500
    13  C   -1.020514   0.137436
    14  C    0.211871   0.029148
    15  C   -0.028456  -0.260033
    16  C    0.072123  -0.373061
    17  C   -0.293440   0.052191
    18  C    0.189640   0.175704
    19  C   -0.608044  -0.101104
    20  N   -0.375193   0.031379
    21  H   -0.016907   0.141241
    22  H    0.149503  -0.005281
    23  H   -0.087490   0.246661
    24  H   -0.020683   0.117958
    25  H    0.213039  -0.083179
    26  H    0.006347   0.142317
    27  H    0.164426   0.020703
    28  H   -0.050318   0.199750
    29  H    0.134575   0.007041
    30  H   -0.104386   0.266032
    31  H   -0.135031   0.300682
    32  H   -0.050970   0.175768
    33  H    0.045435   0.081853
    34  H    0.243009  -0.006928
    35  H    0.135069   0.000169
    36  H    0.063533   0.077312
    37  H    0.159737   0.070759
    38  H    0.299626   0.001387
 Sum of Mulliken charges =  -1.00000   1.00000

 Dipole moment (field-independent basis, Debye):
    X=             -0.7880    Y=             -2.4713    Z=              1.3311  Tot=              2.9155
 Quadrupole moment (field-independent basis, Debye-Ang):
   XX=           -189.9493   YY=           -157.1405   ZZ=           -150.5379
   XY=             -0.9010   XZ=             -3.4884   YZ=             -7.6920

 Summary of Natural Population Analysis:

                                       Natural Population
                Natural  -----------------------------------------------
    Atom  No    Charge         Core      Valence    Rydberg      Total
 -----------------------------------------------------------------------
      C    1   -0.29438      0.99964     2.28959    0.00515     3.29438
      C    2    0.04600      0.99953     1.94595    0.00853     2.95400
      C    3   -0.12684      0.99948     2.11899    0.00836     3.12684
      C    4    0.10234      0.99947     1.88380    0.01439     2.89766
      C    5   -0.16529      0.99934     2.15213    0.01383     3.16529
      C    6   -0.04536      0.99952     2.03629    0.00955     3.04536
      C    7   -0.14451      0.99952     2.13540    0.00960     3.14451
      S    8    1.13260      4.99910     1.77021    0.09809     6.86740
      O    9   -0.45947      0.99990     3.45442    0.00515     4.45947
      O   10   -0.48646      0.99990     3.48100    0.00555     4.48646
      N   11   -0.38163      0.99969     2.86677    0.01517     3.88163
      C   12   -0.17253      0.99962     2.16450    0.00841     3.17253
      C   13    0.08895      0.99940     1.89905    0.01260     2.91105
      C   14   -0.08586      0.99951     2.07658    0.00978     3.08586
      C   15   -0.11207      0.99957     2.10271    0.00979     3.11207
      C   16   -0.08550      0.99957     2.07637    0.00957     3.08550
      C   17   -0.09855      0.99952     2.08997    0.00906     3.09855
      C   18   -0.01181      0.99946     2.00302    0.00933     3.01181
      C   19   -0.30058      0.99963     2.29520    0.00574     3.30058
      N   20   -0.39346      0.99969     2.88617    0.00760     3.89346
      H   21    0.09754      0.00000     0.40176    0.00070     0.40246
      H   22    0.10088      0.00000     0.39832    0.00080     0.39912
      H   23    0.10504      0.00000     0.39348    0.00148     0.39496
      H   24    0.09031      0.00000     0.40825    0.00144     0.40969
      H   25    0.10396      0.00000     0.39443    0.00161     0.39604
      H   26    0.09593      0.00000     0.40288    0.00119     0.40407
      H   27    0.10450      0.00000     0.39462    0.00088     0.39550
      H   28    0.10056      0.00000     0.39863    0.00081     0.39944
      H   29    0.08889      0.00000     0.41017    0.00095     0.41111
      H   30    0.10521      0.00000     0.39353    0.00126     0.39479
      H   31    0.09920      0.00000     0.39991    0.00089     0.40080
      H   32    0.09592      0.00000     0.40325    0.00083     0.40408
      H   33    0.09515      0.00000     0.40389    0.00095     0.40485
      H   34    0.11537      0.00000     0.38327    0.00136     0.38463
      H   35    0.10877      0.00000     0.39001    0.00122     0.39123
      H   36    0.09696      0.00000     0.40216    0.00089     0.40304
      H   37    0.18242      0.00000     0.31618    0.00139     0.31758
      H   38    0.20780      0.00000     0.29027    0.00193     0.29220
 =======================================================================
   * Total *   -0.00000     23.99105    52.71312    0.29583    77.00000

 Normal termination of Gaussian 16 at Thu Dec 17 21:50:31 2020.
