 Gaussian 16, Revision A.03,

 -----------------------------------------------------------
 # opt freq B3LYP/6-31G(d) empiricaldispersion=gd3bj scf=xqc
 -----------------------------------------------------------

 --------------------------------
 CID_143265767_JID_10662_neutraal
 --------------------------------
 Symbolic Z-matrix:
 Charge =  0 Multiplicity = 1

 SCF Done:  E(RB3LYP) =  -1270.11567196     A.U. after   14 cycles
 SCF Done:  E(RB3LYP) =  -1270.12104037     A.U. after   12 cycles
 SCF Done:  E(RB3LYP) =  -1270.11552537     A.U. after   14 cycles
 SCF Done:  E(RB3LYP) =  -1270.12139798     A.U. after   12 cycles
 SCF Done:  E(RB3LYP) =  -1270.12241993     A.U. after   12 cycles
 SCF Done:  E(RB3LYP) =  -1270.12349556     A.U. after   13 cycles
 SCF Done:  E(RB3LYP) =  -1270.12334936     A.U. after   13 cycles
 SCF Done:  E(RB3LYP) =  -1270.12433970     A.U. after   12 cycles
 SCF Done:  E(RB3LYP) =  -1270.12477425     A.U. after   12 cycles
 SCF Done:  E(RB3LYP) =  -1270.12497909     A.U. after   12 cycles
 SCF Done:  E(RB3LYP) =  -1270.12526469     A.U. after    9 cycles
 SCF Done:  E(RB3LYP) =  -1270.12526637     A.U. after    8 cycles
 SCF Done:  E(RB3LYP) =  -1270.12526743     A.U. after    9 cycles
 SCF Done:  E(RB3LYP) =  -1270.12526755     A.U. after    7 cycles
 SCF Done:  E(RB3LYP) =  -1270.12526760     A.U. after    7 cycles
 Optimization completed.
    -- Stationary point found.
 Normal termination of Gaussian 16 at Sun Dec 13 16:57:12 2020.

 --------------------------------------------------------------------
 #N Geom=AllCheck Guess=TCheck SCRF=Check GenChk RB3LYP/6-31G(d) Freq
 --------------------------------------------------------------------

 Structure from the checkpoint file:  "JID_10662.chk"
 --------------------------------
 CID_143265767_JID_10662_neutraal
 --------------------------------
 Charge =  0 Multiplicity = 1

 SCF Done:  E(RB3LYP) =  -1270.12526760     A.U. after    1 cycles

  Exact polarizability: 232.995 -11.292 170.563 -17.385 -10.115 137.307
 Approx polarizability: 303.940 -20.526 285.141 -41.477 -24.279 228.544

                      1                      2                      3
                      A                      A                      A
 Frequencies --     15.4883                27.2063                33.0269
 Red. masses --      5.9379                 5.2780                 5.4578
 Frc consts  --      0.0008                 0.0023                 0.0035
 IR Inten    --      0.5491                 1.0471                 0.4958

                      4                      5                      6
                      A                      A                      A
 Frequencies --     62.9213                75.1843               101.8125
 Red. masses --      3.9402                 4.7814                 2.8560
 Frc consts  --      0.0092                 0.0159                 0.0174
 IR Inten    --      1.5864                 0.4843                 2.6218

                      7                      8                      9
                      A                      A                      A
 Frequencies --    128.2568               149.0886               153.9186
 Red. masses --      5.1140                 3.7401                 4.8451
 Frc consts  --      0.0496                 0.0490                 0.0676
 IR Inten    --      3.0689                 1.5860                 3.2365

                     10                     11                     12
                      A                      A                      A
 Frequencies --    194.2135               205.7906               219.5745
 Red. masses --      5.8094                 4.4714                 3.0021
 Frc consts  --      0.1291                 0.1116                 0.0853
 IR Inten    --      0.1060                 0.3929                14.7321

                     13                     14                     15
                      A                      A                      A
 Frequencies --    243.7438               261.4172               282.2162
 Red. masses --      3.9942                 2.5184                 2.9778
 Frc consts  --      0.1398                 0.1014                 0.1397
 IR Inten    --      6.3185                12.8590                17.7874

                     16                     17                     18
                      A                      A                      A
 Frequencies --    292.0425               309.1468               328.0007
 Red. masses --      2.9799                 4.7313                 1.3601
 Frc consts  --      0.1497                 0.2664                 0.0862
 IR Inten    --     14.3876                 7.5648                38.9575

                     19                     20                     21
                      A                      A                      A
 Frequencies --    346.0147               391.4590               414.9277
 Red. masses --      1.3348                 3.6529                 1.9703
 Frc consts  --      0.0942                 0.3298                 0.1999
 IR Inten    --    294.7114                 4.5676                 0.8799

                     22                     23                     24
                      A                      A                      A
 Frequencies --    425.2800               470.9950               517.1913
 Red. masses --      5.2448                 2.1831                 1.1286
 Frc consts  --      0.5589                 0.2853                 0.1779
 IR Inten    --      3.3801                 8.0258                 7.2794

                     25                     26                     27
                      A                      A                      A
 Frequencies --    537.2039               569.5777               590.0913
 Red. masses --      7.3232                 3.6295                 3.4760
 Frc consts  --      1.2452                 0.6937                 0.7131
 IR Inten    --      6.5954                 2.9795                 5.0563

                     28                     29                     30
                      A                      A                      A
 Frequencies --    612.4285               651.1523               662.4233
 Red. masses --      4.1783                 4.0793                 4.6574
 Frc consts  --      0.9233                 1.0191                 1.2041
 IR Inten    --      3.6439                 2.6535                30.0660

                     31                     32                     33
                      A                      A                      A
 Frequencies --    671.9434               686.2604               717.3746
 Red. masses --      4.2106                 9.4962                 5.9711
 Frc consts  --      1.1201                 2.6350                 1.8105
 IR Inten    --      3.1787                 4.6827                18.8207

                     34                     35                     36
                      A                      A                      A
 Frequencies --    744.1360               759.0178               806.9479
 Red. masses --      6.6814                 4.8944                 8.4727
 Frc consts  --      2.1798                 1.6613                 3.2506
 IR Inten    --     16.0370                16.9441                10.0310

                     37                     38                     39
                      A                      A                      A
 Frequencies --    810.7193               823.0765               846.2004
 Red. masses --      1.8334                 3.8950                 2.0302
 Frc consts  --      0.7100                 1.5547                 0.8565
 IR Inten    --      3.8278                25.0338                 0.5194

                     40                     41                     42
                      A                      A                      A
 Frequencies --    867.0661               898.6446               905.9251
 Red. masses --      1.4183                 1.8533                 1.4480
 Frc consts  --      0.6282                 0.8818                 0.7002
 IR Inten    --      3.6590                 9.5932                51.9232

                     43                     44                     45
                      A                      A                      A
 Frequencies --    912.3340               922.8845               933.5737
 Red. masses --      5.6419                 3.7927                 1.8817
 Frc consts  --      2.7668                 1.9032                 0.9663
 IR Inten    --     18.9353                 9.6675                30.7233

                     46                     47                     48
                      A                      A                      A
 Frequencies --    957.9841               967.0664               973.6286
 Red. masses --      2.7862                 1.4316                 2.0325
 Frc consts  --      1.5065                 0.7888                 1.1352
 IR Inten    --     25.4438                 2.0328                 5.6871

                     49                     50                     51
                      A                      A                      A
 Frequencies --   1004.5107              1024.0250              1042.8832
 Red. masses --      2.4391                 2.3259                 1.7873
 Frc consts  --      1.4501                 1.4370                 1.1453
 IR Inten    --     24.5826                 6.7710                60.7033

                     52                     53                     54
                      A                      A                      A
 Frequencies --   1065.3866              1088.4676              1114.7911
 Red. masses --      2.6075                 2.3846                 2.8121
 Frc consts  --      1.7438                 1.6645                 2.0590
 IR Inten    --      3.6856                30.6994               196.6884

                     55                     56                     57
                      A                      A                      A
 Frequencies --   1124.2755              1125.1416              1170.1339
 Red. masses --      1.8608                 2.2948                 1.4318
 Frc consts  --      1.3858                 1.7116                 1.1551
 IR Inten    --      8.0347                43.7262                 0.3363

                     58                     59                     60
                      A                      A                      A
 Frequencies --   1172.1294              1212.7256              1223.9287
 Red. masses --      1.2521                 2.3592                 1.7525
 Frc consts  --      1.0135                 2.0443                 1.5467
 IR Inten    --      0.9968                 8.3203                44.7856

                     61                     62                     63
                      A                      A                      A
 Frequencies --   1237.3541              1244.0232              1265.2634
 Red. masses --      1.3355                 1.3742                 1.3366
 Frc consts  --      1.2047                 1.2530                 1.2607
 IR Inten    --     51.6180                30.9161                25.4548

                     64                     65                     66
                      A                      A                      A
 Frequencies --   1280.1016              1292.0498              1316.4114
 Red. masses --      3.2284                 1.2460                 1.6006
 Frc consts  --      3.1170                 1.2255                 1.6342
 IR Inten    --    118.9356                18.3142                 9.8440

                     67                     68                     69
                      A                      A                      A
 Frequencies --   1335.7948              1339.0425              1346.6649
 Red. masses --      1.3492                 1.8997                 1.8452
 Frc consts  --      1.4184                 2.0069                 1.9716
 IR Inten    --     13.1661                66.9052                43.8816

                     70                     71                     72
                      A                      A                      A
 Frequencies --   1350.6078              1363.6569              1370.5761
 Red. masses --      2.6436                 1.5699                 1.4791
 Frc consts  --      2.8412                 1.7201                 1.6370
 IR Inten    --     17.8146                13.1895                22.4347

                     73                     74                     75
                      A                      A                      A
 Frequencies --   1371.0809              1383.4193              1406.4640
 Red. masses --      2.1249                 1.5444                 1.4989
 Frc consts  --      2.3535                 1.7415                 1.7470
 IR Inten    --     33.9778                46.9486                18.0816

                     76                     77                     78
                      A                      A                      A
 Frequencies --   1407.0635              1414.3686              1442.3190
 Red. masses --      1.8822                 1.5002                 1.3968
 Frc consts  --      2.1955                 1.7682                 1.7120
 IR Inten    --     23.9262                27.4849                 7.6024

                     79                     80                     81
                      A                      A                      A
 Frequencies --   1453.7662              1488.6208              1493.3782
 Red. masses --      5.5744                 1.0974                 1.0895
 Frc consts  --      6.9413                 1.4328                 1.4316
 IR Inten    --     16.8365                 7.8155                 4.3340

                     82                     83                     84
                      A                      A                      A
 Frequencies --   1518.5021              1523.5449              1528.2879
 Red. masses --      2.9789                 1.1133                 1.0971
 Frc consts  --      4.0470                 1.5225                 1.5097
 IR Inten    --     87.0366                11.4327                 2.8965

                     85                     86                     87
                      A                      A                      A
 Frequencies --   1533.9458              1543.6959              1620.6402
 Red. masses --      3.1874                 1.1121                 3.7317
 Frc consts  --      4.4188                 1.5614                 5.7748
 IR Inten    --      7.5230                 2.1965                43.9987

                     88                     89                     90
                      A                      A                      A
 Frequencies --   1637.3001              1681.8088              1692.5840
 Red. masses --      3.4208                 2.5149                 1.0876
 Frc consts  --      5.4030                 4.1911                 1.8358
 IR Inten    --     89.9258               618.7329                38.5228

                     91                     92                     93
                      A                      A                      A
 Frequencies --   2987.8987              3064.2047              3066.0119
 Red. masses --      1.0700                 1.0905                 1.0795
 Frc consts  --      5.6281                 6.0330                 5.9791
 IR Inten    --     81.3692                22.4993                10.7309

                     94                     95                     96
                      A                      A                      A
 Frequencies --   3077.4978              3081.7974              3084.4066
 Red. masses --      1.0725                 1.0635                 1.0630
 Frc consts  --      5.9848                 5.9513                 5.9582
 IR Inten    --      2.0379                18.7764                 3.3882

                     97                     98                     99
                      A                      A                      A
 Frequencies --   3086.0167              3106.3135              3134.9209
 Red. masses --      1.0636                 1.0874                 1.1069
 Frc consts  --      5.9680                 6.1822                 6.4093
 IR Inten    --     54.6522                35.3425                 6.7369

                    100                    101                    102
                      A                      A                      A
 Frequencies --   3137.8669              3146.2548              3167.8145
 Red. masses --      1.1057                 1.1016                 1.0981
 Frc consts  --      6.4145                 6.4247                 6.4927
 IR Inten    --      7.9855                15.5870                 1.7968

                    103                    104                    105
                      A                      A                      A
 Frequencies --   3188.0585              3294.1142              3472.0483
 Red. masses --      1.0903                 1.0962                 1.0501
 Frc consts  --      6.5293                 7.0085                 7.4587
 IR Inten    --     33.8903                 0.4686                 0.4278

                    106                    107                    108
                      A                      A                      A
 Frequencies --   3554.0720              3594.9513              3717.9966
 Red. masses --      1.0921                 1.0448                 1.1044
 Frc consts  --      8.1274                 7.9555                 8.9947
 IR Inten    --      0.2817                85.1614                42.9746

 - Thermochemistry -
 -------------------
 Temperature   298.150 Kelvin.  Pressure   1.00000 Atm.
 Atom     1 has atomic number  6 and mass  12.00000

 Molecular mass:   294.12628 amu.
 Principal axes and moments of inertia in atomic units:
                           1         2         3
     Eigenvalues --  2378.29987********************
           X            0.99994   0.01064   0.00272
           Y           -0.01061   0.99990  -0.00941
           Z           -0.00282   0.00938   0.99995
 This molecule is an asymmetric top.
 Rotational symmetry number  1.
 Warning -- assumption of classical behavior for rotation
           may cause significant error
 Rotational temperatures (Kelvin)      0.03642     0.00635     0.00607
 Rotational constants (GHZ):           0.75884     0.13242     0.12650
 Zero-point vibrational energy     829547.8 (Joules/Mol)
                                  198.26668 (Kcal/Mol)
 Warning -- explicit consideration of  28 degrees of freedom as
           vibrations may cause significant error
 Vibrational temperatures:     22.28    39.14    47.52    90.53   108.17
          (Kelvin)            146.49   184.53   214.51   221.45   279.43
                              296.09   315.92   350.69   376.12   406.05
                              420.18   444.79   471.92   497.84   563.22
                              596.99   611.88   677.66   744.12   772.92
                              819.50   849.01   881.15   936.86   953.08
                              966.78   987.38  1032.14  1070.65  1092.06
                             1161.02  1166.44  1184.22  1217.49  1247.51
                             1292.95  1303.42  1312.65  1327.83  1343.20
                             1378.33  1391.39  1400.83  1445.27  1473.34
                             1500.48  1532.85  1566.06  1603.94  1617.58
                             1618.83  1683.56  1686.43  1744.84  1760.96
                             1780.28  1789.87  1820.43  1841.78  1858.97
                             1894.02  1921.91  1926.58  1937.55  1943.22
                             1962.00  1971.95  1972.68  1990.43  2023.59
                             2024.45  2034.96  2075.18  2091.65  2141.79
                             2148.64  2184.79  2192.04  2198.87  2207.01
                             2221.03  2331.74  2355.71  2419.75  2435.25
                             4298.92  4408.71  4411.31  4427.83  4434.02
                             4437.77  4440.09  4469.29  4510.45  4514.69
                             4526.76  4557.78  4586.91  4739.50  4995.50
                             5113.52  5172.33  5349.37

 Zero-point correction=                           0.315958 (Hartree/Particle)
 Thermal correction to Energy=                    0.334490
 Thermal correction to Enthalpy=                  0.335434
 Thermal correction to Gibbs Free Energy=         0.266912
 Sum of electronic and zero-point Energies=          -1269.809310
 Sum of electronic and thermal Energies=             -1269.790778
 Sum of electronic and thermal Enthalpies=           -1269.789834
 Sum of electronic and thermal Free Energies=        -1269.858356

                     E (Thermal)             CV                S
                      KCal/Mol        Cal/Mol-Kelvin    Cal/Mol-Kelvin
 Total                  209.895             70.859            144.216
 Electronic               0.000              0.000              0.000
 Translational            0.889              2.981             42.934
 Rotational               0.889              2.981             34.491
 Vibrational            208.118             64.897             66.792
 Vibration     1          0.593              1.986              7.142
 Vibration     2          0.593              1.984              6.023
 Vibration     3          0.594              1.983              5.639
 Vibration     4          0.597              1.972              4.363
 Vibration     5          0.599              1.966              4.013
 Vibration     6          0.604              1.948              3.419
 Vibration     7          0.611              1.925              2.972
 Vibration     8          0.618              1.904              2.684
 Vibration     9          0.619              1.898              2.623
 Vibration    10          0.635              1.848              2.187
 Vibration    11          0.640              1.832              2.081
 Vibration    12          0.647              1.811              1.963
 Vibration    13          0.659              1.773              1.775
 Vibration    14          0.669              1.743              1.652
 Vibration    15          0.681              1.707              1.520
 Vibration    16          0.687              1.689              1.462
 Vibration    17          0.698              1.656              1.367
 Vibration    18          0.711              1.620              1.270
 Vibration    19          0.724              1.583              1.184
 Vibration    20          0.759              1.488              0.995
 Vibration    21          0.778              1.438              0.909
 Vibration    22          0.787              1.415              0.874
 Vibration    23          0.828              1.314              0.735
 Vibration    24          0.872              1.212              0.617
 Vibration    25          0.892              1.168              0.571
 Vibration    26          0.926              1.097              0.505
 Vibration    27          0.947              1.053              0.467
 Vibration    28          0.972              1.006              0.429

                           ! Non-Optimized Parameters !
 Normal termination of Gaussian 16 at Sun Dec 13 17:15:42 2020.

 ----------------------------------------------------------------------
 # B3LYP/6-311++G(d,p) empiricaldispersion=gd3bj scf=xqc pop=npa geom=c
 heck
 ----------------------------------------------------------------------

 ----------------------------------------
 CID_143265767_JID_10662_Energie_neutraal
 ----------------------------------------
 Structure from the checkpoint file:  "JID_10662.chk"
 Charge =  0 Multiplicity = 1

 SCF Done:  E(RB3LYP) =  -1270.39881705     A.U. after   15 cycles
 Normal termination of Gaussian 16 at Sun Dec 13 17:23:17 2020.

 ----------------------------------------------------------------------
 # B3LYP/6-311++G(d,p) empiricaldispersion=gd3bj scf=xqc pop=npa geom=c
 heck
 ----------------------------------------------------------------------

 --------------------------------------
 CID_143265767_JID_10662_Energie_kation
 --------------------------------------
 Structure from the checkpoint file:  "JID_10662.chk"
 Charge =  1 Multiplicity = 2

 SCF Done:  E(UB3LYP) =  -1270.11620896     A.U. after   28 cycles
 Normal termination of Gaussian 16 at Sun Dec 13 17:42:18 2020.
 Gaussian 16:  ES64L-G16RevA.03 25-Dec-2016

 ----------------------------------------------------------------------
 # B3LYP/6-311++G(d,p) empiricaldispersion=gd3bj scf=xqc pop=npa geom=c
 heck
 ----------------------------------------------------------------------

 -------------------------------------
 CID_143265767_JID_10662_Energie_anion
 -------------------------------------
 Structure from the checkpoint file:  "JID_10662.chk"
 Charge = -1 Multiplicity = 2

                         Standard orientation:
 ---------------------------------------------------------------------
 Center     Atomic      Atomic             Coordinates (Angstroms)
 Number     Number       Type             X           Y           Z
 ---------------------------------------------------------------------
      1          6           0        1.211000    0.678317    0.158632
      2          6           0        0.334780    1.238660   -0.970518
      3          6           0       -0.299635   -0.033057   -1.523778
      4          8           0        0.697490   -1.017797   -1.452074
      5          6           0        1.636096   -0.704869   -0.380161
      6          6           0        3.033248   -0.751057   -1.001493
      7         16           0        4.389681   -1.254617    0.131366
      8          6           0        4.294332   -0.091598    1.553958
      9          6           0        5.026822    1.233595    1.357569
     10          7           0        4.477088    1.984588    0.222866
     11          7           0       -1.454658   -0.458170   -0.706013
     12          6           0       -1.663040   -1.713947   -0.162158
     13          7           0       -2.804235   -1.830337    0.479432
     14          6           0       -3.392403   -0.584400    0.343119
     15          6           0       -4.621158   -0.054664    0.784369
     16          7           0       -4.936670    1.214248    0.468778
     17          6           0       -4.053059    1.928669   -0.247012
     18          7           0       -2.859259    1.555516   -0.719754
     19          6           0       -2.577745    0.283809   -0.395441
     20          7           0       -5.486951   -0.777131    1.542319
     21          1           0        2.072230    1.319177    0.360691
     22          1           0        0.624453    0.567345    1.076261
     23          1           0        0.951903    1.683812   -1.758570
     24          1           0       -0.405592    1.972782   -0.651292
     25          1           0       -0.628970    0.045857   -2.563286
     26          1           0        1.548053   -1.491212    0.377333
     27          1           0        3.043540   -1.538985   -1.760445
     28          1           0        3.257420    0.196568   -1.497915
     29          1           0        3.247754    0.076431    1.816548
     30          1           0        4.754915   -0.643696    2.379967
     31          1           0        4.881153    1.836485    2.263190
     32          1           0        6.107748    1.034305    1.270755
     33          1           0        4.847904    2.933056    0.228228
     34          1           0        4.811962    1.557144   -0.639402
     35          1           0       -0.924599   -2.492183   -0.283498
     36          1           0       -4.355135    2.948890   -0.473502
     37          1           0       -5.350591   -1.775524    1.601128
     38          1           0       -6.421585   -0.411744    1.652638
 ---------------------------------------------------------------------

 SCF Done:  E(UB3LYP) =  -1270.39205706     A.U. after   33 cycles
 SCF Done:  E(UB3LYP) =  -1270.39205705     a.u. after    1 cycles

 The electronic state is 2-A.
 Alpha  occ. eigenvalues --  -88.75224 -19.05327 -14.27344 -14.24341 -14.20842
 Alpha  occ. eigenvalues --  -14.20714 -14.20578 -14.19901 -10.18211 -10.15292
 Alpha  occ. eigenvalues --  -10.14500 -10.14279 -10.13332 -10.12939 -10.11081
 Alpha  occ. eigenvalues --  -10.10983 -10.10379 -10.09784 -10.08434 -10.08128
 Alpha  occ. eigenvalues --   -7.83820  -5.80223  -5.79839  -5.79192  -0.98146
 Alpha  occ. eigenvalues --   -0.93047  -0.88179  -0.84110  -0.79639  -0.79389
 Alpha  occ. eigenvalues --   -0.76431  -0.72515  -0.69871  -0.67529  -0.66445
 Alpha  occ. eigenvalues --   -0.62676  -0.56992  -0.56252  -0.55479  -0.53343
 Alpha  occ. eigenvalues --   -0.51038  -0.49207  -0.48540  -0.46634  -0.44817
 Alpha  occ. eigenvalues --   -0.42637  -0.41893  -0.40781  -0.40550  -0.39515
 Alpha  occ. eigenvalues --   -0.38858  -0.36766  -0.36107  -0.35629  -0.34485
 Alpha  occ. eigenvalues --   -0.33536  -0.33186  -0.32317  -0.31848  -0.30762
 Alpha  occ. eigenvalues --   -0.30052  -0.29482  -0.27490  -0.27077  -0.26618
 Alpha  occ. eigenvalues --   -0.26406  -0.25848  -0.24935  -0.22313  -0.21622
 Alpha  occ. eigenvalues --   -0.19888  -0.19360  -0.19008  -0.17019  -0.15949
 Alpha  occ. eigenvalues --   -0.15935  -0.13876  -0.13157   0.03976
 Alpha virt. eigenvalues --    0.05197   0.06257   0.06665   0.07413   0.08218
 Alpha virt. eigenvalues --    0.08484   0.08911   0.09212   0.09342   0.09526
 Alpha virt. eigenvalues --    0.10493   0.10574   0.10953   0.11458   0.11638

  Beta  occ. eigenvalues --  -88.75221 -19.05326 -14.27327 -14.24312 -14.20820
  Beta  occ. eigenvalues --  -14.20777 -14.20477 -14.19843 -10.18207 -10.15110
  Beta  occ. eigenvalues --  -10.14501 -10.14293 -10.13159 -10.12816 -10.11070
  Beta  occ. eigenvalues --  -10.10978 -10.10344 -10.09788 -10.08427 -10.08125
  Beta  occ. eigenvalues --   -7.83816  -5.80220  -5.79836  -5.79186  -0.98133
  Beta  occ. eigenvalues --   -0.92955  -0.88036  -0.83959  -0.79568  -0.79304
  Beta  occ. eigenvalues --   -0.76365  -0.72496  -0.69852  -0.67488  -0.66284
  Beta  occ. eigenvalues --   -0.62631  -0.56805  -0.56160  -0.55355  -0.53259
  Beta  occ. eigenvalues --   -0.51001  -0.49111  -0.48480  -0.46596  -0.44746
  Beta  occ. eigenvalues --   -0.42611  -0.41807  -0.40718  -0.40478  -0.39450
  Beta  occ. eigenvalues --   -0.38805  -0.36674  -0.35919  -0.35563  -0.34414
  Beta  occ. eigenvalues --   -0.33489  -0.33133  -0.32226  -0.31774  -0.30419
  Beta  occ. eigenvalues --   -0.30011  -0.29426  -0.27422  -0.27004  -0.26587
  Beta  occ. eigenvalues --   -0.25938  -0.25807  -0.24907  -0.22253  -0.21586
  Beta  occ. eigenvalues --   -0.19881  -0.19157  -0.18984  -0.16783  -0.15901
  Beta  occ. eigenvalues --   -0.15882  -0.13849  -0.12596
  Beta virt. eigenvalues --    0.06186   0.06453   0.06775   0.07427   0.07846
  Beta virt. eigenvalues --    0.08254   0.08736   0.08976   0.09380   0.09642
  Beta virt. eigenvalues --    0.09825   0.10593   0.10688   0.11104   0.11605

 Mulliken charges and spin densities:
               1          2
     1  C   -0.758183   0.163823
     2  C   -0.042552  -0.535053
     3  C   -0.153152   0.260035
     4  O   -0.085670  -0.005818
     5  C   -0.258236   0.153381
     6  C    0.243213  -0.494673
     7  S   -0.034910   0.025950
     8  C   -0.687985   0.480992
     9  C    1.405856  -1.945060
    10  N   -0.440676   0.009642
    11  N    0.188199  -0.059371
    12  C    0.160346   0.173386
    13  N   -0.163884   0.003104
    14  C    0.757037  -0.024141
    15  C   -0.505086   0.019105
    16  N   -0.227506  -0.035142
    17  C   -0.054147   0.111543
    18  N   -0.168792   0.050447
    19  C   -0.976589  -0.054265
    20  N   -0.351716   0.020011
    21  H    0.582612  -0.251730
    22  H    0.096717   0.072351
    23  H    0.001434   0.179889
    24  H    0.167531   0.040875
    25  H   -0.035630   0.290588
    26  H    0.193724  -0.021300
    27  H    0.226132   0.025875
    28  H   -0.015301   0.177606
    29  H    0.214158  -0.026199
    30  H   -0.020921   0.252360
    31  H   -0.430677   0.586051
    32  H   -0.339597   0.458957
    33  H   -0.342097   0.616301
    34  H   -0.019723   0.240670
    35  H    0.178760   0.027474
    36  H    0.175302  -0.000350
    37  H    0.259438   0.005466
    38  H    0.262572   0.007217
 Sum of Mulliken charges =  -1.00000   1.00000

 Dipole moment (field-independent basis, Debye):
    X=             -6.9033    Y=             -5.1628    Z=             -0.3596  Tot=              8.6278
 Quadrupole moment (field-independent basis, Debye-Ang):
   XX=           -243.4008   YY=           -171.2573   ZZ=           -152.9716
   XY=            -16.9020   XZ=             -7.3066   YZ=             -2.6952

 Summary of Natural Population Analysis:

                                       Natural Population
                Natural  -----------------------------------------------
    Atom  No    Charge         Core      Valence    Rydberg      Total
 -----------------------------------------------------------------------
      C    1   -0.21981      0.99961     2.21225    0.00794     3.21981
      C    2   -0.20840      0.99961     2.19972    0.00906     3.20840
      C    3    0.16997      0.99958     1.81352    0.01693     2.83003
      O    4   -0.30221      0.99988     3.29438    0.00795     4.30221
      C    5    0.05658      0.99954     1.93013    0.01375     2.94342
      C    6   -0.25787      0.99955     2.24599    0.01234     3.25787
      S    7    0.08076      4.99963     2.90173    0.01787     7.91924
      C    8   -0.25356      0.99958     2.24347    0.01052     3.25356
      C    9   -0.09379      0.99962     2.08050    0.01368     3.09379
      N   10   -0.42850      0.99977     2.91634    0.01239     3.92850
      N   11   -0.22980      0.99960     2.72002    0.01017     3.72980
      C   12    0.15667      0.99965     1.82783    0.01584     2.84333
      N   13   -0.25829      0.99971     2.74880    0.00978     3.75829
      C   14   -0.00334      0.99940     1.99034    0.01360     3.00334
      C   15    0.23420      0.99952     1.75211    0.01417     2.76580
      N   16   -0.29644      0.99968     2.78606    0.01070     3.79644
      C   17    0.16163      0.99969     1.81986    0.01882     2.83837
      N   18   -0.26660      0.99968     2.75715    0.00977     3.76660
      C   19    0.18071      0.99946     1.80338    0.01645     2.81929
      N   20   -0.38575      0.99970     2.87768    0.00837     3.88575
      H   21    0.12698      0.00000     0.37121    0.00181     0.37302
      H   22    0.10092      0.00000     0.39789    0.00118     0.39908
      H   23    0.10349      0.00000     0.39522    0.00129     0.39651
      H   24    0.12151      0.00000     0.37695    0.00154     0.37849
      H   25    0.09634      0.00000     0.40236    0.00130     0.40366
      H   26    0.09038      0.00000     0.40827    0.00134     0.40962
      H   27    0.11237      0.00000     0.38643    0.00119     0.38763
      H   28    0.10424      0.00000     0.39388    0.00188     0.39576
      H   29    0.10269      0.00000     0.39585    0.00146     0.39731
      H   30    0.10643      0.00000     0.39243    0.00114     0.39357
      H   31    0.09415      0.00000     0.40409    0.00176     0.40585
      H   32    0.08231      0.00000     0.41523    0.00246     0.41769
      H   33    0.18386      0.00000     0.30993    0.00621     0.31614
      H   34    0.17553      0.00000     0.32152    0.00295     0.32447
      H   35    0.09705      0.00000     0.40128    0.00167     0.40295
      H   36    0.07727      0.00000     0.42152    0.00121     0.42273
      H   37    0.19638      0.00000     0.30253    0.00109     0.30362
      H   38    0.19192      0.00000     0.30651    0.00157     0.30808
 =======================================================================
   * Total *    0.00000     23.99247    53.72438    0.28316    78.00000

 Normal termination of Gaussian 16 at Sun Dec 13 18:03:59 2020.
