 Gaussian 16, Revision A.03,

 -----------------------------------------------------------
 # opt freq B3LYP/6-31G(d) empiricaldispersion=gd3bj scf=xqc
 -----------------------------------------------------------

 -----------------------------
 CID_87475127_JID_659_neutraal
 -----------------------------
 Symbolic Z-matrix:
 Charge =  0 Multiplicity = 1

 SCF Done:  E(RB3LYP) =  -437.535294471     A.U. after   15 cycles
 SCF Done:  E(RB3LYP) =  -437.541043172     A.U. after   14 cycles
 SCF Done:  E(RB3LYP) =  -437.543344472     A.U. after   14 cycles
 SCF Done:  E(RB3LYP) =  -437.544642590     A.U. after   14 cycles
 SCF Done:  E(RB3LYP) =  -437.545151889     A.U. after   13 cycles
 SCF Done:  E(RB3LYP) =  -437.545244602     A.U. after   12 cycles
 SCF Done:  E(RB3LYP) =  -437.545267553     A.U. after   10 cycles
 SCF Done:  E(RB3LYP) =  -437.545273836     A.U. after   10 cycles
 SCF Done:  E(RB3LYP) =  -437.545275439     A.U. after    9 cycles
 Optimization completed.
    -- Stationary point found.

 1\1\GINC-NODE308\FOpt\RB3LYP\6-31G(d)\C7H11N3\VSC10255\08-Dec-2020\0\\
 # opt freq B3LYP/6-31G(d) empiricaldispersion=gd3bj scf=xqc\\CID_87475
 127_JID_659_neutraal\\0,1\C,-0.7749155678,-3.9043783367,-6.3332663096\
 C,-0.4056303333,-2.414762383,-6.5548103171\C,-0.8261751568,-1.42229530
 65,-5.4451662948\N,-0.0299792531,-1.6512566801,-4.2366719799\N,-0.7255
 695205,-2.0561366667,-3.2854640985\N,-0.0526427421,-2.430860848,-2.152
 795427\C,0.4112440318,-3.6361646446,-2.1018133088\C,0.3491560617,-4.58
 64828143,-3.2249180579\C,0.7997267547,-4.2556708404,-4.445408893\C,0.3

 Normal termination of Gaussian 16 at Tue Dec  8 12:24:18 2020.

 --------------------------------------------------------------------
 #N Geom=AllCheck Guess=TCheck SCRF=Check GenChk RB3LYP/6-31G(d) Freq
 --------------------------------------------------------------------

 Structure from the checkpoint file:  "JID_659.chk"
 -----------------------------
 CID_87475127_JID_659_neutraal
 -----------------------------
 Charge =  0 Multiplicity = 1

 SCF Done:  E(RB3LYP) =  -437.545275439     A.U. after    1 cycles

  Exact polarizability: 116.818  -7.048  91.249  -5.114   1.939  64.530
 Approx polarizability: 177.850  -8.705 136.745 -19.684   1.027 109.065

                      1                      2                      3
                      A                      A                      A
 Frequencies --    134.5874               145.6716               164.9852
 Red. masses --      3.8381                 2.9904                 4.0619
 Frc consts  --      0.0410                 0.0374                 0.0651
 IR Inten    --      0.7597                 0.5907                 3.2891

                      4                      5                      6
                      A                      A                      A
 Frequencies --    220.1022               267.7217               328.3358
 Red. masses --      2.8038                 3.5831                 2.2994
 Frc consts  --      0.0800                 0.1513                 0.1460
 IR Inten    --      0.8673                 3.9015                 1.9069

                      7                      8                      9
                      A                      A                      A
 Frequencies --    333.3223               354.8933               424.1645
 Red. masses --      2.0235                 4.4298                 2.6672
 Frc consts  --      0.1325                 0.3287                 0.2827
 IR Inten    --      3.0488                 1.3090                 2.2312

                     10                     11                     12
                      A                      A                      A
 Frequencies --    468.4186               507.7233               547.0272
 Red. masses --      1.8468                 4.5445                 3.6558
 Frc consts  --      0.2388                 0.6902                 0.6445
 IR Inten    --      4.7392                 6.7808                 2.9194

                     13                     14                     15
                      A                      A                      A
 Frequencies --    634.6620               756.3670               766.3902
 Red. masses --      4.7275                 2.1485                 2.4853
 Frc consts  --      1.1219                 0.7242                 0.8601
 IR Inten    --      2.0754                 2.3490                19.8964

                     16                     17                     18
                      A                      A                      A
 Frequencies --    818.4107               856.3895               868.7133
 Red. masses --      1.8344                 2.7071                 1.8934
 Frc consts  --      0.7239                 1.1697                 0.8419
 IR Inten    --      0.1606                22.4158                11.2767

                     19                     20                     21
                      A                      A                      A
 Frequencies --    921.3009               948.6172               953.8148
 Red. masses --      2.2335                 2.0049                 3.2366
 Frc consts  --      1.1170                 1.0630                 1.7349
 IR Inten    --      6.9810                 4.2658                18.0040

                     22                     23                     24
                      A                      A                      A
 Frequencies --    978.6377              1017.5227              1051.4164
 Red. masses --      1.8793                 1.3384                 2.0649
 Frc consts  --      1.0604                 0.8164                 1.3449
 IR Inten    --      3.8579                25.1612                15.6788

                     25                     26                     27
                      A                      A                      A
 Frequencies --   1067.3750              1078.7624              1094.3096
 Red. masses --      2.3636                 2.8100                 1.9173
 Frc consts  --      1.5866                 1.9267                 1.3527
 IR Inten    --      3.1551                 3.8673                11.7132

                     28                     29                     30
                      A                      A                      A
 Frequencies --   1146.6040              1209.9909              1242.6699
 Red. masses --      2.5052                 1.4706                 1.1522
 Frc consts  --      1.9405                 1.2686                 1.0484
 IR Inten    --      1.9783                 4.3766                 2.9548

                     31                     32                     33
                      A                      A                      A
 Frequencies --   1269.8879              1290.8145              1329.7383
 Red. masses --      1.2436                 1.1777                 1.3461
 Frc consts  --      1.1816                 1.1562                 1.4023
 IR Inten    --      0.9120                 0.5163                 1.4977

                     34                     35                     36
                      A                      A                      A
 Frequencies --   1358.0190              1377.9344              1384.0653
 Red. masses --      1.2271                 1.2929                 1.2726
 Frc consts  --      1.3333                 1.4464                 1.4363
 IR Inten    --      2.0950                 0.8087                 2.3998

                     37                     38                     39
                      A                      A                      A
 Frequencies --   1386.0490              1399.1559              1406.7970
 Red. masses --      1.3556                 1.3055                 1.3806
 Frc consts  --      1.5344                 1.5058                 1.6098
 IR Inten    --     10.0678                10.1851                 1.7324

                     40                     41                     42
                      A                      A                      A
 Frequencies --   1506.5667              1513.1443              1514.6294
 Red. masses --      1.0890                 1.1010                 1.0859
 Frc consts  --      1.4563                 1.4852                 1.4678
 IR Inten    --      6.0741                 1.3230                 7.6960

                     43                     44                     45
                      A                      A                      A
 Frequencies --   1521.4301              1610.5905              1632.2327
 Red. masses --      1.1102                 9.8332                 9.3673
 Frc consts  --      1.5141                15.0284                14.7037
 IR Inten    --      1.8487                28.9713                15.9390

                     46                     47                     48
                      A                      A                      A
 Frequencies --   1718.1664              3037.9271              3039.5896
 Red. masses --      5.5260                 1.0585                 1.0600
 Frc consts  --      9.6115                 5.7558                 5.7702
 IR Inten    --     24.7540                43.0597                11.3100

                     49                     50                     51
                      A                      A                      A
 Frequencies --   3043.3618              3049.6113              3081.4557
 Red. masses --      1.0616                 1.0636                 1.1016
 Frc consts  --      5.7933                 5.8277                 6.1630
 IR Inten    --     27.6607                23.7623                27.9022

                     52                     53                     54
                      A                      A                      A
 Frequencies --   3089.0407              3092.7335              3097.6552
 Red. masses --      1.1000                 1.1056                 1.1058
 Frc consts  --      6.1844                 6.2309                 6.2517
 IR Inten    --     39.0683                21.5942                51.7213

                     55                     56                     57
                      A                      A                      A
 Frequencies --   3134.4971              3150.7514              3209.5254
 Red. masses --      1.0870                 1.0895                 1.0883
 Frc consts  --      6.2926                 6.3722                 6.6054
 IR Inten    --     12.8941                45.7410                 3.9835

 - Thermochemistry -
 -------------------
 Temperature   298.150 Kelvin.  Pressure   1.00000 Atm.
 Atom     1 has atomic number  6 and mass  12.00000

 Molecular mass:   137.09530 amu.
 Principal axes and moments of inertia in atomic units:
                           1         2         3
     Eigenvalues --   904.391511363.483652088.29311
           X            0.99920  -0.03995   0.00179
           Y            0.03994   0.99917   0.00789
           Z           -0.00210  -0.00781   0.99997
 This molecule is an asymmetric top.
 Rotational symmetry number  1.
 Warning -- assumption of classical behavior for rotation
           may cause significant error
 Rotational temperatures (Kelvin)      0.09577     0.06352     0.04148
 Rotational constants (GHZ):           1.99553     1.32363     0.86422
 Zero-point vibrational energy     469858.9 (Joules/Mol)
                                  112.29898 (Kcal/Mol)
 Warning -- explicit consideration of  12 degrees of freedom as
           vibrations may cause significant error
 Vibrational temperatures:    193.64   209.59   237.38   316.68   385.19
          (Kelvin)            472.40   479.58   510.61   610.28   673.95
                              730.50   787.05   913.14  1088.24  1102.66
                             1177.51  1232.15  1249.88  1325.55  1364.85
                             1372.33  1408.04  1463.99  1512.75  1535.71
                             1552.10  1574.47  1649.71  1740.91  1787.92
                             1827.09  1857.19  1913.20  1953.89  1982.54
                             1991.36  1994.22  2013.07  2024.07  2167.61
                             2177.08  2179.21  2189.00  2317.28  2348.42
                             2472.06  4370.90  4373.29  4378.72  4387.71
                             4433.53  4444.44  4449.75  4456.83  4509.84
                             4533.23  4617.79

 Zero-point correction=                           0.178960 (Hartree/Particle)
 Thermal correction to Energy=                    0.187794
 Thermal correction to Enthalpy=                  0.188738
 Thermal correction to Gibbs Free Energy=         0.145629
 Sum of electronic and zero-point Energies=           -437.366316
 Sum of electronic and thermal Energies=              -437.357481
 Sum of electronic and thermal Enthalpies=            -437.356537
 Sum of electronic and thermal Free Energies=         -437.399646

                     E (Thermal)             CV                S
                      KCal/Mol        Cal/Mol-Kelvin    Cal/Mol-Kelvin
 Total                  117.842             34.718             90.731
 Electronic               0.000              0.000              0.000
 Translational            0.889              2.981             40.658
 Rotational               0.889              2.981             29.333
 Vibrational            116.065             28.756             20.739
 Vibration     1          0.613              1.919              2.879
 Vibration     2          0.617              1.907              2.728
 Vibration     3          0.623              1.885              2.492
 Vibration     4          0.647              1.810              1.958
 Vibration     5          0.673              1.732              1.611
 Vibration     6          0.712              1.619              1.268
 Vibration     7          0.715              1.609              1.244
 Vibration     8          0.731              1.565              1.144
 Vibration     9          0.786              1.418              0.878
 Vibration    10          0.826              1.320              0.742
 Vibration    11          0.863              1.233              0.639
 Vibration    12          0.902              1.146              0.550

 Optimization completed.
    -- Stationary point found.

 1\1\GINC-NODE308\Freq\RB3LYP\6-31G(d)\C7H11N3\VSC10255\08-Dec-2020\0\\
 #N Geom=AllCheck Guess=TCheck SCRF=Check GenChk RB3LYP/6-31G(d) Freq\\
 CID_87475127_JID_659_neutraal\\0,1\C,-0.7749155678,-3.9043783367,-6.33
 32663096\C,-0.4056303333,-2.414762383,-6.5548103171\C,-0.8261751568,-1
 .4222953065,-5.4451662948\N,-0.0299792531,-1.6512566801,-4.2366719799\
 N,-0.7255695205,-2.0561366667,-3.2854640985\N,-0.0526427421,-2.4308608
 48,-2.152795427\C,0.4112440318,-3.6361646446,-2.1018133088\C,0.3491560
 617,-4.5864828143,-3.2249180579\C,0.7997267547,-4.2556708404,-4.445408

 Normal termination of Gaussian 16 at Tue Dec  8 12:29:24 2020.

 ----------------------------------------------------------------------
 # B3LYP/6-311++G(d,p) empiricaldispersion=gd3bj scf=xqc pop=npa geom=c
 heck
 ----------------------------------------------------------------------

 -------------------------------------
 CID_87475127_JID_659_Energie_neutraal
 -------------------------------------
 Structure from the checkpoint file:  "JID_659.chk"
 Charge =  0 Multiplicity = 1

 SCF Done:  E(RB3LYP) =  -437.663295100     A.U. after   15 cycles
 Normal termination of Gaussian 16 at Tue Dec  8 12:32:52 2020.

 ----------------------------------------------------------------------
 # B3LYP/6-311++G(d,p) empiricaldispersion=gd3bj scf=xqc pop=npa geom=c
 heck
 ----------------------------------------------------------------------

 -----------------------------------
 CID_87475127_JID_659_Energie_kation
 -----------------------------------
 Structure from the checkpoint file:  "JID_659.chk"
 Charge =  1 Multiplicity = 2

 SCF Done:  E(UB3LYP) =  -437.345122297     A.U. after   25 cycles
 Normal termination of Gaussian 16 at Tue Dec  8 12:48:48 2020.
 Gaussian 16:  ES64L-G16RevA.03 25-Dec-2016

 ----------------------------------
 CID_87475127_JID_659_Energie_anion
 ----------------------------------
 Structure from the checkpoint file:  "JID_659.chk"
 Charge = -1 Multiplicity = 2

                         Standard orientation:
 ---------------------------------------------------------------------
 Center     Atomic      Atomic             Coordinates (Angstroms)
 Number     Number       Type             X           Y           Z
 ---------------------------------------------------------------------
      1          6           0        1.929972    0.704764    0.578366
      2          6           0        2.138261   -0.604510   -0.225889
      3          6           0        1.140548   -1.754509    0.048393
      4          7           0       -0.184553   -1.406020   -0.470716
      5          7           0       -1.027311   -1.280794    0.438486
      6          7           0       -2.262879   -0.820911    0.066914
      7          6           0       -2.424417    0.458237   -0.023822
      8          6           0       -1.336372    1.435848    0.145760
      9          6           0       -0.191734    1.334219   -0.548160
     10          6           0        1.148148    1.848051   -0.133317
     11          1           0        1.414822    0.473242    1.518991
     12          1           0        2.914384    1.105184    0.850054
     13          1           0        2.150513   -0.393260   -1.302789
     14          1           0        3.129857   -1.005181    0.015644
     15          1           0        1.481100   -2.645225   -0.492706
     16          1           0        1.095523   -1.980863    1.121768
     17          1           0       -3.458884    0.784025   -0.139634
     18          1           0       -1.428027    2.135830    0.978489
     19          1           0       -0.186271    0.664860   -1.401693
     20          1           0        1.727519    2.191432   -1.000421
     21          1           0        1.056231    2.691432    0.561520
 ---------------------------------------------------------------------

 SCF Done:  E(UB3LYP) =  -437.658089840     A.U. after   33 cycles
 SCF Done:  E(UB3LYP) =  -437.658089840     a.u. after    1 cycles

 The electronic state is 2-A.
 Alpha  occ. eigenvalues --  -14.22366 -14.19511 -14.18893 -10.07182 -10.06415
 Alpha  occ. eigenvalues --  -10.04737 -10.04610 -10.04522 -10.03020 -10.02929
 Alpha  occ. eigenvalues --   -0.91407  -0.77246  -0.68959  -0.63896  -0.62179
 Alpha  occ. eigenvalues --   -0.53844  -0.52258  -0.45483  -0.43614  -0.38424
 Alpha  occ. eigenvalues --   -0.36724  -0.34588  -0.34241  -0.32026  -0.30051
 Alpha  occ. eigenvalues --   -0.29400  -0.27780  -0.25991  -0.23694  -0.23610
 Alpha  occ. eigenvalues --   -0.21938  -0.20075  -0.19707  -0.17343  -0.13261
 Alpha  occ. eigenvalues --   -0.11319  -0.08807   0.05264
 Alpha virt. eigenvalues --    0.08054   0.08805   0.09857   0.10285   0.10375
 Alpha virt. eigenvalues --    0.11154   0.12316   0.12849   0.13116   0.13571
 Alpha virt. eigenvalues --    0.14805   0.15118   0.16126   0.17063   0.18150

  Beta  occ. eigenvalues --  -14.21936 -14.19398 -14.18629 -10.07127 -10.06423
  Beta  occ. eigenvalues --  -10.04744 -10.04576 -10.04487 -10.02927 -10.02805
  Beta  occ. eigenvalues --   -0.90794  -0.76856  -0.68778  -0.63695  -0.61945
  Beta  occ. eigenvalues --   -0.53628  -0.52049  -0.45306  -0.43379  -0.38197
  Beta  occ. eigenvalues --   -0.36544  -0.34389  -0.33690  -0.31899  -0.29844
  Beta  occ. eigenvalues --   -0.29098  -0.27351  -0.25552  -0.23490  -0.23354
  Beta  occ. eigenvalues --   -0.21760  -0.19937  -0.19411  -0.16584  -0.12471
  Beta  occ. eigenvalues --   -0.10637  -0.08363
  Beta virt. eigenvalues --    0.08468   0.09259   0.09811   0.10322   0.10753
  Beta virt. eigenvalues --    0.11354   0.11861   0.12556   0.12963   0.13496
  Beta virt. eigenvalues --    0.13904   0.14922   0.15357   0.16258   0.17308

 Mulliken charges and spin densities:
               1          2
     1  C   -0.011135  -0.130606
     2  C    0.311910  -0.483400
     3  C   -0.144416  -0.327629
     4  N   -0.231159   0.027730
     5  N    0.093735   0.189263
     6  N   -0.019722   0.103093
     7  C   -0.488190   0.012731
     8  C   -0.277918   0.054170
     9  C    0.224899   0.183325
    10  C   -0.081519  -0.506918
    11  H    0.199361  -0.077998
    12  H   -0.595223   0.759027
    13  H    0.130855   0.014806
    14  H   -0.588999   0.738981
    15  H    0.081956   0.046187
    16  H    0.062869   0.059276
    17  H    0.105388   0.026876
    18  H    0.112974   0.005368
    19  H    0.170775  -0.019492
    20  H   -0.059539   0.191995
    21  H    0.003098   0.133215
 Sum of Mulliken charges =  -1.00000   1.00000

 Dipole moment (field-independent basis, Debye):
    X=             -2.4248    Y=              1.2936    Z=             -0.4234  Tot=              2.7807
 Quadrupole moment (field-independent basis, Debye-Ang):
   XX=           -110.4325   YY=            -86.3965   ZZ=            -74.6400
   XY=             -6.6893   XZ=             -3.8657   YZ=              0.6282

 Summary of Natural Population Analysis:

                                       Natural Population
                Natural  -----------------------------------------------
    Atom  No    Charge         Core      Valence    Rydberg      Total
 -----------------------------------------------------------------------
      C    1   -0.18480      0.99962     2.17507    0.01011     3.18480
      C    2   -0.19675      0.99961     2.18560    0.01153     3.19675
      C    3   -0.10273      0.99962     2.08789    0.01522     3.10273
      N    4   -0.12011      0.99973     2.60239    0.01799     3.62011
      N    5    0.03909      0.99970     2.44013    0.02109     3.46091
      N    6   -0.09829      0.99964     2.58366    0.01499     3.59829
      C    7    0.02733      0.99961     1.95573    0.01732     2.97267
      C    8   -0.14968      0.99949     2.14078    0.00941     3.14968
      C    9   -0.03752      0.99953     2.02711    0.01088     3.03752
      C   10   -0.20614      0.99961     2.19621    0.01032     3.20614
      H   11    0.09538      0.00000     0.40302    0.00159     0.40462
      H   12    0.09839      0.00000     0.39880    0.00281     0.40161
      H   13    0.09490      0.00000     0.40376    0.00134     0.40510
      H   14    0.10180      0.00000     0.39517    0.00303     0.39820
      H   15    0.09030      0.00000     0.40808    0.00162     0.40970
      H   16    0.08653      0.00000     0.41112    0.00235     0.41347
      H   17    0.07805      0.00000     0.42026    0.00169     0.42195
      H   18    0.09173      0.00000     0.40723    0.00105     0.40827
      H   19    0.10100      0.00000     0.39746    0.00154     0.39900
      H   20    0.09522      0.00000     0.40372    0.00106     0.40478
      H   21    0.09629      0.00000     0.40265    0.00106     0.40371
 =======================================================================
   * Total *    0.00000      9.99615    26.84584    0.15802    37.00000

 Normal termination of Gaussian 16 at Tue Dec  8 13:04:40 2020.
