 Gaussian 16, Revision A.03,

 -----------------------------------------------------------
 # opt freq B3LYP/6-31G(d) empiricaldispersion=gd3bj scf=xqc
 -----------------------------------------------------------

 ------------------------------
 CID_146805210_JID_635_neutraal
 ------------------------------
 Symbolic Z-matrix:
 Charge =  0 Multiplicity = 1

 SCF Done:  E(RB3LYP) =  -459.885475983     A.U. after   14 cycles
 SCF Done:  E(RB3LYP) =  -459.892818412     A.U. after   12 cycles
 SCF Done:  E(RB3LYP) =  -459.893637345     A.U. after   12 cycles
 SCF Done:  E(RB3LYP) =  -459.893958845     A.U. after   11 cycles
 SCF Done:  E(RB3LYP) =  -459.894114627     A.U. after   11 cycles
 SCF Done:  E(RB3LYP) =  -459.894165786     A.U. after   11 cycles
 SCF Done:  E(RB3LYP) =  -459.894236886     A.U. after   10 cycles
 SCF Done:  E(RB3LYP) =  -459.894271530     A.U. after   10 cycles
 SCF Done:  E(RB3LYP) =  -459.894285254     A.U. after    9 cycles
 SCF Done:  E(RB3LYP) =  -459.894301106     A.U. after   10 cycles
 SCF Done:  E(RB3LYP) =  -459.895245972     A.U. after   12 cycles
 SCF Done:  E(RB3LYP) =  -459.895492883     A.U. after   11 cycles
 SCF Done:  E(RB3LYP) =  -459.895520718     A.U. after   11 cycles
 SCF Done:  E(RB3LYP) =  -459.895522774     A.U. after    9 cycles
 SCF Done:  E(RB3LYP) =  -459.895523299     A.U. after    7 cycles
 SCF Done:  E(RB3LYP) =  -459.895523429     A.U. after    7 cycles
 Optimization completed.
    -- Stationary point found.
 Normal termination of Gaussian 16 at Tue Dec  8 12:41:58 2020.

 --------------------------------------------------------------------
 #N Geom=AllCheck Guess=TCheck SCRF=Check GenChk RB3LYP/6-31G(d) Freq
 --------------------------------------------------------------------

 Structure from the checkpoint file:  "JID_635.chk"
 ------------------------------
 CID_146805210_JID_635_neutraal
 ------------------------------
 Charge =  0 Multiplicity = 1

 SCF Done:  E(RB3LYP) =  -459.895523429     A.U. after    1 cycles

  Exact polarizability:  97.843 -10.203 104.867   6.845   0.740  77.420
 Approx polarizability: 130.374 -17.555 146.594  17.536   4.831 118.739

                      1                      2                      3
                      A                      A                      A
 Frequencies --     48.0634                65.8224                94.8255
 Red. masses --      2.9589                 2.6866                 2.3296
 Frc consts  --      0.0040                 0.0069                 0.0123
 IR Inten    --      0.0345                 0.0455                 0.1527

                      4                      5                      6
                      A                      A                      A
 Frequencies --    106.4587               151.9199               165.0418
 Red. masses --      2.8063                 1.3940                 1.2240
 Frc consts  --      0.0187                 0.0190                 0.0196
 IR Inten    --      6.8795                 0.3405                 0.2589

                      7                      8                      9
                      A                      A                      A
 Frequencies --    191.1515               198.9441               210.2802
 Red. masses --      3.2839                 1.7902                 2.5563
 Frc consts  --      0.0707                 0.0417                 0.0666
 IR Inten    --      1.7808                 0.9111                 0.3910

                     10                     11                     12
                      A                      A                      A
 Frequencies --    225.1895               280.7244               341.9730
 Red. masses --      1.1983                 2.1880                 3.2883
 Frc consts  --      0.0358                 0.1016                 0.2266
 IR Inten    --      1.1755                 5.2906                13.5595

                     13                     14                     15
                      A                      A                      A
 Frequencies --    427.0909               441.8738               491.6202
 Red. masses --      2.3513                 3.4907                 2.9741
 Frc consts  --      0.2527                 0.4016                 0.4235
 IR Inten    --      0.6097                 7.5401                 2.3257

                     16                     17                     18
                      A                      A                      A
 Frequencies --    551.0504               631.0803               704.3260
 Red. masses --      3.1187                 2.5206                 7.1343
 Frc consts  --      0.5580                 0.5914                 2.0852
 IR Inten    --      6.2941                21.7568                17.0492

                     19                     20                     21
                      A                      A                      A
 Frequencies --    719.5823               767.2012               806.9655
 Red. masses --      2.3915                 2.9632                 1.1577
 Frc consts  --      0.7296                 1.0276                 0.4442
 IR Inten    --     13.2495                 9.4960                 9.4693

                     22                     23                     24
                      A                      A                      A
 Frequencies --    838.5383               914.9474              1005.4066
 Red. masses --      1.4212                 2.4527                 2.0221
 Frc consts  --      0.5888                 1.2097                 1.2043
 IR Inten    --     48.9962                10.2137                 2.6274

                     25                     26                     27
                      A                      A                      A
 Frequencies --   1011.9303              1027.0365              1090.5954
 Red. masses --      1.5807                 1.9007                 2.8188
 Frc consts  --      0.9537                 1.1812                 1.9753
 IR Inten    --     38.1711                 9.9588                28.0832

                     28                     29                     30
                      A                      A                      A
 Frequencies --   1103.0512              1116.4841              1157.7455
 Red. masses --      1.8851                 1.7353                 1.3192
 Frc consts  --      1.3514                 1.2745                 1.0418
 IR Inten    --     29.3501                41.2831                26.6520

                     31                     32                     33
                      A                      A                      A
 Frequencies --   1185.8977              1192.1597              1224.9216
 Red. masses --      1.3575                 1.5489                 1.8456
 Frc consts  --      1.1248                 1.2970                 1.6315
 IR Inten    --     14.2488                16.1297                32.7802

                     34                     35                     36
                      A                      A                      A
 Frequencies --   1247.8003              1285.6131              1347.6880
 Red. masses --      3.8488                 2.4903                 1.6290
 Frc consts  --      3.5307                 2.4251                 1.7433
 IR Inten    --    114.4961                19.4966               155.6132

                     37                     38                     39
                      A                      A                      A
 Frequencies --   1358.4063              1414.2454              1416.8763
 Red. masses --      1.4989                 1.2485                 1.7456
 Frc consts  --      1.6296                 1.4713                 2.0647
 IR Inten    --     68.4123                 5.7372                90.8734

                     40                     41                     42
                      A                      A                      A
 Frequencies --   1438.0494              1466.2700              1482.0188
 Red. masses --      1.2621                 1.2732                 1.1713
 Frc consts  --      1.5378                 1.6128                 1.5157
 IR Inten    --     15.0571                15.2970                20.0743

                     43                     44                     45
                      A                      A                      A
 Frequencies --   1502.5282              1505.6182              1515.3691
 Red. masses --      1.2148                 1.0743                 1.0550
 Frc consts  --      1.6159                 1.4349                 1.4274
 IR Inten    --     28.3503                 7.4161                21.6875

                     46                     47                     48
                      A                      A                      A
 Frequencies --   1524.3189              1528.0563              1531.3625
 Red. masses --      1.0479                 1.0494                 1.0504
 Frc consts  --      1.4345                 1.4437                 1.4513
 IR Inten    --      1.0168                19.0861                 3.8815

                     49                     50                     51
                      A                      A                      A
 Frequencies --   1539.0807              1550.5206              1679.8902
 Red. masses --      1.0694                 1.1275                 3.8971
 Frc consts  --      1.4925                 1.5971                 6.4797
 IR Inten    --      1.4517                61.9596                53.4036

                     52                     53                     54
                      A                      A                      A
 Frequencies --   1726.2259              3029.2202              3052.9179
 Red. masses --      9.4591                 1.0502                 1.0354
 Frc consts  --     16.6072                 5.6777                 5.6859
 IR Inten    --    695.0105                57.0510                25.6874

                     55                     56                     57
                      A                      A                      A
 Frequencies --   3071.5234              3079.6961              3109.3572
 Red. masses --      1.0285                 1.0682                 1.0895
 Frc consts  --      5.7167                 5.9694                 6.2064
 IR Inten    --     45.0922                28.8866                34.6049

                     58                     59                     60
                      A                      A                      A
 Frequencies --   3115.6175              3129.0758              3139.1178
 Red. masses --      1.1020                 1.0994                 1.0860
 Frc consts  --      6.3025                 6.3419                 6.3054
 IR Inten    --     21.9527                33.7938                38.4300

                     61                     62                     63
                      A                      A                      A
 Frequencies --   3146.8838              3147.1834              3167.7987
 Red. masses --      1.1025                 1.1058                 1.1076
 Frc consts  --      6.4327                 6.4530                 6.5488
 IR Inten    --      7.7155                24.8532                26.7797

                     64                     65                     66
                      A                      A                      A
 Frequencies --   3170.5227              3176.8968              3255.1339
 Red. masses --      1.0612                 1.0994                 1.1169
 Frc consts  --      6.2851                 6.5374                 6.9729
 IR Inten    --      2.5518                12.8290                19.8008

 - Thermochemistry -
 -------------------
 Temperature   298.150 Kelvin.  Pressure   1.00000 Atm.
 Atom     1 has atomic number  6 and mass  12.00000

 Molecular mass:   142.11061 amu.
 Principal axes and moments of inertia in atomic units:
                           1         2         3
     Eigenvalues --  1317.262881434.694602184.16015
           X            0.99760   0.06918  -0.00415
           Y           -0.06919   0.99760  -0.00211
           Z            0.00399   0.00240   0.99999
 This molecule is an asymmetric top.
 Rotational symmetry number  1.
 Warning -- assumption of classical behavior for rotation
           may cause significant error
 Rotational temperatures (Kelvin)      0.06575     0.06037     0.03966
 Rotational constants (GHZ):           1.37007     1.25793     0.82629
 Zero-point vibrational energy     552320.5 (Joules/Mol)
                                  132.00778 (Kcal/Mol)
 Warning -- explicit consideration of  16 degrees of freedom as
           vibrations may cause significant error
 Vibrational temperatures:     69.15    94.70   136.43   153.17   218.58
          (Kelvin)            237.46   275.02   286.24   302.55   324.00
                              403.90   492.02   614.49   635.76   707.33
                              792.84   907.98  1013.37  1035.32  1103.83
                             1161.04  1206.47  1316.41  1446.56  1455.94
                             1477.68  1569.12  1587.04  1606.37  1665.74
                             1706.24  1715.25  1762.39  1795.31  1849.71
                             1939.02  1954.44  2034.78  2038.57  2069.03
                             2109.64  2132.29  2161.80  2166.25  2180.28
                             2193.15  2198.53  2203.29  2214.39  2230.85
                             2416.99  2483.65  4358.37  4392.47  4419.24
                             4431.00  4473.67  4482.68  4502.04  4516.49
                             4527.66  4528.09  4557.76  4561.67  4570.85
                             4683.41

 Zero-point correction=                           0.210368 (Hartree/Particle)
 Thermal correction to Energy=                    0.222566
 Thermal correction to Enthalpy=                  0.223510
 Thermal correction to Gibbs Free Energy=         0.172026
 Sum of electronic and zero-point Energies=           -459.685156
 Sum of electronic and thermal Energies=              -459.672958
 Sum of electronic and thermal Enthalpies=            -459.672013
 Sum of electronic and thermal Free Energies=         -459.723498

                     E (Thermal)             CV                S
                      KCal/Mol        Cal/Mol-Kelvin    Cal/Mol-Kelvin
 Total                  139.662             42.831            108.358
 Electronic               0.000              0.000              0.000
 Translational            0.889              2.981             40.766
 Rotational               0.889              2.981             29.802
 Vibrational            137.885             36.870             37.790
 Vibration     1          0.595              1.978              4.896
 Vibration     2          0.597              1.971              4.275
 Vibration     3          0.603              1.953              3.558
 Vibration     4          0.605              1.944              3.332
 Vibration     5          0.619              1.901              2.648
 Vibration     6          0.623              1.885              2.491
 Vibration     7          0.634              1.852              2.217
 Vibration     8          0.637              1.841              2.143
 Vibration     9          0.642              1.825              2.041
 Vibration    10          0.650              1.803              1.917
 Vibration    11          0.680              1.709              1.529
 Vibration    12          0.721              1.592              1.203
 Vibration    13          0.789              1.411              0.868
 Vibration    14          0.802              1.379              0.821
 Vibration    15          0.847              1.269              0.679
 Vibration    16          0.906              1.137              0.542

                           ! Non-Optimized Parameters !
 Normal termination of Gaussian 16 at Tue Dec  8 13:04:02 2020.

 ----------------------------------------------------------------------
 # B3LYP/6-311++G(d,p) empiricaldispersion=gd3bj scf=xqc pop=npa geom=c
 heck
 ----------------------------------------------------------------------

 --------------------------------------
 CID_146805210_JID_635_Energie_neutraal
 --------------------------------------
 Structure from the checkpoint file:  "JID_635.chk"
 Charge =  0 Multiplicity = 1

 SCF Done:  E(RB3LYP) =  -460.028816061     A.U. after   13 cycles
 Normal termination of Gaussian 16 at Tue Dec  8 13:08:22 2020.

 ----------------------------------------------------------------------
 # B3LYP/6-311++G(d,p) empiricaldispersion=gd3bj scf=xqc pop=npa geom=c
 heck
 ----------------------------------------------------------------------

 ------------------------------------
 CID_146805210_JID_635_Energie_kation
 ------------------------------------
 Structure from the checkpoint file:  "JID_635.chk"
 Charge =  1 Multiplicity = 2

 SCF Done:  E(UB3LYP) =  -459.749599185     A.U. after   19 cycles
 Normal termination of Gaussian 16 at Tue Dec  8 13:17:14 2020.
 Gaussian 16:  ES64L-G16RevA.03 25-Dec-2016

 ----------------------------------------------------------------------
 # B3LYP/6-311++G(d,p) empiricaldispersion=gd3bj scf=xqc pop=npa geom=c
 heck
 ----------------------------------------------------------------------

 -----------------------------------
 CID_146805210_JID_635_Energie_anion
 -----------------------------------
 Structure from the checkpoint file:  "JID_635.chk"
 Charge = -1 Multiplicity = 2

                         Standard orientation:
 ---------------------------------------------------------------------
 Center     Atomic      Atomic             Coordinates (Angstroms)
 Number     Number       Type             X           Y           Z
 ---------------------------------------------------------------------
      1          6           0       -1.956335   -1.057823    1.387535
      2          6           0       -1.776500   -0.664248   -0.080528
      3          7           0       -0.394638   -0.813478   -0.554237
      4          6           0       -0.024934   -2.152627   -1.008402
      5          6           0        0.579747    0.004101   -0.020937
      6          7           0        0.500438    1.196850    0.447345
      7          6           0       -0.476384    2.149681    0.217257
      8          6           0       -1.063509    2.468963   -0.949123
      9          8           0        1.775696   -0.640628    0.026026
     10          6           0        2.900872    0.144235    0.427232
     11          1           0       -1.663527   -2.099031    1.563572
     12          1           0       -3.004359   -0.944310    1.686668
     13          1           0       -1.347338   -0.416113    2.032273
     14          1           0       -2.395812   -1.296529   -0.724467
     15          1           0       -2.097344    0.366461   -0.237995
     16          1           0        0.899175   -2.110551   -1.583657
     17          1           0        0.118945   -2.860844   -0.180281
     18          1           0       -0.826231   -2.525342   -1.652831
     19          1           0       -0.689410    2.759024    1.096703
     20          1           0       -1.741615    3.313619   -1.009204
     21          1           0       -0.858588    1.919367   -1.863565
     22          1           0        3.014346    1.020747   -0.216337
     23          1           0        2.786854    0.482077    1.460324
     24          1           0        3.760997   -0.520853    0.330635
 ---------------------------------------------------------------------

 SCF Done:  E(UB3LYP) =  -460.011229928     A.U. after   30 cycles

 The electronic state is 2-A.
 Alpha  occ. eigenvalues --  -19.05588 -14.23481 -14.18281 -10.19328 -10.11412
 Alpha  occ. eigenvalues --  -10.09998 -10.09400 -10.08681 -10.05406 -10.04809
 Alpha  occ. eigenvalues --   -0.98608  -0.84941  -0.79669  -0.66314  -0.64535
 Alpha  occ. eigenvalues --   -0.61314  -0.58365  -0.53058  -0.51276  -0.44093
 Alpha  occ. eigenvalues --   -0.42169  -0.39717  -0.37926  -0.35615  -0.34790
 Alpha  occ. eigenvalues --   -0.34666  -0.32458  -0.32359  -0.29801  -0.28561
 Alpha  occ. eigenvalues --   -0.27597  -0.26826  -0.26413  -0.24763  -0.24216
 Alpha  occ. eigenvalues --   -0.21729  -0.17633  -0.13706  -0.10914   0.04813
 Alpha virt. eigenvalues --    0.07027   0.07599   0.08275   0.08911   0.09380
 Alpha virt. eigenvalues --    0.09931   0.10585   0.10672   0.11567   0.12359
 Alpha virt. eigenvalues --    0.12785   0.13383   0.13995   0.14723   0.15270

  Beta  occ. eigenvalues --  -19.05582 -14.23480 -14.18279 -10.19326 -10.11378
  Beta  occ. eigenvalues --  -10.09992 -10.09382 -10.08634 -10.05366 -10.04794
  Beta  occ. eigenvalues --   -0.98597  -0.84929  -0.79659  -0.66280  -0.64503
  Beta  occ. eigenvalues --   -0.61266  -0.58296  -0.52988  -0.51243  -0.44054
  Beta  occ. eigenvalues --   -0.42127  -0.39685  -0.37899  -0.35577  -0.34760
  Beta  occ. eigenvalues --   -0.34636  -0.32416  -0.32307  -0.29756  -0.28503
  Beta  occ. eigenvalues --   -0.27576  -0.26791  -0.26375  -0.24728  -0.24179
  Beta  occ. eigenvalues --   -0.21707  -0.17620  -0.13688  -0.10888
  Beta virt. eigenvalues --    0.07123   0.08019   0.08374   0.08669   0.09056
  Beta virt. eigenvalues --    0.10033   0.10559   0.11106   0.11336   0.11880
  Beta virt. eigenvalues --    0.12892   0.13292   0.13806   0.14314   0.15031

 Mulliken charges and spin densities:
               1          2
     1  C    1.603048  -2.112229
     2  C   -1.265356   1.175375
     3  N   -0.175484   0.163671
     4  C    1.712532  -2.045349
     5  C   -0.143649  -0.114876
     6  N   -0.225016   0.149733
     7  C    0.089496  -0.262613
     8  C   -0.217604  -0.124522
     9  O   -0.191617   0.069570
    10  C    0.831849  -1.093695
    11  H   -0.134536   0.278487
    12  H   -0.460067   0.611435
    13  H   -0.231937   0.393606
    14  H   -0.503956   0.676592
    15  H    0.027496   0.113855
    16  H   -0.186988   0.369347
    17  H   -0.475275   0.655775
    18  H   -0.346925   0.487231
    19  H   -0.012194   0.165481
    20  H   -0.050006   0.159233
    21  H    0.054663   0.082961
    22  H   -0.064154   0.241832
    23  H   -0.131947   0.307552
    24  H   -0.502372   0.651549
 Sum of Mulliken charges =  -1.00000   1.00000

 Dipole moment (field-independent basis, Debye):
    X=              0.2777    Y=              4.6459    Z=             -0.4041  Tot=              4.6717
 Quadrupole moment (field-independent basis, Debye-Ang):
   XX=           -117.1172   YY=           -113.2207   ZZ=            -95.4002
   XY=             -3.5736   XZ=              2.3713   YZ=             -1.6638

 Summary of Natural Population Analysis:

                                       Natural Population
                Natural  -----------------------------------------------
    Atom  No    Charge         Core      Valence    Rydberg      Total
 -----------------------------------------------------------------------
      C    1   -0.29354      0.99966     2.28905    0.00483     3.29354
      C    2   -0.08892      0.99961     2.07788    0.01143     3.08892
      N    3   -0.25948      0.99966     2.74789    0.01194     3.75948
      C    4   -0.17475      0.99963     2.16611    0.00901     3.17475
      C    5    0.39727      0.99949     1.58478    0.01846     2.60273
      N    6   -0.31848      0.99960     2.80717    0.01171     3.81848
      C    7    0.01200      0.99953     1.97487    0.01360     2.98800
      C    8   -0.24608      0.99958     2.23930    0.00720     3.24608
      O    9   -0.27708      0.99986     3.26743    0.00978     4.27708
      C   10   -0.09936      0.99959     2.09047    0.00930     3.09936
      H   11    0.10040      0.00000     0.39811    0.00149     0.39960
      H   12    0.10123      0.00000     0.39726    0.00151     0.39877
      H   13    0.10060      0.00000     0.39814    0.00127     0.39940
      H   14    0.09652      0.00000     0.40174    0.00174     0.40348
      H   15    0.10660      0.00000     0.39102    0.00238     0.39340
      H   16    0.10628      0.00000     0.39191    0.00182     0.39372
      H   17    0.09392      0.00000     0.40382    0.00227     0.40608
      H   18    0.09670      0.00000     0.40141    0.00190     0.40330
      H   19    0.08677      0.00000     0.41206    0.00116     0.41323
      H   20    0.09341      0.00000     0.40554    0.00106     0.40659
      H   21    0.09356      0.00000     0.40520    0.00124     0.40644
      H   22    0.08972      0.00000     0.40891    0.00136     0.41028
      H   23    0.09124      0.00000     0.40706    0.00170     0.40876
      H   24    0.09149      0.00000     0.40687    0.00164     0.40851
 =======================================================================
   * Total *    0.00000      9.99621    28.87400    0.12979    39.00000

 Normal termination of Gaussian 16 at Tue Dec  8 13:25:46 2020.
