 Gaussian 16, Revision A.03,

 -----------------------------------------------------------
 # opt freq B3LYP/6-31G(d) empiricaldispersion=gd3bj scf=xqc
 -----------------------------------------------------------

 -------------------------------
 CID_107345737_JID_8166_neutraal
 -------------------------------
 Symbolic Z-matrix:
 Charge =  0 Multiplicity = 1

 SCF Done:  E(RB3LYP) =  -893.311444013     A.U. after   16 cycles
 SCF Done:  E(RB3LYP) =  -893.314325208     A.U. after   15 cycles
 SCF Done:  E(RB3LYP) =  -893.308449221     A.U. after   15 cycles
 SCF Done:  E(RB3LYP) =  -893.315984676     A.U. after   14 cycles
 SCF Done:  E(RB3LYP) =  -893.316443403     A.U. after   14 cycles
 SCF Done:  E(RB3LYP) =  -893.316805572     A.U. after   14 cycles
 SCF Done:  E(RB3LYP) =  -893.316837745     A.U. after   14 cycles
 SCF Done:  E(RB3LYP) =  -893.316994862     A.U. after   12 cycles
 SCF Done:  E(RB3LYP) =  -893.317048534     A.U. after   12 cycles
 SCF Done:  E(RB3LYP) =  -893.317076645     A.U. after   12 cycles
 SCF Done:  E(RB3LYP) =  -893.317100771     A.U. after    8 cycles
 SCF Done:  E(RB3LYP) =  -893.317101304     A.U. after    8 cycles
 SCF Done:  E(RB3LYP) =  -893.317101672     A.U. after    8 cycles
 SCF Done:  E(RB3LYP) =  -893.317102112     A.U. after    8 cycles
 SCF Done:  E(RB3LYP) =  -893.317102313     A.U. after    7 cycles
 Optimization completed.
    -- Stationary point found.
 Normal termination of Gaussian 16 at Fri Dec 11 19:18:41 2020.

 --------------------------------------------------------------------
 #N Geom=AllCheck Guess=TCheck SCRF=Check GenChk RB3LYP/6-31G(d) Freq
 --------------------------------------------------------------------

 Structure from the checkpoint file:  "JID_8166.chk"
 -------------------------------
 CID_107345737_JID_8166_neutraal
 -------------------------------
 Charge =  0 Multiplicity = 1

 SCF Done:  E(RB3LYP) =  -893.317102313     A.U. after    1 cycles

  Exact polarizability: 181.125   7.531 142.165  17.386  -3.677 111.005
 Approx polarizability: 244.771  19.791 240.233  39.222 -19.082 177.196

                      1                      2                      3
                      A                      A                      A
 Frequencies --     19.6328                33.9182                38.3157
 Red. masses --      4.4787                 7.2427                 5.6637
 Frc consts  --      0.0010                 0.0049                 0.0049
 IR Inten    --      0.1288                 1.0816                 0.3045

                      4                      5                      6
                      A                      A                      A
 Frequencies --     45.1058                65.7517               124.6045
 Red. masses --      4.2255                13.7519                 3.2084
 Frc consts  --      0.0051                 0.0350                 0.0294
 IR Inten    --      0.3008                 0.4778                 0.3608

                      7                      8                      9
                      A                      A                      A
 Frequencies --    152.0502               155.4738               179.4499
 Red. masses --      9.6697                 6.6110                 6.0100
 Frc consts  --      0.1317                 0.0942                 0.1140
 IR Inten    --      0.1055                 0.4529                 7.6263

                     10                     11                     12
                      A                      A                      A
 Frequencies --    201.8101               231.2078               249.9641
 Red. masses --      4.1089                 2.0503                 3.1230
 Frc consts  --      0.0986                 0.0646                 0.1150
 IR Inten    --      3.0790                 0.8233                 1.1104

                     13                     14                     15
                      A                      A                      A
 Frequencies --    296.3053               324.4751               356.1223
 Red. masses --      7.4055                 2.0520                 3.9324
 Frc consts  --      0.3831                 0.1273                 0.2938
 IR Inten    --      2.7888                 0.6407                 4.5524

                     16                     17                     18
                      A                      A                      A
 Frequencies --    385.4526               419.0741               429.5066
 Red. masses --      6.6222                 3.4379                 2.6328
 Frc consts  --      0.5797                 0.3557                 0.2862
 IR Inten    --      1.2406                 1.4448                 0.2647

                     19                     20                     21
                      A                      A                      A
 Frequencies --    447.6803               452.2148               501.4036
 Red. masses --      2.9709                 2.6838                 4.9340
 Frc consts  --      0.3508                 0.3234                 0.7308
 IR Inten    --      0.3555                 2.5240                 4.8015

                     22                     23                     24
                      A                      A                      A
 Frequencies --    556.2123               585.0259               633.8176
 Red. masses --      1.8224                 2.3195                 2.2899
 Frc consts  --      0.3322                 0.4677                 0.5420
 IR Inten    --      0.8303                38.1782                51.0964

                     25                     26                     27
                      A                      A                      A
 Frequencies --    652.3620               697.0725               711.6192
 Red. masses --      5.0816                 3.4940                 4.7641
 Frc consts  --      1.2742                 1.0003                 1.4214
 IR Inten    --      4.7169                42.5588                43.7503

                     28                     29                     30
                      A                      A                      A
 Frequencies --    761.2565               775.0534               792.0436
 Red. masses --      5.5810                 5.4076                 2.4056
 Frc consts  --      1.9056                 1.9139                 0.8892
 IR Inten    --     36.6323                13.4869                 1.0296

                     31                     32                     33
                      A                      A                      A
 Frequencies --    794.3552               805.4725               847.4726
 Red. masses --      5.8725                 1.5535                 1.7067
 Frc consts  --      2.1833                 0.5938                 0.7222
 IR Inten    --     13.3582                 0.3379                 9.8151

                     34                     35                     36
                      A                      A                      A
 Frequencies --    853.6880               859.9028               864.2569
 Red. masses --      4.7222                 2.8319                 1.6471
 Frc consts  --      2.0277                 1.2338                 0.7249
 IR Inten    --     53.1748                 5.7331                 6.6089

                     37                     38                     39
                      A                      A                      A
 Frequencies --    915.5385               940.5967               968.2173
 Red. masses --      1.6660                 1.6133                 1.7316
 Frc consts  --      0.8228                 0.8410                 0.9564
 IR Inten    --      1.6403                 2.5499                 0.7924

                     40                     41                     42
                      A                      A                      A
 Frequencies --    980.8458              1040.3299              1051.6881
 Red. masses --      2.2095                 5.8484                 1.8409
 Frc consts  --      1.2524                 3.7293                 1.1997
 IR Inten    --      4.5307                 9.5927                 0.5493

                     43                     44                     45
                      A                      A                      A
 Frequencies --   1077.9450              1102.2185              1105.8270
 Red. masses --      1.3978                 2.3375                 1.4235
 Frc consts  --      0.9569                 1.6731                 1.0256
 IR Inten    --      0.0279                 3.0888                 0.4159

                     46                     47                     48
                      A                      A                      A
 Frequencies --   1118.1897              1121.7990              1149.0126
 Red. masses --      8.0038                 2.2733                 1.4898
 Frc consts  --      5.8963                 1.6856                 1.1588
 IR Inten    --    178.9172                 3.3072                23.0921

                     49                     50                     51
                      A                      A                      A
 Frequencies --   1164.9558              1210.1193              1217.7725
 Red. masses --      2.1932                 1.7868                 2.3994
 Frc consts  --      1.7537                 1.5416                 2.0965
 IR Inten    --     22.8178                 4.7219               183.1990

                     52                     53                     54
                      A                      A                      A
 Frequencies --   1228.5780              1292.9522              1305.0486
 Red. masses --      1.6017                 1.3389                 1.2797
 Frc consts  --      1.4244                 1.3187                 1.2842
 IR Inten    --      3.4003                 1.0311                 1.8509

                     55                     56                     57
                      A                      A                      A
 Frequencies --   1314.0054              1337.9315              1346.9143
 Red. masses --      1.3242                 1.2377                 1.9679
 Frc consts  --      1.3471                 1.3053                 2.1035
 IR Inten    --      5.6798                12.4511                23.4635

                     58                     59                     60
                      A                      A                      A
 Frequencies --   1361.7616              1372.1319              1388.4381
 Red. masses --      1.6515                 1.6869                 1.4115
 Frc consts  --      1.8044                 1.8712                 1.6032
 IR Inten    --     25.8574                25.1684                 0.8638

                     61                     62                     63
                      A                      A                      A
 Frequencies --   1398.3315              1403.1601              1405.6189
 Red. masses --      1.4420                 1.4882                 1.5793
 Frc consts  --      1.6612                 1.7263                 1.8384
 IR Inten    --      9.7654                 2.1910                46.4393

                     64                     65                     66
                      A                      A                      A
 Frequencies --   1409.4060              1410.1484              1426.3698
 Red. masses --      2.1158                 2.5775                 1.5436
 Frc consts  --      2.4762                 3.0197                 1.8503
 IR Inten    --    121.8804                94.9531                 0.7509

                     67                     68                     69
                      A                      A                      A
 Frequencies --   1428.6906              1491.9766              1507.9329
 Red. masses --      8.1013                 2.5252                 1.1837
 Frc consts  --      9.7427                 3.3118                 1.5859
 IR Inten    --     21.6456                 6.1798                 4.7644

                     70                     71                     72
                      A                      A                      A
 Frequencies --   1512.1620              1516.3777              1517.5749
 Red. masses --      1.2907                 1.1286                 1.1056
 Frc consts  --      1.7389                 1.5290                 1.5002
 IR Inten    --      2.0451                 7.9089                 2.4331

                     73                     74                     75
                      A                      A                      A
 Frequencies --   1522.3224              1535.7841              1537.1307
 Red. masses --      1.0883                 1.2603                 3.8645
 Frc consts  --      1.4860                 1.7513                 5.3798
 IR Inten    --     12.4980                18.5948                86.8909

                     76                     77                     78
                      A                      A                      A
 Frequencies --   1565.9748              1639.6786              1848.8416
 Red. masses --      5.9135                13.9366                10.4694
 Frc consts  --      8.5440                22.0762                21.0848
 IR Inten    --     61.4143               189.2622               267.8684

                     79                     80                     81
                      A                      A                      A
 Frequencies --   3003.9327              3020.1920              3025.3966
 Red. masses --      1.0814                 1.0646                 1.0716
 Frc consts  --      5.7493                 5.7216                 5.7790
 IR Inten    --      6.4526                26.8056                12.3370

                     82                     83                     84
                      A                      A                      A
 Frequencies --   3027.5314              3031.5918              3036.6633
 Red. masses --      1.0663                 1.0646                 1.0633
 Frc consts  --      5.7586                 5.7645                 5.7772
 IR Inten    --     11.2246                 7.6699                53.1560

                     85                     86                     87
                      A                      A                      A
 Frequencies --   3065.3336              3079.2011              3080.2571
 Red. masses --      1.0987                 1.0657                 1.0920
 Frc consts  --      6.0825                 5.9535                 6.1043
 IR Inten    --     45.3229                29.9896                69.2626

                     88                     89                     90
                      A                      A                      A
 Frequencies --   3081.8376              3085.9872              3095.3749
 Red. masses --      1.0976                 1.1013                 1.0968
 Frc consts  --      6.1421                 6.1793                 6.1915
 IR Inten    --     36.9869                56.7061                40.7168

                     91                     92                     93
                      A                      A                      A
 Frequencies --   3145.4536              3308.6386              3684.9943
 Red. masses --      1.1026                 1.0995                 1.0638
 Frc consts  --      6.4274                 7.0918                 8.5114
 IR Inten    --      6.6199                 5.9354                72.4803

 - Thermochemistry -
 -------------------
 Temperature   298.150 Kelvin.  Pressure   1.00000 Atm.
 Atom     1 has atomic number  6 and mass  12.00000

 Molecular mass:   253.10626 amu.
 Principal axes and moments of inertia in atomic units:
                           1         2         3
     Eigenvalues --  2418.899038688.372029662.23539
           X            0.99997   0.00487  -0.00603
           Y           -0.00471   0.99962   0.02713
           Z            0.00616  -0.02710   0.99961
 This molecule is an asymmetric top.
 Rotational symmetry number  1.
 Warning -- assumption of classical behavior for rotation
           may cause significant error
 Rotational temperatures (Kelvin)      0.03581     0.00997     0.00896
 Rotational constants (GHZ):           0.74610     0.20772     0.18678
 Zero-point vibrational energy     707362.7 (Joules/Mol)
                                  169.06375 (Kcal/Mol)
 Warning -- explicit consideration of  23 degrees of freedom as
           vibrations may cause significant error
 Vibrational temperatures:     28.25    48.80    55.13    64.90    94.60
          (Kelvin)            179.28   218.77   223.69   258.19   290.36
                              332.66   359.64   426.32   466.85   512.38
                              554.58   602.95   617.96   644.11   650.64
                              721.41   800.27   841.72   911.92   938.60
                             1002.93  1023.86  1095.28  1115.13  1139.57
                             1142.90  1158.90  1219.32  1228.27  1237.21
                             1243.47  1317.26  1353.31  1393.05  1411.22
                             1496.80  1513.14  1550.92  1585.85  1591.04
                             1608.83  1614.02  1653.17  1676.11  1741.09
                             1752.10  1767.65  1860.27  1877.67  1890.56
                             1924.98  1937.91  1959.27  1974.19  1997.65
                             2011.89  2018.83  2022.37  2027.82  2028.89
                             2052.23  2055.57  2146.62  2169.58  2175.66
                             2181.73  2183.45  2190.28  2209.65  2211.59
                             2253.09  2359.13  2660.07  4321.99  4345.38
                             4352.87  4355.94  4361.78  4369.08  4410.33
                             4430.28  4431.80  4434.08  4440.05  4453.55
                             4525.61  4760.39  5301.88

 Zero-point correction=                           0.269420 (Hartree/Particle)
 Thermal correction to Energy=                    0.285600
 Thermal correction to Enthalpy=                  0.286544
 Thermal correction to Gibbs Free Energy=         0.222900
 Sum of electronic and zero-point Energies=           -893.047682
 Sum of electronic and thermal Energies=              -893.031503
 Sum of electronic and thermal Enthalpies=            -893.030558
 Sum of electronic and thermal Free Energies=         -893.094203

                     E (Thermal)             CV                S
                      KCal/Mol        Cal/Mol-Kelvin    Cal/Mol-Kelvin
 Total                  179.217             60.635            133.951
 Electronic               0.000              0.000              0.000
 Translational            0.889              2.981             42.486
 Rotational               0.889              2.981             33.673
 Vibrational            177.439             54.673             57.792
 Vibration     1          0.593              1.986              6.671
 Vibration     2          0.594              1.983              5.586
 Vibration     3          0.594              1.982              5.344
 Vibration     4          0.595              1.979              5.021
 Vibration     5          0.597              1.971              4.277
 Vibration     6          0.610              1.928              3.028
 Vibration     7          0.619              1.900              2.646
 Vibration     8          0.620              1.897              2.604
 Vibration     9          0.629              1.868              2.334
 Vibration    10          0.639              1.837              2.117
 Vibration    11          0.653              1.793              1.870
 Vibration    12          0.663              1.763              1.731
 Vibration    13          0.690              1.681              1.438
 Vibration    14          0.709              1.627              1.287
 Vibration    15          0.732              1.563              1.139
 Vibration    16          0.754              1.501              1.018
 Vibration    17          0.782              1.429              0.895
 Vibration    18          0.791              1.406              0.860
 Vibration    19          0.807              1.366              0.803
 Vibration    20          0.811              1.356              0.789
 Vibration    21          0.857              1.247              0.655
 Vibration    22          0.912              1.126              0.531
 Vibration    23          0.942              1.064              0.476

 Optimization completed.
    -- Stationary point found.
 Normal termination of Gaussian 16 at Fri Dec 11 19:30:18 2020.

 ----------------------------------------------------------------------
 # B3LYP/6-311++G(d,p) empiricaldispersion=gd3bj scf=xqc pop=npa geom=c
 heck
 ----------------------------------------------------------------------

 ---------------------------------------
 CID_107345737_JID_8166_Energie_neutraal
 ---------------------------------------
 Structure from the checkpoint file:  "JID_8166.chk"
 Charge =  0 Multiplicity = 1

 SCF Done:  E(RB3LYP) =  -893.575654218     A.U. after   16 cycles
 Normal termination of Gaussian 16 at Fri Dec 11 19:36:24 2020.

 ----------------------------------------------------------------------
 # B3LYP/6-311++G(d,p) empiricaldispersion=gd3bj scf=xqc pop=npa geom=c
 heck
 ----------------------------------------------------------------------

 -------------------------------------
 CID_107345737_JID_8166_Energie_kation
 -------------------------------------
 Structure from the checkpoint file:  "JID_8166.chk"
 Charge =  1 Multiplicity = 2

 SCF Done:  E(UB3LYP) =  -893.225135877     A.U. after   33 cycles
 SCF Done:  E(UB3LYP) =  -893.225135878     a.u. after    1 cycles
 Normal termination of Gaussian 16 at Fri Dec 11 19:54:10 2020.
 Gaussian 16:  ES64L-G16RevA.03 25-Dec-2016

 ----------------------------------------------------------------------
 # B3LYP/6-311++G(d,p) empiricaldispersion=gd3bj scf=xqc pop=npa geom=c
 heck
 ----------------------------------------------------------------------

 ------------------------------------
 CID_107345737_JID_8166_Energie_anion
 ------------------------------------
 Structure from the checkpoint file:  "JID_8166.chk"
 Charge = -1 Multiplicity = 2

                         Standard orientation:
 ---------------------------------------------------------------------
 Center     Atomic      Atomic             Coordinates (Angstroms)
 Number     Number       Type             X           Y           Z
 ---------------------------------------------------------------------
      1          6           0       -4.744840    0.597022    1.062916
      2          6           0       -4.858152   -0.559525    0.061586
      3          6           0       -3.774774   -0.468981   -1.021418
      4          6           0       -2.366397   -0.405420   -0.407771
      5          6           0       -2.257292    0.754098    0.594298
      6          6           0       -3.340605    0.661885    1.676764
      7          6           0       -1.319286   -0.308503   -1.524497
      8          7           0        0.050097   -0.299186   -1.016599
      9          6           0        0.750045   -1.345817   -0.531050
     10          6           0        1.942567   -0.820654   -0.066482
     11          6           0        1.873118    0.574918   -0.312281
     12          7           0        0.707708    0.876026   -0.886976
     13          6           0        2.808826    1.654899    0.098460
     14          8           0        3.435188    1.656159    1.131974
     15          8           0        2.845006    2.657065   -0.805933
     16          7           0        3.024113   -1.618992    0.438412
     17          8           0        4.139812   -1.109794    0.493919
     18          8           0        2.748951   -2.780553    0.758582
     19          1           0       -5.500896    0.491965    1.850162
     20          1           0       -4.957377    1.544073    0.546018
     21          1           0       -4.752832   -1.514203    0.596665
     22          1           0       -5.850754   -0.568871   -0.404171
     23          1           0       -3.939996    0.436245   -1.624588
     24          1           0       -3.849649   -1.322678   -1.707942
     25          1           0       -2.189970   -1.346814    0.136146
     26          1           0       -2.360315    1.703583    0.049123
     27          1           0       -1.262381    0.768266    1.052329
     28          1           0       -3.259431    1.517152    2.357735
     29          1           0       -3.168563   -0.238852    2.283630
     30          1           0       -1.414157   -1.149369   -2.219522
     31          1           0       -1.432793    0.619948   -2.088598
     32          1           0        0.395742   -2.364307   -0.555704
     33          1           0        3.439027    3.332375   -0.426621
 ---------------------------------------------------------------------

 SCF Done:  E(UB3LYP) =  -893.606034899     A.U. after   31 cycles

 The electronic state is 2-A.
 Alpha  occ. eigenvalues --  -19.04922 -18.97971 -18.93634 -18.93580 -14.31666
 Alpha  occ. eigenvalues --  -14.27978 -14.21506 -10.17387 -10.12212 -10.09665
 Alpha  occ. eigenvalues --  -10.09549 -10.09460 -10.09438 -10.08885 -10.07941
 Alpha  occ. eigenvalues --  -10.07847 -10.07726 -10.06774  -1.01890  -0.98665
 Alpha  occ. eigenvalues --   -0.94072  -0.89281  -0.84683  -0.76979  -0.73910
 Alpha  occ. eigenvalues --   -0.68590  -0.67441  -0.66744  -0.60889  -0.56986
 Alpha  occ. eigenvalues --   -0.54050  -0.53404  -0.50157  -0.48043  -0.45623
 Alpha  occ. eigenvalues --   -0.44376  -0.40874  -0.40323  -0.38080  -0.37579
 Alpha  occ. eigenvalues --   -0.36588  -0.35991  -0.35793  -0.34915  -0.34749
 Alpha  occ. eigenvalues --   -0.33459  -0.32382  -0.31694  -0.31281  -0.30666
 Alpha  occ. eigenvalues --   -0.29397  -0.28541  -0.28290  -0.27141  -0.27039
 Alpha  occ. eigenvalues --   -0.26333  -0.24483  -0.23234  -0.22690  -0.20480
 Alpha  occ. eigenvalues --   -0.18761  -0.16132  -0.14393  -0.13345  -0.12639
 Alpha  occ. eigenvalues --   -0.11495  -0.09355   0.03469
 Alpha virt. eigenvalues --    0.04955   0.06686   0.06872   0.07758   0.08773
 Alpha virt. eigenvalues --    0.09111   0.09868   0.09926   0.10027   0.11026
 Alpha virt. eigenvalues --    0.11228   0.12756   0.13169   0.13519   0.14088

  Beta  occ. eigenvalues --  -19.04892 -18.97869 -18.93135 -18.93094 -14.30997
  Beta  occ. eigenvalues --  -14.28019 -14.21504 -10.17297 -10.12207 -10.09661
  Beta  occ. eigenvalues --  -10.09550 -10.09458 -10.09435 -10.08885 -10.07939
  Beta  occ. eigenvalues --  -10.07652 -10.07605 -10.06726  -1.00789  -0.98546
  Beta  occ. eigenvalues --   -0.94033  -0.89121  -0.83754  -0.76964  -0.73859
  Beta  occ. eigenvalues --   -0.68399  -0.67233  -0.66704  -0.60678  -0.56312
  Beta  occ. eigenvalues --   -0.53970  -0.53309  -0.49957  -0.48001  -0.45432
  Beta  occ. eigenvalues --   -0.44140  -0.40801  -0.40047  -0.37927  -0.37545
  Beta  occ. eigenvalues --   -0.36536  -0.35856  -0.35688  -0.34406  -0.33754
  Beta  occ. eigenvalues --   -0.32269  -0.31557  -0.31191  -0.30790  -0.30646
  Beta  occ. eigenvalues --   -0.29253  -0.28341  -0.27941  -0.27123  -0.26845
  Beta  occ. eigenvalues --   -0.26302  -0.24466  -0.23209  -0.22681  -0.20091
  Beta  occ. eigenvalues --   -0.18662  -0.15899  -0.13806  -0.12454  -0.11036
  Beta  occ. eigenvalues --   -0.09342  -0.08809
  Beta virt. eigenvalues --    0.04942   0.06625   0.06763   0.07735   0.08803
  Beta virt. eigenvalues --    0.09193   0.09658   0.09830   0.09881   0.10834
  Beta virt. eigenvalues --    0.11059   0.11478   0.12679   0.13131   0.13666

 Mulliken charges and spin densities:
               1          2
     1  C   -0.318775  -0.080335
     2  C   -0.286503  -0.042984
     3  C   -0.413248  -0.085202
     4  C    0.515536   0.060214
     5  C   -0.329235  -0.039193
     6  C   -0.364246   0.041655
     7  C   -0.822275  -0.064105
     8  N    0.460214  -0.018203
     9  C   -0.041576   0.177401
    10  C   -0.213524   0.004791
    11  C    0.021344   0.114290
    12  N   -0.158335  -0.008239
    13  C   -0.124728   0.033935
    14  O   -0.270783   0.032838
    15  O   -0.161041   0.002468
    16  N   -0.327647   0.201926
    17  O   -0.167688   0.209468
    18  O   -0.202588   0.176175
    19  H    0.128291   0.031803
    20  H    0.089167   0.022244
    21  H    0.120061   0.003517
    22  H    0.074878   0.088798
    23  H    0.118904   0.020140
    24  H    0.083149   0.055206
    25  H    0.184031  -0.008381
    26  H    0.158370   0.013064
    27  H    0.215681   0.000121
    28  H    0.158248   0.000206
    29  H    0.141372   0.001764
    30  H    0.128938   0.047387
    31  H    0.195437  -0.007018
    32  H    0.150727   0.012227
    33  H    0.257845   0.002023
 Sum of Mulliken charges =  -1.00000   1.00000

 Dipole moment (field-independent basis, Debye):
    X=            -13.9731    Y=              4.2962    Z=             -2.7668  Tot=             14.8781
 Quadrupole moment (field-independent basis, Debye-Ang):
   XX=           -176.9457   YY=           -130.1276   ZZ=           -119.2410
   XY=             21.0494   XZ=            -12.4200   YZ=              5.9937

 Summary of Natural Population Analysis:

                                       Natural Population
                Natural  -----------------------------------------------
    Atom  No    Charge         Core      Valence    Rydberg      Total
 -----------------------------------------------------------------------
      C    1   -0.19024      0.99964     2.18306    0.00754     3.19024
      C    2   -0.18846      0.99963     2.18108    0.00774     3.18846
      C    3   -0.18873      0.99962     2.18137    0.00774     3.18873
      C    4   -0.11873      0.99959     2.10691    0.01224     3.11873
      C    5   -0.19263      0.99962     2.18506    0.00795     3.19263
      C    6   -0.18848      0.99963     2.18225    0.00660     3.18848
      C    7   -0.07526      0.99959     2.06489    0.01078     3.07526
      N    8   -0.11501      0.99966     2.60074    0.01461     3.61501
      C    9    0.03216      0.99952     1.95632    0.01200     2.96784
      C   10    0.02319      0.99937     1.96307    0.01437     2.97681
      C   11    0.04132      0.99948     1.94450    0.01470     2.95868
      N   12   -0.15320      0.99971     2.64147    0.01203     3.65320
      C   13    0.40425      0.99968     1.57175    0.02432     2.59575
      O   14   -0.28475      0.99987     3.27727    0.00761     4.28475
      O   15   -0.34122      0.99988     3.33532    0.00601     4.34122
      N   16    0.31031      0.99969     2.16491    0.02509     3.18969
      O   17   -0.17155      0.99990     3.16355    0.00810     4.17155
      O   18   -0.21258      0.99990     3.20478    0.00789     4.21258
      H   19    0.09575      0.00000     0.40289    0.00136     0.40425
      H   20    0.09188      0.00000     0.40668    0.00143     0.40812
      H   21    0.09339      0.00000     0.40535    0.00125     0.40661
      H   22    0.09601      0.00000     0.40258    0.00142     0.40399
      H   23    0.09307      0.00000     0.40536    0.00157     0.40693
      H   24    0.09789      0.00000     0.40080    0.00131     0.40211
      H   25    0.09698      0.00000     0.40143    0.00159     0.40302
      H   26    0.09513      0.00000     0.40379    0.00108     0.40487
      H   27    0.11387      0.00000     0.38525    0.00088     0.38613
      H   28    0.09762      0.00000     0.40128    0.00111     0.40238
      H   29    0.09390      0.00000     0.40497    0.00113     0.40610
      H   30    0.09735      0.00000     0.40137    0.00128     0.40265
      H   31    0.10570      0.00000     0.39293    0.00137     0.39430
      H   32    0.10918      0.00000     0.38990    0.00092     0.39082
      H   33    0.23190      0.00000     0.26503    0.00308     0.26810
 =======================================================================
   * Total *   -0.00000     17.99398    48.77790    0.22811    67.00000

 Normal termination of Gaussian 16 at Fri Dec 11 20:10:41 2020.
