 Gaussian 16, Revision A.03,

 -----------------------------------------------------------
 # opt freq B3LYP/6-31G(d) empiricaldispersion=gd3bj scf=xqc
 -----------------------------------------------------------

 ------------------------------
 CID_69598650_JID_5773_neutraal
 ------------------------------
 Symbolic Z-matrix:
 Charge =  0 Multiplicity = 1

 SCF Done:  E(RB3LYP) =  -715.781699381     A.U. after   15 cycles
 SCF Done:  E(RB3LYP) =  -715.789039870     A.U. after   12 cycles
 SCF Done:  E(RB3LYP) =  -715.791369396     A.U. after   12 cycles
 SCF Done:  E(RB3LYP) =  -715.792410995     A.U. after   12 cycles
 SCF Done:  E(RB3LYP) =  -715.792794690     A.U. after   12 cycles
 SCF Done:  E(RB3LYP) =  -715.792968440     A.U. after   11 cycles
 SCF Done:  E(RB3LYP) =  -715.793061006     A.U. after   11 cycles
 SCF Done:  E(RB3LYP) =  -715.793126797     A.U. after   11 cycles
 SCF Done:  E(RB3LYP) =  -715.793197229     A.U. after   11 cycles
 SCF Done:  E(RB3LYP) =  -715.793227697     A.U. after   11 cycles
 SCF Done:  E(RB3LYP) =  -715.793239574     A.U. after   10 cycles
 SCF Done:  E(RB3LYP) =  -715.793240999     A.U. after    8 cycles
 SCF Done:  E(RB3LYP) =  -715.793241446     A.U. after    8 cycles
 SCF Done:  E(RB3LYP) =  -715.793241562     A.U. after    8 cycles
 SCF Done:  E(RB3LYP) =  -715.793241599     A.U. after    7 cycles
 Optimization completed.
    -- Stationary point found.
 Normal termination of Gaussian 16 at Thu Dec 10 17:12:13 2020.

 --------------------------------------------------------------------
 #N Geom=AllCheck Guess=TCheck SCRF=Check GenChk RB3LYP/6-31G(d) Freq
 --------------------------------------------------------------------

 Structure from the checkpoint file:  "JID_5773.chk"
 ------------------------------
 CID_69598650_JID_5773_neutraal
 ------------------------------
 Charge =  0 Multiplicity = 1

 SCF Done:  E(RB3LYP) =  -715.793241599     A.U. after    1 cycles

  Exact polarizability: 196.384  -0.946 149.742  -0.076  -2.187  60.210
 Approx polarizability: 304.874  -2.458 248.555  -0.322  -5.021  95.431

                      1                      2                      3
                      A                      A                      A
 Frequencies --     68.6779               108.4019               121.4509
 Red. masses --      5.2533                 1.3122                 2.5398
 Frc consts  --      0.0146                 0.0091                 0.0221
 IR Inten    --      0.5832                17.6584                 1.6213

                      4                      5                      6
                      A                      A                      A
 Frequencies --    142.2416               190.5009               200.6581
 Red. masses --      3.3352                 3.2617                 3.4813
 Frc consts  --      0.0398                 0.0697                 0.0826
 IR Inten    --      0.7754                 0.3986                 6.5546

                      7                      8                      9
                      A                      A                      A
 Frequencies --    216.2368               261.9136               278.6228
 Red. masses --      5.6818                 4.8529                 1.9025
 Frc consts  --      0.1565                 0.1961                 0.0870
 IR Inten    --      1.4208                13.8804                12.8933

                     10                     11                     12
                      A                      A                      A
 Frequencies --    304.0837               316.5571               325.0795
 Red. masses --      2.1466                 2.5626                 3.4605
 Frc consts  --      0.1169                 0.1513                 0.2155
 IR Inten    --     12.0518                 5.1326                 3.5367

                     13                     14                     15
                      A                      A                      A
 Frequencies --    346.3944               359.8699               373.1614
 Red. masses --      2.0263                 1.6098                 4.9263
 Frc consts  --      0.1433                 0.1228                 0.4042
 IR Inten    --     42.4183                47.6447                 1.3207

                     16                     17                     18
                      A                      A                      A
 Frequencies --    388.7213               407.4077               413.6925
 Red. masses --      4.7991                 1.4729                 2.5432
 Frc consts  --      0.4273                 0.1440                 0.2564
 IR Inten    --      8.3579                39.4523                14.1998

                     19                     20                     21
                      A                      A                      A
 Frequencies --    478.4850               504.3045               529.4201
 Red. masses --      6.4885                 6.7778                 4.1392
 Frc consts  --      0.8752                 1.0156                 0.6836
 IR Inten    --      0.6704                 0.9860                12.0895

                     22                     23                     24
                      A                      A                      A
 Frequencies --    535.2349               597.6520               611.7394
 Red. masses --      1.0261                 5.5392                 5.2362
 Frc consts  --      0.1732                 1.1657                 1.1545
 IR Inten    --      6.6128                22.1612                13.9428

                     25                     26                     27
                      A                      A                      A
 Frequencies --    656.8450               662.8556               671.5553
 Red. masses --      4.3499                 5.2550                 4.9715
 Frc consts  --      1.1057                 1.3604                 1.3210
 IR Inten    --     13.2434                67.2404                19.0962

                     28                     29                     30
                      A                      A                      A
 Frequencies --    701.8768               755.8128               814.0130
 Red. masses --      7.7378                 4.8464                 1.5103
 Frc consts  --      2.2459                 1.6312                 0.5896
 IR Inten    --      9.0425                52.9193                98.7510

                     31                     32                     33
                      A                      A                      A
 Frequencies --    862.7336               871.4843               906.9564
 Red. masses --      1.4583                 2.1661                 1.4721
 Frc consts  --      0.6395                 0.9693                 0.7134
 IR Inten    --    187.5267               295.8268                36.7971

                     34                     35                     36
                      A                      A                      A
 Frequencies --    919.9085               922.3143               943.0478
 Red. masses --      1.6963                 1.6098                 2.6663
 Frc consts  --      0.8458                 0.8068                 1.3971
 IR Inten    --    180.5709               397.3343                48.0689

                     37                     38                     39
                      A                      A                      A
 Frequencies --    997.8832              1061.3793              1092.7024
 Red. masses --      2.7187                 1.9388                 3.9504
 Frc consts  --      1.5950                 1.2868                 2.7791
 IR Inten    --     14.6168                 3.6378                36.5826

                     40                     41                     42
                      A                      A                      A
 Frequencies --   1113.6384              1120.6117              1179.4397
 Red. masses --      2.5064                 2.9787                 1.7720
 Frc consts  --      1.8314                 2.2039                 1.4523
 IR Inten    --      1.5495                10.0617                 5.6721

                     43                     44                     45
                      A                      A                      A
 Frequencies --   1221.3669              1243.1683              1253.9727
 Red. masses --      1.6606                 1.6763                 1.1471
 Frc consts  --      1.4595                 1.5264                 1.0627
 IR Inten    --     47.0181                47.0641                 2.0245

                     46                     47                     48
                      A                      A                      A
 Frequencies --   1269.4733              1292.4203              1332.3716
 Red. masses --      3.9097                 1.7013                 3.1753
 Frc consts  --      3.7123                 1.6743                 3.3212
 IR Inten    --     17.8870                24.6800                16.8167

                     49                     50                     51
                      A                      A                      A
 Frequencies --   1375.4968              1393.5909              1405.4531
 Red. masses --      1.9471                 1.5506                 2.4754
 Frc consts  --      2.1705                 1.7742                 2.8809
 IR Inten    --     76.6370                10.0212                28.7437

                     52                     53                     54
                      A                      A                      A
 Frequencies --   1425.4401              1443.0230              1522.7364
 Red. masses --      1.9963                 2.7691                 5.7562
 Frc consts  --      2.3899                 3.3973                 7.8638
 IR Inten    --     16.1409                63.6932                94.3785

                     55                     56                     57
                      A                      A                      A
 Frequencies --   1539.2258              1554.8824              1627.3293
 Red. masses --      4.1055                 1.2333                 2.0667
 Frc consts  --      5.7308                 1.7568                 3.2247
 IR Inten    --     69.9220                17.6672                62.8721

                     58                     59                     60
                      A                      A                      A
 Frequencies --   1656.4839              1681.7448              1687.9100
 Red. masses --      2.6616                 1.7217                 1.2989
 Frc consts  --      4.3030                 2.8690                 2.1804
 IR Inten    --      0.7158                96.0309                39.6828

                     61                     62                     63
                      A                      A                      A
 Frequencies --   1697.6205              1701.1462              1705.7655
 Red. masses --      2.2759                 1.6512                 1.3846
 Frc consts  --      3.8644                 2.8153                 2.3736
 IR Inten    --     94.8436                84.5723                12.4251

                     64                     65                     66
                      A                      A                      A
 Frequencies --   2952.5242              3051.2738              3195.7548
 Red. masses --      1.0730                 1.0884                 1.0917
 Frc consts  --      5.5108                 5.9701                 6.5691
 IR Inten    --     72.2006                38.9606                 7.5031

                     67                     68                     69
                      A                      A                      A
 Frequencies --   3470.8438              3472.1386              3475.0479
 Red. masses --      1.0492                 1.0488                 1.0513
 Frc consts  --      7.4466                 7.4498                 7.4800
 IR Inten    --      6.1566                 7.6980                 0.9235

                     70                     71                     72
                      A                      A                      A
 Frequencies --   3476.2480              3564.9638              3568.2637
 Red. masses --      1.0516                 1.0939                 1.0949
 Frc consts  --      7.4869                 8.1907                 8.2139
 IR Inten    --      0.3511                29.7815                21.7395

                     73                     74                     75
                      A                      A                      A
 Frequencies --   3572.1858              3599.5017              3710.9721
 Red. masses --      1.0957                 1.0878                 1.0685
 Frc consts  --      8.2375                 8.3043                 8.6694
 IR Inten    --      3.7945                 3.8546                43.7412

 - Thermochemistry -
 -------------------
 Temperature   298.150 Kelvin.  Pressure   1.00000 Atm.
 Atom     1 has atomic number  6 and mass  12.00000

 Molecular mass:   208.10726 amu.
 Principal axes and moments of inertia in atomic units:
                           1         2         3
     Eigenvalues --  1781.351753836.758105556.84243
           X            0.99996  -0.00883   0.00084
           Y            0.00883   0.99996  -0.00204
           Z           -0.00082   0.00205   1.00000
 This molecule is an asymmetric top.
 Rotational symmetry number  1.
 Warning -- assumption of classical behavior for rotation
           may cause significant error
 Rotational temperatures (Kelvin)      0.04862     0.02257     0.01559
 Rotational constants (GHZ):           1.01313     0.47038     0.32478
 Zero-point vibrational energy     577054.1 (Joules/Mol)
                                  137.91923 (Kcal/Mol)
 Warning -- explicit consideration of  24 degrees of freedom as
           vibrations may cause significant error
 Vibrational temperatures:     98.81   155.97   174.74   204.65   274.09
          (Kelvin)            288.70   311.12   376.84   400.88   437.51
                              455.46   467.72   498.38   517.77   536.90
                              559.28   586.17   595.21   688.43   725.58
                              761.72   770.08   859.89   880.16   945.05
                              953.70   966.22  1009.84  1087.45  1171.18
                             1241.28  1253.87  1304.91  1323.54  1327.00
                             1356.84  1435.73  1527.09  1572.16  1602.28
                             1612.31  1696.95  1757.27  1788.64  1804.19
                             1826.49  1859.50  1916.99  1979.03  2005.07
                             2022.13  2050.89  2076.19  2190.88  2214.60
                             2237.13  2341.36  2383.31  2419.66  2428.53
                             2442.50  2447.57  2454.22  4248.02  4390.10
                             4597.98  4993.77  4995.63  4999.82  5001.55
                             5129.19  5133.94  5139.58  5178.88  5339.26

 Zero-point correction=                           0.219788 (Hartree/Particle)
 Thermal correction to Energy=                    0.233712
 Thermal correction to Enthalpy=                  0.234657
 Thermal correction to Gibbs Free Energy=         0.180591
 Sum of electronic and zero-point Energies=           -715.573453
 Sum of electronic and thermal Energies=              -715.559529
 Sum of electronic and thermal Enthalpies=            -715.558585
 Sum of electronic and thermal Free Energies=         -715.612651

                     E (Thermal)             CV                S
                      KCal/Mol        Cal/Mol-Kelvin    Cal/Mol-Kelvin
 Total                  146.657             55.167            113.791
 Electronic               0.000              0.000              0.000
 Translational            0.889              2.981             41.903
 Rotational               0.889              2.981             32.007
 Vibrational            144.879             49.206             39.881
 Vibration     1          0.598              1.969              4.191
 Vibration     2          0.606              1.943              3.297
 Vibration     3          0.609              1.931              3.077
 Vibration     4          0.616              1.911              2.774
 Vibration     5          0.634              1.853              2.223
 Vibration     6          0.638              1.839              2.127
 Vibration     7          0.645              1.816              1.990
 Vibration     8          0.669              1.743              1.649
 Vibration     9          0.679              1.713              1.542
 Vibration    10          0.695              1.666              1.394
 Vibration    11          0.703              1.642              1.328
 Vibration    12          0.709              1.625              1.284
 Vibration    13          0.724              1.583              1.183
 Vibration    14          0.734              1.555              1.123
 Vibration    15          0.745              1.527              1.067
 Vibration    16          0.757              1.494              1.005
 Vibration    17          0.772              1.454              0.936
 Vibration    18          0.777              1.441              0.914
 Vibration    19          0.835              1.298              0.714
 Vibration    20          0.860              1.240              0.647
 Vibration    21          0.884              1.185              0.589
 Vibration    22          0.890              1.172              0.576
 Vibration    23          0.956              1.037              0.454
 Vibration    24          0.971              1.007              0.430

                           ! Non-Optimized Parameters !
 Normal termination of Gaussian 16 at Thu Dec 10 17:21:37 2020.

 ----------------------------------------------------------------------
 # B3LYP/6-311++G(d,p) empiricaldispersion=gd3bj scf=xqc pop=npa geom=c
 heck
 ----------------------------------------------------------------------

 --------------------------------------
 CID_69598650_JID_5773_Energie_neutraal
 --------------------------------------
 Structure from the checkpoint file:  "JID_5773.chk"
 Charge =  0 Multiplicity = 1

 SCF Done:  E(RB3LYP) =  -716.022634572     A.U. after   15 cycles
 Normal termination of Gaussian 16 at Thu Dec 10 17:25:08 2020.

 ----------------------------------------------------------------------
 # B3LYP/6-311++G(d,p) empiricaldispersion=gd3bj scf=xqc pop=npa geom=c
 heck
 ----------------------------------------------------------------------

 ------------------------------------
 CID_69598650_JID_5773_Energie_kation
 ------------------------------------
 Structure from the checkpoint file:  "JID_5773.chk"
 Charge =  1 Multiplicity = 2

 SCF Done:  E(UB3LYP) =  -715.775621294     A.U. after   24 cycles
 Normal termination of Gaussian 16 at Thu Dec 10 17:36:11 2020.
 Gaussian 16:  ES64L-G16RevA.03 25-Dec-2016

 ----------------------------------------------------------------------
 # B3LYP/6-311++G(d,p) empiricaldispersion=gd3bj scf=xqc pop=npa geom=c
 heck
 ----------------------------------------------------------------------

 -----------------------------------
 CID_69598650_JID_5773_Energie_anion
 -----------------------------------
 Structure from the checkpoint file:  "JID_5773.chk"
 Charge = -1 Multiplicity = 2

                         Standard orientation:
 ---------------------------------------------------------------------
 Center     Atomic      Atomic             Coordinates (Angstroms)
 Number     Number       Type             X           Y           Z
 ---------------------------------------------------------------------
      1          6           0       -1.901469    1.105429    0.157236
      2          6           0       -0.491283    0.564550    0.071026
      3          6           0        0.622109    1.406930    0.049639
      4          6           0        1.915162    0.850072    0.002001
      5          6           0        2.082795   -0.538617   -0.065654
      6          6           0        0.969845   -1.385545    0.033267
      7          6           0       -0.317260   -0.830681    0.110664
      8          7           0       -1.402117   -1.725041    0.210693
      9          6           0       -2.573376   -1.236249    0.032626
     10          7           0       -2.826912    0.082354   -0.329610
     11          8           0       -4.174523    0.455474   -0.066457
     12          7           0        1.164697   -2.783870   -0.009403
     13          7           0        3.381596   -1.083218   -0.168579
     14          7           0        3.049465    1.685515   -0.035228
     15          7           0        0.545792    2.833866    0.103785
     16          1           0       -2.178666    1.391293    1.188374
     17          1           0       -2.027064    1.995282   -0.471421
     18          1           0       -3.463426   -1.858695    0.087731
     19          1           0       -4.519294    0.680040   -0.947039
     20          1           0        0.260845   -3.244409    0.077399
     21          1           0        1.773403   -3.102909    0.742023
     22          1           0        3.334116   -2.022955   -0.557367
     23          1           0        3.970152   -0.508453   -0.767969
     24          1           0        2.805893    2.611510    0.310627
     25          1           0        3.808371    1.302714    0.524572
     26          1           0       -0.367565    3.167637    0.390741
     27          1           0        0.772638    3.262581   -0.792465
 ---------------------------------------------------------------------

 SCF Done:  E(UB3LYP) =  -716.016497644     A.U. after   33 cycles
 SCF Done:  E(UB3LYP) =  -716.016497645     a.u. after    1 cycles

 The electronic state is 2-A.
 Alpha  occ. eigenvalues --  -19.05901 -14.27587 -14.21734 -14.20995 -14.20990
 Alpha  occ. eigenvalues --  -14.20492 -14.19043 -10.12643 -10.10288 -10.09315
 Alpha  occ. eigenvalues --  -10.09227 -10.09179 -10.09093 -10.08312 -10.06493
 Alpha  occ. eigenvalues --   -0.98261  -0.85164  -0.83612  -0.81396  -0.79113
 Alpha  occ. eigenvalues --   -0.77506  -0.74168  -0.70639  -0.63950  -0.59916
 Alpha  occ. eigenvalues --   -0.56619  -0.52995  -0.49714  -0.45835  -0.44862
 Alpha  occ. eigenvalues --   -0.43065  -0.41788  -0.39456  -0.38908  -0.38465
 Alpha  occ. eigenvalues --   -0.37532  -0.36893  -0.36418  -0.33852  -0.32912
 Alpha  occ. eigenvalues --   -0.31982  -0.31144  -0.29711  -0.28341  -0.26589
 Alpha  occ. eigenvalues --   -0.25314  -0.22640  -0.21645  -0.21537  -0.19018
 Alpha  occ. eigenvalues --   -0.17217  -0.16437  -0.13250  -0.09047  -0.07850
 Alpha  occ. eigenvalues --    0.04142
 Alpha virt. eigenvalues --    0.06256   0.07242   0.07754   0.08260   0.09139
 Alpha virt. eigenvalues --    0.10063   0.10171   0.11519   0.11848   0.12306
 Alpha virt. eigenvalues --    0.12663   0.13367   0.13952   0.14596   0.15787

  Beta  occ. eigenvalues --  -19.05824 -14.27578 -14.21710 -14.20988 -14.20945
  Beta  occ. eigenvalues --  -14.20434 -14.19013 -10.12564 -10.10231 -10.09314
  Beta  occ. eigenvalues --  -10.09225 -10.09161 -10.09083 -10.08307 -10.06471
  Beta  occ. eigenvalues --   -0.98114  -0.85094  -0.83544  -0.81347  -0.79063
  Beta  occ. eigenvalues --   -0.77443  -0.74078  -0.70572  -0.63864  -0.59856
  Beta  occ. eigenvalues --   -0.56547  -0.52895  -0.49669  -0.45782  -0.44766
  Beta  occ. eigenvalues --   -0.43011  -0.41715  -0.39412  -0.38853  -0.38386
  Beta  occ. eigenvalues --   -0.37472  -0.36840  -0.36373  -0.33800  -0.32864
  Beta  occ. eigenvalues --   -0.31907  -0.31058  -0.29643  -0.28294  -0.26451
  Beta  occ. eigenvalues --   -0.25208  -0.22561  -0.21558  -0.21448  -0.18962
  Beta  occ. eigenvalues --   -0.17143  -0.16382  -0.13144  -0.08969  -0.07700
  Beta virt. eigenvalues --    0.06340   0.07402   0.07831   0.08350   0.08890
  Beta virt. eigenvalues --    0.09479   0.10256   0.10552   0.11726   0.12260
  Beta virt. eigenvalues --    0.12555   0.12783   0.13407   0.14233   0.14962

 Mulliken charges and spin densities:
               1          2
     1  C    3.035099  -3.361416
     2  C    0.121178   1.432021
     3  C   -0.179924  -0.828989
     4  C    0.408076  -0.372438
     5  C   -0.108445   0.391389
     6  C   -0.892286   0.316791
     7  C   -0.804706  -0.127730
     8  N   -0.200039   0.056423
     9  C   -0.077757   0.298451
    10  N   -0.229227   0.049607
    11  O   -0.081583   0.006315
    12  N   -0.390014  -0.047691
    13  N   -0.412166  -0.035874
    14  N   -0.384301  -0.062840
    15  N   -0.487646   0.050059
    16  H   -0.008202   0.206843
    17  H   -0.651548   0.864133
    18  H   -0.014865   0.209745
    19  H   -0.212833   0.502101
    20  H    0.251314   0.020039
    21  H    0.179144   0.046395
    22  H    0.165971   0.078343
    23  H    0.115244   0.122175
    24  H    0.079699   0.200962
    25  H    0.023346   0.206807
    26  H   -0.070519   0.337528
    27  H   -0.173010   0.440851
 Sum of Mulliken charges =  -1.00000   1.00000

 Dipole moment (field-independent basis, Debye):
    X=              4.2136    Y=             -5.0672    Z=              1.5388  Tot=              6.7675
 Quadrupole moment (field-independent basis, Debye-Ang):
   XX=           -152.0086   YY=           -130.5273   ZZ=           -110.6140
   XY=              5.6179   XZ=             -3.4198   YZ=              1.9439

 Summary of Natural Population Analysis:

                                       Natural Population
                Natural  -----------------------------------------------
    Atom  No    Charge         Core      Valence    Rydberg      Total
 -----------------------------------------------------------------------
      C    1   -0.09068      0.99957     2.07820    0.01290     3.09068
      C    2   -0.04574      0.99944     2.03615    0.01016     3.04574
      C    3    0.05714      0.99941     1.93133    0.01212     2.94286
      C    4    0.06594      0.99943     1.92253    0.01211     2.93406
      C    5    0.05244      0.99942     1.93834    0.00980     2.94756
      C    6    0.06462      0.99942     1.92563    0.01033     2.93538
      C    7    0.04643      0.99940     1.94258    0.01158     2.95357
      N    8   -0.27526      0.99967     2.76475    0.01084     3.77526
      C    9    0.16302      0.99960     1.81940    0.01798     2.83698
      N   10   -0.10614      0.99964     2.59124    0.01527     3.60614
      O   11   -0.28410      0.99990     3.27677    0.00743     4.28410
      N   12   -0.41592      0.99973     2.90639    0.00980     3.91592
      N   13   -0.41090      0.99973     2.90090    0.01028     3.91090
      N   14   -0.40962      0.99973     2.89919    0.01070     3.90962
      N   15   -0.42090      0.99974     2.91036    0.01080     3.92090
      H   16    0.09114      0.00000     0.40726    0.00160     0.40886
      H   17    0.10448      0.00000     0.39129    0.00423     0.39552
      H   18    0.08791      0.00000     0.41069    0.00140     0.41209
      H   19    0.23929      0.00000     0.24620    0.01451     0.26071
      H   20    0.19557      0.00000     0.30244    0.00199     0.30443
      H   21    0.17654      0.00000     0.32132    0.00215     0.32346
      H   22    0.18581      0.00000     0.31195    0.00224     0.31419
      H   23    0.18301      0.00000     0.31483    0.00216     0.31699
      H   24    0.19264      0.00000     0.30511    0.00225     0.30736
      H   25    0.18153      0.00000     0.31631    0.00216     0.31847
      H   26    0.18694      0.00000     0.31023    0.00283     0.31306
      H   27    0.18480      0.00000     0.31252    0.00268     0.31520
 =======================================================================
   * Total *   -0.00000     14.99382    39.79390    0.21228    55.00000

 Normal termination of Gaussian 16 at Thu Dec 10 17:46:51 2020.
