 Gaussian 16, Revision A.03,

 -----------------------------------------------------------
 # opt freq B3LYP/6-31G(d) empiricaldispersion=gd3bj scf=xqc
 -----------------------------------------------------------

 ---------------------------
 CID_5352149_JID_88_neutraal
 ---------------------------
 Symbolic Z-matrix:
 Charge =  0 Multiplicity = 1

 SCF Done:  E(RB3LYP) =  -391.932384155     A.U. after   13 cycles
 SCF Done:  E(RB3LYP) =  -391.934152158     A.U. after   10 cycles
 SCF Done:  E(RB3LYP) =  -391.934251799     A.U. after   10 cycles
 SCF Done:  E(RB3LYP) =  -391.934260649     A.U. after    9 cycles
 SCF Done:  E(RB3LYP) =  -391.934266472     A.U. after    8 cycles
 SCF Done:  E(RB3LYP) =  -391.934266793     A.U. after    7 cycles
 Optimization completed.
    -- Stationary point found.
 Normal termination of Gaussian 16 at Tue Dec  8 10:15:31 2020.

 --------------------------------------------------------------------
 #N Geom=AllCheck Guess=TCheck SCRF=Check GenChk RB3LYP/6-31G(d) Freq
 --------------------------------------------------------------------

 Structure from the checkpoint file:  "JID_88.chk"
 ---------------------------
 CID_5352149_JID_88_neutraal
 ---------------------------
 Charge =  0 Multiplicity = 1

 SCF Done:  E(RB3LYP) =  -391.934266793     A.U. after    1 cycles

  Exact polarizability: 118.016   2.921  97.592   0.596  -3.415  87.055
 Approx polarizability: 165.911   5.689 131.554   0.354  -6.109 131.275

                      1                      2                      3
                      A                      A                      A
 Frequencies --    110.6630               146.4424               194.8863
 Red. masses --      2.6644                 2.6962                 3.1932
 Frc consts  --      0.0192                 0.0341                 0.0715
 IR Inten    --      0.0243                 0.0139                 0.1361

                      4                      5                      6
                      A                      A                      A
 Frequencies --    199.4542               247.1224               262.8326
 Red. masses --      2.5314                 2.6787                 1.1547
 Frc consts  --      0.0593                 0.0964                 0.0470
 IR Inten    --      0.0877                 0.1591                 0.1050

                      7                      8                      9
                      A                      A                      A
 Frequencies --    273.9939               316.1264               342.3640
 Red. masses --      2.2132                 2.0355                 1.9535
 Frc consts  --      0.0979                 0.1198                 0.1349
 IR Inten    --      0.0323                 0.0176                 0.2415

                     10                     11                     12
                      A                      A                      A
 Frequencies --    389.1858               430.7127               444.1367
 Red. masses --      1.9127                 2.2739                 1.9423
 Frc consts  --      0.1707                 0.2485                 0.2257
 IR Inten    --      0.1207                 0.5052                 1.5108

                     13                     14                     15
                      A                      A                      A
 Frequencies --    550.7075               576.9826               621.7488
 Red. masses --      2.4020                 2.0750                 1.9005
 Frc consts  --      0.4292                 0.4070                 0.4329
 IR Inten    --      1.3568                 0.8376                10.3131

                     16                     17                     18
                      A                      A                      A
 Frequencies --    690.8757               764.2585               779.2169
 Red. masses --      2.6350                 1.7684                 1.9358
 Frc consts  --      0.7410                 0.6086                 0.6925
 IR Inten    --      4.3697                 5.0054                15.8378

                     19                     20                     21
                      A                      A                      A
 Frequencies --    809.2018               834.6888               866.2862
 Red. masses --      2.0519                 1.5896                 2.0400
 Frc consts  --      0.7916                 0.6525                 0.9020
 IR Inten    --      1.2734                 3.9270                 3.5996

                     22                     23                     24
                      A                      A                      A
 Frequencies --    914.7050               933.8772               947.5946
 Red. masses --      1.9851                 1.8972                 1.7266
 Frc consts  --      0.9786                 0.9748                 0.9134
 IR Inten    --      0.4836                 2.5886                 1.0512

                     25                     26                     27
                      A                      A                      A
 Frequencies --    990.4010              1005.7642              1011.7938
 Red. masses --      2.2944                 1.4975                 1.4809
 Frc consts  --      1.3260                 0.8925                 0.8932
 IR Inten    --      0.4492                 0.8895                 2.7087

                     28                     29                     30
                      A                      A                      A
 Frequencies --   1031.4122              1058.0675              1078.1696
 Red. masses --      1.7455                 1.7592                 2.0879
 Frc consts  --      1.0940                 1.1603                 1.4300
 IR Inten    --      0.6982                 2.3312                 1.8434

                     31                     32                     33
                      A                      A                      A
 Frequencies --   1090.0037              1121.5048              1141.5339
 Red. masses --      1.7405                 1.6793                 2.1275
 Frc consts  --      1.2184                 1.2445                 1.6334
 IR Inten    --      0.7231                 3.1632                 0.0839

                     34                     35                     36
                      A                      A                      A
 Frequencies --   1186.0160              1210.2684              1217.5794
 Red. masses --      2.0709                 1.2960                 1.3028
 Frc consts  --      1.7163                 1.1185                 1.1379
 IR Inten    --      1.8181                 0.3872                 0.1420

                     37                     38                     39
                      A                      A                      A
 Frequencies --   1268.1478              1285.7544              1302.4037
 Red. masses --      1.1609                 1.2181                 1.1850
 Frc consts  --      1.1000                 1.1865                 1.1843
 IR Inten    --      0.9185                 1.5756                 1.4214

                     40                     41                     42
                      A                      A                      A
 Frequencies --   1312.5046              1332.1667              1351.9518
 Red. masses --      1.2253                 1.2751                 1.2848
 Frc consts  --      1.2437                 1.3332                 1.3836
 IR Inten    --      1.5893                 2.0525                 0.4748

                     43                     44                     45
                      A                      A                      A
 Frequencies --   1363.5427              1381.2769              1393.6718
 Red. masses --      1.2560                 1.3960                 1.2669
 Frc consts  --      1.3759                 1.5693                 1.4498
 IR Inten    --      1.5390                 1.0877                 0.4419

                     46                     47                     48
                      A                      A                      A
 Frequencies --   1401.0451              1410.3215              1431.5098
 Red. masses --      1.3363                 1.2991                 1.3833
 Frc consts  --      1.5454                 1.5225                 1.6701
 IR Inten    --      8.1655                 7.0468                 1.6474

                     49                     50                     51
                      A                      A                      A
 Frequencies --   1433.3932              1442.2780              1455.1811
 Red. masses --      1.3766                 1.2967                 1.4471
 Frc consts  --      1.6664                 1.5892                 1.8055
 IR Inten    --      3.2402                 8.5204                 0.4120

                     52                     53                     54
                      A                      A                      A
 Frequencies --   1507.3273              1512.4545              1518.0125
 Red. masses --      1.0795                 1.0809                 1.0932
 Frc consts  --      1.4451                 1.4567                 1.4843
 IR Inten    --      0.2695                 1.9490                 3.1910

                     55                     56                     57
                      A                      A                      A
 Frequencies --   1520.3064              1524.0375              1530.8705
 Red. masses --      1.1047                 1.0947                 1.0621
 Frc consts  --      1.5044                 1.4981                 1.4666
 IR Inten    --      0.3131                12.6792                 3.5442

                     58                     59                     60
                      A                      A                      A
 Frequencies --   1537.5445              1544.1393              1740.8914
 Red. masses --      1.0551                 1.0896                 6.3709
 Frc consts  --      1.4696                 1.5306                11.3760
 IR Inten    --      1.1858                11.2270                 0.4270

                     61                     62                     63
                      A                      A                      A
 Frequencies --   3001.4880              3015.7332              3023.0441
 Red. masses --      1.0802                 1.0662                 1.0630
 Frc consts  --      5.7338                 5.7133                 5.7235
 IR Inten    --     10.3817                12.8363                10.2730

                     64                     65                     66
                      A                      A                      A
 Frequencies --   3031.8556              3037.7694              3039.1118
 Red. masses --      1.0641                 1.0674                 1.0648
 Frc consts  --      5.7630                 5.8033                 5.7945
 IR Inten    --     30.8043               112.8768                46.7651

                     67                     68                     69
                      A                      A                      A
 Frequencies --   3044.6063              3047.6659              3052.3977
 Red. masses --      1.0678                 1.0574                 1.0814
 Frc consts  --      5.8318                 5.7864                 5.9362
 IR Inten    --     77.2229                15.6942                12.8159

                     70                     71                     72
                      A                      A                      A
 Frequencies --   3060.9092              3067.9639              3076.7173
 Red. masses --      1.1022                 1.1022                 1.0958
 Frc consts  --      6.0841                 6.1121                 6.1117
 IR Inten    --     28.4754                10.8165                74.5686

                     73                     74                     75
                      A                      A                      A
 Frequencies --   3099.7710              3106.0689              3118.0281
 Red. masses --      1.0926                 1.1018                 1.0888
 Frc consts  --      6.1855                 6.2631                 6.2367
 IR Inten    --     51.7258                30.7728                17.7339

                     76                     77                     78
                      A                      A                      A
 Frequencies --   3127.4902              3134.1418              3159.2181
 Red. masses --      1.0998                 1.0856                 1.0948
 Frc consts  --      6.3379                 6.2826                 6.4377
 IR Inten    --     39.1789                19.4296                50.8782

 - Thermochemistry -
 -------------------
 Temperature   298.150 Kelvin.  Pressure   1.00000 Atm.
 Atom     1 has atomic number  6 and mass  12.00000

 Molecular mass:   138.14085 amu.
 Principal axes and moments of inertia in atomic units:
                           1         2         3
     Eigenvalues --  1115.753021434.401612029.64738
           X            0.99986   0.01535  -0.00661
           Y           -0.01534   0.99988   0.00141
           Z            0.00663  -0.00131   0.99998
 This molecule is an asymmetric top.
 Rotational symmetry number  1.
 Warning -- assumption of classical behavior for rotation
           may cause significant error
 Rotational temperatures (Kelvin)      0.07763     0.06038     0.04267
 Rotational constants (GHZ):           1.61751     1.25818     0.88919
 Zero-point vibrational energy     691054.5 (Joules/Mol)
                                  165.16599 (Kcal/Mol)
 Warning -- explicit consideration of  14 degrees of freedom as
           vibrations may cause significant error
 Vibrational temperatures:    159.22   210.70   280.40   286.97   355.55
          (Kelvin)            378.16   394.22   454.84   492.59   559.95
                              619.70   639.01   792.35   830.15   894.56
                              994.02  1099.60  1121.12  1164.26  1200.93
                             1246.39  1316.06  1343.64  1363.38  1424.97
                             1447.07  1455.75  1483.97  1522.32  1551.25
                             1568.27  1613.60  1642.41  1706.41  1741.31
                             1751.83  1824.58  1849.91  1873.87  1888.40
                             1916.69  1945.16  1961.83  1987.35  2005.18
                             2015.79  2029.14  2059.62  2062.33  2075.12
                             2093.68  2168.71  2176.08  2184.08  2187.38
                             2192.75  2202.58  2212.18  2221.67  2504.75
                             4318.47  4338.97  4349.49  4362.16  4370.67
                             4372.60  4380.51  4384.91  4391.72  4403.97
                             4414.12  4426.71  4459.88  4468.94  4486.15
                             4499.76  4509.33  4545.41

 Zero-point correction=                           0.263209 (Hartree/Particle)
 Thermal correction to Energy=                    0.273224
 Thermal correction to Enthalpy=                  0.274168
 Thermal correction to Gibbs Free Energy=         0.229008
 Sum of electronic and zero-point Energies=           -391.671058
 Sum of electronic and thermal Energies=              -391.661043
 Sum of electronic and thermal Enthalpies=            -391.660099
 Sum of electronic and thermal Free Energies=         -391.705259

                     E (Thermal)             CV                S
                      KCal/Mol        Cal/Mol-Kelvin    Cal/Mol-Kelvin
 Total                  171.450             40.687             95.048
 Electronic               0.000              0.000              0.000
 Translational            0.889              2.981             40.681
 Rotational               0.889              2.981             29.564
 Vibrational            169.673             34.726             24.803
 Vibration     1          0.606              1.941              3.257
 Vibration     2          0.617              1.907              2.718
 Vibration     3          0.636              1.847              2.181
 Vibration     4          0.638              1.841              2.138
 Vibration     5          0.661              1.768              1.751
 Vibration     6          0.670              1.741              1.643
 Vibration     7          0.676              1.721              1.571
 Vibration     8          0.703              1.643              1.330
 Vibration     9          0.721              1.591              1.201
 Vibration    10          0.757              1.493              1.003
 Vibration    11          0.792              1.403              0.856
 Vibration    12          0.804              1.374              0.814
 Vibration    13          0.906              1.138              0.543
 Vibration    14          0.933              1.081              0.491

 Optimization completed.
    -- Stationary point found.
 Normal termination of Gaussian 16 at Tue Dec  8 10:21:28 2020.

 ----------------------------------------------------------------------
 # B3LYP/6-311++G(d,p) empiricaldispersion=gd3bj scf=xqc pop=npa geom=c
 heck
 ----------------------------------------------------------------------

 -----------------------------------
 CID_5352149_JID_88_Energie_neutraal
 -----------------------------------
 Structure from the checkpoint file:  "JID_88.chk"
 Charge =  0 Multiplicity = 1

 SCF Done:  E(RB3LYP) =  -392.041175395     A.U. after   12 cycles
 Normal termination of Gaussian 16 at Tue Dec  8 10:23:29 2020.

 ----------------------------------------------------------------------
 # B3LYP/6-311++G(d,p) empiricaldispersion=gd3bj scf=xqc pop=npa geom=c
 heck
 ----------------------------------------------------------------------

 ---------------------------------
 CID_5352149_JID_88_Energie_kation
 ---------------------------------
 Structure from the checkpoint file:  "JID_88.chk"
 Charge =  1 Multiplicity = 2

 SCF Done:  E(UB3LYP) =  -391.722515904     A.U. after   18 cycles
 Normal termination of Gaussian 16 at Tue Dec  8 10:27:11 2020.
 Gaussian 16:  ES64L-G16RevA.03 25-Dec-2016

 ----------------------------------------------------------------------
 # B3LYP/6-311++G(d,p) empiricaldispersion=gd3bj scf=xqc pop=npa geom=c
 heck
 ----------------------------------------------------------------------

 --------------------------------
 CID_5352149_JID_88_Energie_anion
 --------------------------------
 Structure from the checkpoint file:  "JID_88.chk"
 Charge = -1 Multiplicity = 2

                         Standard orientation:
 ---------------------------------------------------------------------
 Center     Atomic      Atomic             Coordinates (Angstroms)
 Number     Number       Type             X           Y           Z
 ---------------------------------------------------------------------
      1          6           0        2.307293   -0.259678   -0.961477
      2          6           0        1.761860    0.001138    0.446831
      3          6           0        0.860849   -1.145889    0.984674
      4          6           0       -0.021544   -1.962874    0.020756
      5          6           0       -1.135852   -1.286684   -0.792116
      6          6           0       -2.256141   -0.585440   -0.009827
      7          6           0       -1.878637    0.785967    0.604990
      8          6           0       -1.170559    1.654653   -0.393541
      9          6           0        0.146941    1.881600   -0.431931
     10          6           0        1.162335    1.429256    0.589486
     11          1           0        1.510781   -0.248537   -1.711838
     12          1           0        2.809403   -1.232396   -1.018725
     13          1           0        3.037418    0.508946   -1.241804
     14          1           0        2.628965    0.014273    1.122840
     15          1           0        0.253019   -0.759518    1.811557
     16          1           0        1.533307   -1.881461    1.447391
     17          1           0        0.637121   -2.476825   -0.692045
     18          1           0       -0.480117   -2.761601    0.621943
     19          1           0       -0.702668   -0.572311   -1.499473
     20          1           0       -1.598444   -2.073947   -1.402864
     21          1           0       -2.632286   -1.244057    0.785295
     22          1           0       -3.096713   -0.426533   -0.698761
     23          1           0       -1.253269    0.639754    1.489444
     24          1           0       -2.800145    1.274469    0.949543
     25          1           0       -1.788741    2.054664   -1.198538
     26          1           0        0.538209    2.464710   -1.265092
     27          1           0        0.741529    1.514149    1.599379
     28          1           0        2.003363    2.133922    0.554678
 ---------------------------------------------------------------------

 SCF Done:  E(UB3LYP) =  -392.023236321     A.U. after   29 cycles

 The electronic state is 2-A.
 Alpha  occ. eigenvalues --  -10.06408 -10.05980 -10.05846 -10.05830 -10.05776
 Alpha  occ. eigenvalues --  -10.05726 -10.05211 -10.05159 -10.04978 -10.04530
 Alpha  occ. eigenvalues --   -0.71982  -0.68415  -0.67298  -0.60925  -0.58793
 Alpha  occ. eigenvalues --   -0.56668  -0.50526  -0.48120  -0.42992  -0.40481
 Alpha  occ. eigenvalues --   -0.37736  -0.36349  -0.35210  -0.33493  -0.32509
 Alpha  occ. eigenvalues --   -0.30527  -0.29195  -0.28150  -0.27039  -0.25997
 Alpha  occ. eigenvalues --   -0.25416  -0.25065  -0.23277  -0.22737  -0.20955
 Alpha  occ. eigenvalues --   -0.20082  -0.19651  -0.19056  -0.13800   0.04858
 Alpha virt. eigenvalues --    0.06933   0.07579   0.08022   0.09409   0.09646
 Alpha virt. eigenvalues --    0.09841   0.10212   0.11007   0.11303   0.12361
 Alpha virt. eigenvalues --    0.12506   0.12745   0.13382   0.13946   0.14282

  Beta  occ. eigenvalues --  -10.06396 -10.05963 -10.05825 -10.05819 -10.05760
  Beta  occ. eigenvalues --  -10.05718 -10.05191 -10.05141 -10.04967 -10.04497
  Beta  occ. eigenvalues --   -0.71948  -0.68378  -0.67264  -0.60883  -0.58750
  Beta  occ. eigenvalues --   -0.56614  -0.50470  -0.48071  -0.42936  -0.40431
  Beta  occ. eigenvalues --   -0.37695  -0.36293  -0.35170  -0.33451  -0.32471
  Beta  occ. eigenvalues --   -0.30496  -0.29160  -0.28110  -0.27003  -0.25964
  Beta  occ. eigenvalues --   -0.25382  -0.25030  -0.23241  -0.22701  -0.20919
  Beta  occ. eigenvalues --   -0.20046  -0.19611  -0.19012  -0.13774
  Beta virt. eigenvalues --    0.07094   0.07935   0.08354   0.08555   0.10134
  Beta virt. eigenvalues --    0.10189   0.10401   0.10610   0.11367   0.11481
  Beta virt. eigenvalues --    0.12911   0.13095   0.13187   0.13761   0.14263

 Mulliken charges and spin densities:
               1          2
     1  C    0.484051  -1.223953
     2  C   -1.042096   1.527898
     3  C    0.825899  -1.251980
     4  C    0.719070  -1.197403
     5  C   -0.287238   0.383327
     6  C    0.175854  -0.847651
     7  C    0.120791  -0.146971
     8  C   -0.542409   0.320268
     9  C    0.512177  -0.530357
    10  C    0.879598  -1.543756
    11  H   -0.007622   0.157611
    12  H   -0.304331   0.446400
    13  H   -0.249530   0.392155
    14  H   -0.416712   0.620071
    15  H   -0.072066   0.181320
    16  H   -0.221415   0.391014
    17  H   -0.057828   0.196358
    18  H   -0.093387   0.243359
    19  H    0.130532  -0.021235
    20  H   -0.333078   0.511422
    21  H   -0.126685   0.268456
    22  H   -0.248014   0.391901
    23  H    0.041609   0.046068
    24  H   -0.257399   0.440519
    25  H   -0.315465   0.465334
    26  H   -0.139001   0.313350
    27  H   -0.061497   0.199153
    28  H   -0.113809   0.267324
 Sum of Mulliken charges =  -1.00000   1.00000

 Dipole moment (field-independent basis, Debye):
    X=             -1.2105    Y=              0.6710    Z=              0.1982  Tot=              1.3981
 Quadrupole moment (field-independent basis, Debye-Ang):
   XX=           -123.8227   YY=           -111.4495   ZZ=            -96.8047
   XY=              1.2206   XZ=             -2.7201   YZ=              0.9808

 Summary of Natural Population Analysis:

                                       Natural Population
                Natural  -----------------------------------------------
    Atom  No    Charge         Core      Valence    Rydberg      Total
 -----------------------------------------------------------------------
      C    1   -0.28795      0.99964     2.28184    0.00647     3.28795
      C    2   -0.10614      0.99959     2.09508    0.01147     3.10614
      C    3   -0.18870      0.99960     2.17934    0.00976     3.18870
      C    4   -0.18869      0.99962     2.18027    0.00880     3.18869
      C    5   -0.19457      0.99962     2.18651    0.00844     3.19457
      C    6   -0.18326      0.99962     2.17529    0.00835     3.18326
      C    7   -0.21029      0.99961     2.20193    0.00875     3.21029
      C    8   -0.08869      0.99951     2.07836    0.01082     3.08869
      C    9   -0.09307      0.99951     2.08283    0.01073     3.09307
      C   10   -0.20792      0.99959     2.19780    0.01053     3.20792
      H   11    0.09779      0.00000     0.40110    0.00111     0.40221
      H   12    0.10031      0.00000     0.39854    0.00114     0.39969
      H   13    0.09948      0.00000     0.39932    0.00120     0.40052
      H   14    0.09530      0.00000     0.40231    0.00239     0.40470
      H   15    0.09289      0.00000     0.40554    0.00156     0.40711
      H   16    0.10014      0.00000     0.39831    0.00155     0.39986
      H   17    0.09664      0.00000     0.40200    0.00136     0.40336
      H   18    0.09483      0.00000     0.40388    0.00129     0.40517
      H   19    0.09839      0.00000     0.39979    0.00182     0.40161
      H   20    0.09711      0.00000     0.40171    0.00119     0.40289
      H   21    0.09484      0.00000     0.40392    0.00124     0.40516
      H   22    0.09502      0.00000     0.40351    0.00147     0.40498
      H   23    0.09740      0.00000     0.40080    0.00180     0.40260
      H   24    0.10019      0.00000     0.39859    0.00122     0.39981
      H   25    0.09366      0.00000     0.40520    0.00113     0.40634
      H   26    0.09418      0.00000     0.40474    0.00109     0.40582
      H   27    0.09916      0.00000     0.39948    0.00136     0.40084
      H   28    0.10194      0.00000     0.39669    0.00137     0.39806
 =======================================================================
   * Total *   -0.00000      9.99591    28.88468    0.11942    39.00000

 Normal termination of Gaussian 16 at Tue Dec  8 10:33:31 2020.
