 Gaussian 16, Revision A.03,

 -----------------------------------------------------------
 # opt freq B3LYP/6-31G(d) empiricaldispersion=gd3bj scf=xqc
 -----------------------------------------------------------

 ------------------------------
 CID_118138438_JID_251_neutraal
 ------------------------------
 Symbolic Z-matrix:
 Charge =  0 Multiplicity = 1

 SCF Done:  E(RB3LYP) =  -530.537190341     A.U. after   14 cycles
 SCF Done:  E(RB3LYP) =  -530.536595979     A.U. after   14 cycles
 SCF Done:  E(RB3LYP) =  -530.540555573     A.U. after   14 cycles
 SCF Done:  E(RB3LYP) =  -530.540872329     A.U. after   14 cycles
 SCF Done:  E(RB3LYP) =  -530.544435851     A.U. after   14 cycles
 SCF Done:  E(RB3LYP) =  -530.540939249     A.U. after   14 cycles
 SCF Done:  E(RB3LYP) =  -530.545750714     A.U. after   14 cycles
 SCF Done:  E(RB3LYP) =  -530.546397780     A.U. after   12 cycles
 SCF Done:  E(RB3LYP) =  -530.545914768     A.U. after   13 cycles
 SCF Done:  E(RB3LYP) =  -530.546736304     A.U. after   12 cycles
 SCF Done:  E(RB3LYP) =  -530.546852440     A.U. after   12 cycles
 SCF Done:  E(RB3LYP) =  -530.546886811     A.U. after   12 cycles
 SCF Done:  E(RB3LYP) =  -530.546893135     A.U. after   10 cycles
 SCF Done:  E(RB3LYP) =  -530.546895667     A.U. after    9 cycles
 SCF Done:  E(RB3LYP) =  -530.546896625     A.U. after    8 cycles
 Optimization completed.
    -- Stationary point found.
 Normal termination of Gaussian 16 at Tue Dec  8 10:22:21 2020.

 --------------------------------------------------------------------
 #N Geom=AllCheck Guess=TCheck SCRF=Check GenChk RB3LYP/6-31G(d) Freq
 --------------------------------------------------------------------

 Structure from the checkpoint file:  "JID_251.chk"
 ------------------------------
 CID_118138438_JID_251_neutraal
 ------------------------------
 Charge =  0 Multiplicity = 1

 SCF Done:  E(RB3LYP) =  -530.546896625     A.U. after    1 cycles

  Exact polarizability:  83.000   2.871  76.993  -2.402   5.440  53.389
 Approx polarizability: 119.563   1.519 109.699  -9.690  17.128  85.657

                      1                      2                      3
                      A                      A                      A
 Frequencies --     73.8015                91.1753                92.8564
 Red. masses --      5.3427                 7.0988                 6.2872
 Frc consts  --      0.0171                 0.0348                 0.0319
 IR Inten    --      8.6309                 0.8859                 0.7027

                      4                      5                      6
                      A                      A                      A
 Frequencies --    141.7525               162.8113               208.7887
 Red. masses --      3.8931                 2.8149                 4.3967
 Frc consts  --      0.0461                 0.0440                 0.1129
 IR Inten    --      9.3440                 0.4809                 7.6328

                      7                      8                      9
                      A                      A                      A
 Frequencies --    215.8453               274.6273               331.3492
 Red. masses --      5.7565                 3.1097                 4.2600
 Frc consts  --      0.1580                 0.1382                 0.2756
 IR Inten    --      4.5503                 8.5509                12.7238

                     10                     11                     12
                      A                      A                      A
 Frequencies --    411.8558               523.6051               545.8624
 Red. masses --      2.8078                 3.1221                 2.4637
 Frc consts  --      0.2806                 0.5043                 0.4325
 IR Inten    --      9.3883                11.3536                25.1251

                     13                     14                     15
                      A                      A                      A
 Frequencies --    568.6206               635.2919               665.5568
 Red. masses --      1.3179                 1.6776                 2.2019
 Frc consts  --      0.2511                 0.3989                 0.5747
 IR Inten    --     21.0399               122.5751               123.1458

                     16                     17                     18
                      A                      A                      A
 Frequencies --    722.4447               734.7461               765.2453
 Red. masses --      1.6662                 1.7040                 3.5117
 Frc consts  --      0.5124                 0.5420                 1.2116
 IR Inten    --     26.6275                 7.3356                 1.0063

                     19                     20                     21
                      A                      A                      A
 Frequencies --    794.8404               858.3939               935.0207
 Red. masses --      4.7111                 2.1804                 2.0883
 Frc consts  --      1.7536                 0.9466                 1.0757
 IR Inten    --    123.4249                 4.7557                22.3899

                     22                     23                     24
                      A                      A                      A
 Frequencies --    961.4723               997.6597              1051.0295
 Red. masses --      2.0954                 2.5017                 2.5371
 Frc consts  --      1.1413                 1.4670                 1.6513
 IR Inten    --      7.9912                 3.5492                13.4016

                     25                     26                     27
                      A                      A                      A
 Frequencies --   1103.9518              1167.7363              1193.9236
 Red. masses --      2.4950                 1.6294                 2.7277
 Frc consts  --      1.7915                 1.3091                 2.2909
 IR Inten    --     13.8174                42.3503                20.7523

                     28                     29                     30
                      A                      A                      A
 Frequencies --   1253.8768              1283.0827              1357.0086
 Red. masses --      1.3513                 1.2734                 1.3394
 Frc consts  --      1.2517                 1.2351                 1.4532
 IR Inten    --      8.1181                24.0762                 2.8977

                     31                     32                     33
                      A                      A                      A
 Frequencies --   1390.5827              1413.7612              1432.3524
 Red. masses --      1.6262                 1.8316                 1.3368
 Frc consts  --      1.8528                 2.1570                 1.6159
 IR Inten    --     12.0930               170.9445                39.7000

                     34                     35                     36
                      A                      A                      A
 Frequencies --   1441.7490              1461.0869              1498.0942
 Red. masses --      1.5557                 1.1090                 1.4233
 Frc consts  --      1.9053                 1.3949                 1.8820
 IR Inten    --     47.3159                26.6929                 5.7187

                     37                     38                     39
                      A                      A                      A
 Frequencies --   1674.9634              1824.8721              1829.0155
 Red. masses --      1.1908                 9.0730                 7.0707
 Frc consts  --      1.9684                17.8019                13.9362
 IR Inten    --    168.5537               210.9078               413.0548

                     40                     41                     42
                      A                      A                      A
 Frequencies --   1839.0581              2928.8974              2947.7700
 Red. masses --     10.0731                 1.0858                 1.0852
 Frc consts  --     20.0727                 5.4880                 5.5560
 IR Inten    --    116.7473               105.5211               118.4767

                     43                     44                     45
                      A                      A                      A
 Frequencies --   3015.0632              3067.3100              3080.3957
 Red. masses --      1.0689                 1.0855                 1.0891
 Frc consts  --      5.7253                 6.0172                 6.0891
 IR Inten    --     25.2988                 3.7425                11.3500

                     46                     47                     48
                      A                      A                      A
 Frequencies --   3520.3897              3549.4739              3659.9233
 Red. masses --      1.0528                 1.0742                 1.0954
 Frc consts  --      7.6877                 7.9738                 8.6447
 IR Inten    --    126.7560                41.7606                86.5313

 - Thermochemistry -
 -------------------
 Temperature   298.150 Kelvin.  Pressure   1.00000 Atm.
 Atom     1 has atomic number  6 and mass  12.00000

 Molecular mass:   144.05349 amu.
 Principal axes and moments of inertia in atomic units:
                           1         2         3
     Eigenvalues --  1335.788491418.445822496.61225
           X            0.95679   0.29049   0.01265
           Y           -0.29056   0.95685   0.00378
           Z           -0.01101  -0.00730   0.99991
 This molecule is an asymmetric top.
 Rotational symmetry number  1.
 Warning -- assumption of classical behavior for rotation
           may cause significant error
 Rotational temperatures (Kelvin)      0.06484     0.06106     0.03469
 Rotational constants (GHZ):           1.35107     1.27234     0.72288
 Zero-point vibrational energy     369041.9 (Joules/Mol)
                                   88.20314 (Kcal/Mol)
 Warning -- explicit consideration of  13 degrees of freedom as
           vibrations may cause significant error
 Vibrational temperatures:    106.18   131.18   133.60   203.95   234.25
          (Kelvin)            300.40   310.55   395.13   476.74   592.57
                              753.35   785.37   818.12   914.04   957.59
                             1039.44  1057.14  1101.02  1143.60  1235.04
                             1345.29  1383.34  1435.41  1512.20  1588.34
                             1680.11  1717.79  1804.05  1846.07  1952.43
                             2000.74  2034.09  2060.84  2074.36  2102.18
                             2155.42  2409.90  2625.58  2631.55  2645.99
                             4214.03  4241.18  4338.00  4413.17  4432.00
                             5065.06  5106.90  5265.81

 Zero-point correction=                           0.140561 (Hartree/Particle)
 Thermal correction to Energy=                    0.150754
 Thermal correction to Enthalpy=                  0.151698
 Thermal correction to Gibbs Free Energy=         0.104460
 Sum of electronic and zero-point Energies=           -530.406336
 Sum of electronic and thermal Energies=              -530.396143
 Sum of electronic and thermal Enthalpies=            -530.395199
 Sum of electronic and thermal Free Energies=         -530.442436

                     E (Thermal)             CV                S
                      KCal/Mol        Cal/Mol-Kelvin    Cal/Mol-Kelvin
 Total                   94.599             36.249             99.420
 Electronic               0.000              0.000              0.000
 Translational            0.889              2.981             40.806
 Rotational               0.889              2.981             29.938
 Vibrational             92.822             30.287             28.676
 Vibration     1          0.599              1.966              4.049
 Vibration     2          0.602              1.955              3.635
 Vibration     3          0.602              1.954              3.599
 Vibration     4          0.615              1.911              2.780
 Vibration     5          0.623              1.888              2.517
 Vibration     6          0.642              1.827              2.054
 Vibration     7          0.645              1.817              1.994
 Vibration     8          0.677              1.720              1.567
 Vibration     9          0.714              1.613              1.253
 Vibration    10          0.776              1.444              0.920
 Vibration    11          0.879              1.198              0.602
 Vibration    12          0.901              1.149              0.553
 Vibration    13          0.925              1.099              0.507

                           ! Non-Optimized Parameters !
 Normal termination of Gaussian 16 at Tue Dec  8 10:25:21 2020.

 ----------------------------------------------------------------------
 # B3LYP/6-311++G(d,p) empiricaldispersion=gd3bj scf=xqc pop=npa geom=c
 heck
 ----------------------------------------------------------------------

 --------------------------------------
 CID_118138438_JID_251_Energie_neutraal
 --------------------------------------
 Structure from the checkpoint file:  "JID_251.chk"
 Charge =  0 Multiplicity = 1

 SCF Done:  E(RB3LYP) =  -530.720592750     A.U. after   14 cycles
 Normal termination of Gaussian 16 at Tue Dec  8 10:26:22 2020.

 ----------------------------------------------------------------------
 # B3LYP/6-311++G(d,p) empiricaldispersion=gd3bj scf=xqc pop=npa geom=c
 heck
 ----------------------------------------------------------------------

 ------------------------------------
 CID_118138438_JID_251_Energie_kation
 ------------------------------------
 Structure from the checkpoint file:  "JID_251.chk"
 Charge =  1 Multiplicity = 2

 SCF Done:  E(UB3LYP) =  -530.379481529     A.U. after   27 cycles
 Normal termination of Gaussian 16 at Tue Dec  8 10:29:33 2020.
 Gaussian 16:  ES64L-G16RevA.03 25-Dec-2016

 ----------------------------------------------------------------------
 # B3LYP/6-311++G(d,p) empiricaldispersion=gd3bj scf=xqc pop=npa geom=c
 heck
 ----------------------------------------------------------------------

 -----------------------------------
 CID_118138438_JID_251_Energie_anion
 -----------------------------------
 Structure from the checkpoint file:  "JID_251.chk"
 Charge = -1 Multiplicity = 2

                         Standard orientation:
 ---------------------------------------------------------------------
 Center     Atomic      Atomic             Coordinates (Angstroms)
 Number     Number       Type             X           Y           Z
 ---------------------------------------------------------------------
      1          6           0       -1.818562   -0.394029   -0.369150
      2          6           0       -2.247299    1.052973   -0.392682
      3          8           0       -1.691305    1.961197    0.187871
      4          6           0       -0.445563   -0.648013    0.286797
      5          6           0       -0.337887   -2.144631    0.558181
      6          8           0        0.478434   -2.863387    0.030927
      7          7           0        0.657476   -0.203416   -0.540108
      8          6           0        1.622798    0.718638   -0.117894
      9          8           0        2.762076    0.684575   -0.557288
     10          7           0        1.186900    1.636678    0.818488
     11          1           0       -1.816463   -0.769687   -1.401098
     12          1           0       -2.622463   -0.944791    0.147000
     13          1           0       -3.166305    1.253461   -0.981849
     14          1           0       -0.419886   -0.135276    1.256252
     15          1           0       -1.098708   -2.550777    1.259216
     16          1           0        1.109175   -0.969794   -1.031572
     17          1           0        0.215490    1.930542    0.765886
     18          1           0        1.853966    2.384783    0.953914
 ---------------------------------------------------------------------

 SCF Done:  E(UB3LYP) =  -530.724249380     A.U. after   33 cycles
 SCF Done:  E(UB3LYP) =  -530.724249384     a.u. after    2 cycles

 The electronic state is 2-A.
 Alpha  occ. eigenvalues --  -18.97222 -18.96187 -18.95936 -14.19739 -14.19698
 Alpha  occ. eigenvalues --  -10.17009 -10.10011 -10.08711 -10.08642 -10.04732
 Alpha  occ. eigenvalues --   -0.92444  -0.90902  -0.89793  -0.80120  -0.76354
 Alpha  occ. eigenvalues --   -0.64963  -0.55768  -0.48275  -0.45083  -0.43219
 Alpha  occ. eigenvalues --   -0.41571  -0.36951  -0.35501  -0.32906  -0.32334
 Alpha  occ. eigenvalues --   -0.31669  -0.30345  -0.29428  -0.28282  -0.26693
 Alpha  occ. eigenvalues --   -0.26045  -0.23224  -0.22529  -0.16028  -0.15004
 Alpha  occ. eigenvalues --   -0.13344  -0.12385  -0.11084   0.05769
 Alpha virt. eigenvalues --    0.08846   0.08968   0.09953   0.10235   0.12073
 Alpha virt. eigenvalues --    0.12924   0.13900   0.14531   0.14887   0.15950
 Alpha virt. eigenvalues --    0.16950   0.18040   0.18730   0.19292   0.19849

  Beta  occ. eigenvalues --  -18.96899 -18.95936 -18.95804 -14.19739 -14.19698
  Beta  occ. eigenvalues --  -10.17009 -10.09690 -10.08731 -10.08157 -10.04716
  Beta  occ. eigenvalues --   -0.92424  -0.90313  -0.89022  -0.80102  -0.76342
  Beta  occ. eigenvalues --   -0.64722  -0.55230  -0.48177  -0.44573  -0.42723
  Beta  occ. eigenvalues --   -0.41164  -0.36822  -0.35266  -0.32703  -0.32045
  Beta  occ. eigenvalues --   -0.31303  -0.30063  -0.29070  -0.27641  -0.26368
  Beta  occ. eigenvalues --   -0.25285  -0.21880  -0.20939  -0.16003  -0.14956
  Beta  occ. eigenvalues --   -0.13264  -0.12091  -0.10832
  Beta virt. eigenvalues --    0.09175   0.09922   0.10481   0.11498   0.12116
  Beta virt. eigenvalues --    0.12768   0.13642   0.13865   0.14597   0.14870
  Beta virt. eigenvalues --    0.16004   0.17022   0.18088   0.18564   0.19383

 Mulliken charges and spin densities:
               1          2
     1  C    0.247587  -0.230527
     2  C   -0.201311   0.385322
     3  O   -0.395691   0.118589
     4  C    0.113061  -0.320940
     5  C   -0.185423   0.053120
     6  O   -0.333776   0.093363
     7  N   -0.115680   0.011139
     8  C    0.156069  -0.005806
     9  O   -0.418554   0.000149
    10  N   -0.454769   0.001841
    11  H    0.205930  -0.060703
    12  H   -0.478702   0.654212
    13  H   -0.130075   0.168720
    14  H    0.251087  -0.050084
    15  H   -0.110710   0.173633
    16  H    0.288042  -0.004002
    17  H    0.296771   0.011795
    18  H    0.266144   0.000180
 Sum of Mulliken charges =  -1.00000   1.00000

 Dipole moment (field-independent basis, Debye):
    X=              0.4285    Y=              2.3741    Z=              0.8823  Tot=              2.5687
 Quadrupole moment (field-independent basis, Debye-Ang):
   XX=            -96.7412   YY=            -90.6304   ZZ=            -67.8168
   XY=              1.9645   XZ=              4.5815   YZ=              2.8863

 Summary of Natural Population Analysis:

                                       Natural Population
                Natural  -----------------------------------------------
    Atom  No    Charge         Core      Valence    Rydberg      Total
 -----------------------------------------------------------------------
      C    1   -0.24127      0.99959     2.23198    0.00969     3.24127
      C    2    0.29834      0.99974     1.68209    0.01983     2.70166
      O    3   -0.28126      0.99986     3.27441    0.00698     4.28126
      C    4   -0.06725      0.99958     2.05409    0.01358     3.06725
      C    5    0.26228      0.99973     1.71505    0.02294     2.73772
      O    6   -0.26584      0.99988     3.25895    0.00701     4.26584
      N    7   -0.33734      0.99966     2.82681    0.01086     3.83734
      C    8    0.40587      0.99975     1.57248    0.02189     2.59413
      O    9   -0.34816      0.99987     3.34200    0.00629     4.34816
      N   10   -0.43017      0.99970     2.92352    0.00694     3.93017
      H   11    0.10718      0.00000     0.39130    0.00152     0.39282
      H   12    0.11374      0.00000     0.38105    0.00520     0.38626
      H   13    0.03064      0.00000     0.46631    0.00305     0.46936
      H   14    0.11050      0.00000     0.38712    0.00238     0.38950
      H   15    0.04469      0.00000     0.45293    0.00238     0.45531
      H   16    0.20049      0.00000     0.29743    0.00208     0.29951
      H   17    0.21160      0.00000     0.28627    0.00213     0.28840
      H   18    0.18593      0.00000     0.31268    0.00139     0.31407
 =======================================================================
   * Total *    0.00000      9.99738    27.85647    0.14615    38.00000

 Normal termination of Gaussian 16 at Tue Dec  8 10:37:59 2020.
