 Gaussian 16, Revision A.03,

 -----------------------------------------------------------
 # opt freq B3LYP/6-31G(d) empiricaldispersion=gd3bj scf=xqc
 -----------------------------------------------------------

 ------------------------------
 CID_66351662_JID_5869_neutraal
 ------------------------------
 Symbolic Z-matrix:
 Charge =  0 Multiplicity = 1

 SCF Done:  E(RB3LYP) =  -990.676524393     A.U. after   14 cycles
 SCF Done:  E(RB3LYP) =  -990.680422086     A.U. after   12 cycles
 SCF Done:  E(RB3LYP) =  -990.681594291     A.U. after   12 cycles
 SCF Done:  E(RB3LYP) =  -990.682384500     A.U. after   12 cycles
 SCF Done:  E(RB3LYP) =  -990.683167348     A.U. after   12 cycles
 SCF Done:  E(RB3LYP) =  -990.683589560     A.U. after   12 cycles
 SCF Done:  E(RB3LYP) =  -990.683687747     A.U. after   11 cycles
 SCF Done:  E(RB3LYP) =  -990.683733878     A.U. after   11 cycles
 SCF Done:  E(RB3LYP) =  -990.683777771     A.U. after   11 cycles
 SCF Done:  E(RB3LYP) =  -990.683851373     A.U. after   12 cycles
 SCF Done:  E(RB3LYP) =  -990.684594793     A.U. after    8 cycles
 SCF Done:  E(RB3LYP) =  -990.684595150     A.U. after    7 cycles
 SCF Done:  E(RB3LYP) =  -990.684595217     A.U. after    7 cycles
 SCF Done:  E(RB3LYP) =  -990.684595348     A.U. after    8 cycles
 SCF Done:  E(RB3LYP) =  -990.684595391     A.U. after    7 cycles
 Optimization completed.
    -- Stationary point found.
 Normal termination of Gaussian 16 at Thu Dec 10 17:47:11 2020.

 --------------------------------------------------------------------
 #N Geom=AllCheck Guess=TCheck SCRF=Check GenChk RB3LYP/6-31G(d) Freq
 --------------------------------------------------------------------

 Structure from the checkpoint file:  "JID_5869.chk"
 ------------------------------
 CID_66351662_JID_5869_neutraal
 ------------------------------
 Charge =  0 Multiplicity = 1

 SCF Done:  E(RB3LYP) =  -990.684595391     A.U. after    1 cycles

  Exact polarizability: 192.712   5.939 125.609 -11.160   7.604 114.576
 Approx polarizability: 270.331   7.966 192.555 -27.365  17.422 195.192

                      1                      2                      3
                      A                      A                      A
 Frequencies --     27.4544                41.5730                62.6278
 Red. masses --      5.3028                 3.9883                 3.3114
 Frc consts  --      0.0024                 0.0041                 0.0077
 IR Inten    --      1.5203                 0.7363                 0.0932

                      4                      5                      6
                      A                      A                      A
 Frequencies --     79.1107               125.6745               136.2073
 Red. masses --      4.4663                 4.2827                 3.3287
 Frc consts  --      0.0165                 0.0399                 0.0364
 IR Inten    --      0.6618                 1.9344                 0.5479

                      7                      8                      9
                      A                      A                      A
 Frequencies --    156.7066               225.6199               267.6520
 Red. masses --      6.4207                 1.5769                 1.8681
 Frc consts  --      0.0929                 0.0473                 0.0788
 IR Inten    --      1.2744                 0.8625                 3.7713

                     10                     11                     12
                      A                      A                      A
 Frequencies --    274.6205               283.4963               306.0253
 Red. masses --      3.1542                 1.6766                 1.7678
 Frc consts  --      0.1402                 0.0794                 0.0975
 IR Inten    --      1.8861                 0.8938                 0.0880

                     13                     14                     15
                      A                      A                      A
 Frequencies --    337.0842               366.0245               402.1539
 Red. masses --      2.9853                 2.1374                 3.7855
 Frc consts  --      0.1999                 0.1687                 0.3607
 IR Inten    --      0.6397                 1.4136                 1.2031

                     16                     17                     18
                      A                      A                      A
 Frequencies --    449.5784               462.0284               493.1191
 Red. masses --      4.3332                 4.2015                 3.0194
 Frc consts  --      0.5160                 0.5284                 0.4326
 IR Inten    --      1.6843                 7.7292                 7.3728

                     19                     20                     21
                      A                      A                      A
 Frequencies --    580.6020               624.6086               635.8670
 Red. masses --      7.0784                 2.1365                 1.2844
 Frc consts  --      1.4059                 0.4911                 0.3060
 IR Inten    --     13.0461                81.7078                 5.2970

                     22                     23                     24
                      A                      A                      A
 Frequencies --    650.4257               651.7995               675.4856
 Red. masses --      2.3752                 2.7528                 2.8175
 Frc consts  --      0.5920                 0.6891                 0.7574
 IR Inten    --     10.8374                19.5985                13.5052

                     25                     26                     27
                      A                      A                      A
 Frequencies --    682.1893               693.9873               764.2153
 Red. masses --      3.7388                 2.6531                 1.5983
 Frc consts  --      1.0252                 0.7529                 0.5500
 IR Inten    --     20.4042                26.6289                97.5874

                     28                     29                     30
                      A                      A                      A
 Frequencies --    790.4596               806.5254               842.8463
 Red. masses --      3.9230                 1.4568                 1.5861
 Frc consts  --      1.4442                 0.5583                 0.6638
 IR Inten    --      1.3358                10.3652                11.8398

                     31                     32                     33
                      A                      A                      A
 Frequencies --    851.0757               870.6343               883.7489
 Red. masses --      3.5249                 1.3034                 3.7501
 Frc consts  --      1.5043                 0.5821                 1.7257
 IR Inten    --     22.2653                 1.1301                 2.6220

                     34                     35                     36
                      A                      A                      A
 Frequencies --    905.5672               936.2420               951.0267
 Red. masses --      2.4341                 4.9054                 1.1625
 Frc consts  --      1.1760                 2.5334                 0.6195
 IR Inten    --      1.8458                20.4803                 1.3717

                     37                     38                     39
                      A                      A                      A
 Frequencies --    967.3538               987.4888              1017.8651
 Red. masses --      1.5012                 2.4190                 1.7716
 Frc consts  --      0.8277                 1.3898                 1.0814
 IR Inten    --      0.1930                27.3934                 3.2038

                     40                     41                     42
                      A                      A                      A
 Frequencies --   1093.3161              1106.0671              1118.6154
 Red. masses --      2.1378                 3.1683                 1.1357
 Frc consts  --      1.5056                 2.2837                 0.8373
 IR Inten    --     12.1377                27.1575                 8.8216

                     43                     44                     45
                      A                      A                      A
 Frequencies --   1160.9706              1163.2522              1201.5436
 Red. masses --      2.1424                 1.8540                 2.0174
 Frc consts  --      1.7013                 1.4781                 1.7161
 IR Inten    --      5.3235                20.9622                 6.2635

                     46                     47                     48
                      A                      A                      A
 Frequencies --   1231.3202              1233.2915              1249.5106
 Red. masses --      1.7184                 1.3959                 2.0647
 Frc consts  --      1.5350                 1.2509                 1.8993
 IR Inten    --     11.6831                37.6805                22.5192

                     49                     50                     51
                      A                      A                      A
 Frequencies --   1264.3295              1280.3822              1308.9461
 Red. masses --      1.5952                 1.6730                 2.0640
 Frc consts  --      1.5024                 1.6160                 2.0836
 IR Inten    --     36.0071                15.9792                35.0167

                     52                     53                     54
                      A                      A                      A
 Frequencies --   1330.2943              1369.4556              1373.8525
 Red. masses --      2.7482                 1.3676                 1.4990
 Frc consts  --      2.8654                 1.5111                 1.6669
 IR Inten    --      7.9539                 2.6359                21.0716

                     55                     56                     57
                      A                      A                      A
 Frequencies --   1406.4386              1425.1032              1436.0854
 Red. masses --      4.1307                 1.2887                 2.1224
 Frc consts  --      4.8141                 1.5420                 2.5789
 IR Inten    --     19.7109                10.8535                12.1878

                     58                     59                     60
                      A                      A                      A
 Frequencies --   1442.3171              1461.5839              1492.8143
 Red. masses --      1.3209                 1.5685                 5.8960
 Frc consts  --      1.6190                 1.9742                 7.7413
 IR Inten    --      6.2868                16.8385                 7.3244

                     61                     62                     63
                      A                      A                      A
 Frequencies --   1512.1500              1521.0905              1524.6834
 Red. masses --      1.0446                 1.7924                 1.4171
 Frc consts  --      1.4073                 2.4434                 1.9410
 IR Inten    --      1.1454               106.0274                28.8175

                     64                     65                     66
                      A                      A                      A
 Frequencies --   1529.3463              1531.7665              1543.6948
 Red. masses --      1.4920                 1.2178                 1.0656
 Frc consts  --      2.0560                 1.6834                 1.4961
 IR Inten    --     48.1764                22.2938                 2.5454

                     67                     68                     69
                      A                      A                      A
 Frequencies --   1560.5491              1611.0941              1627.0328
 Red. masses --      1.0680                 5.5050                 5.6540
 Frc consts  --      1.5325                 8.4188                 8.8186
 IR Inten    --      5.5206                14.8937                96.6491

                     70                     71                     72
                      A                      A                      A
 Frequencies --   2992.8822              3058.0819              3060.1868
 Red. masses --      1.0727                 1.0484                 1.0682
 Frc consts  --      5.6609                 5.7767                 5.8938
 IR Inten    --     41.0434                18.2204                25.1026

                     73                     74                     75
                      A                      A                      A
 Frequencies --   3066.0610              3075.1326              3126.3358
 Red. masses --      1.0419                 1.0853                 1.1026
 Frc consts  --      5.7710                 6.0469                 6.3493
 IR Inten    --     10.2876                28.0829                17.3411

                     76                     77                     78
                      A                      A                      A
 Frequencies --   3131.4242              3152.5759              3157.1308
 Red. masses --      1.1024                 1.1027                 1.1017
 Frc consts  --      6.3690                 6.4570                 6.4697
 IR Inten    --     31.2904                 4.5818                14.5068

                     79                     80                     81
                      A                      A                      A
 Frequencies --   3213.7501              3245.8889              3251.6454
 Red. masses --      1.0912                 1.0949                 1.0976
 Frc consts  --      6.6402                 6.7964                 6.8375
 IR Inten    --      5.0752                12.3203                 0.8078

                     82                     83                     84
                      A                      A                      A
 Frequencies --   3272.7799              3286.8971              3540.5850
 Red. masses --      1.0965                 1.0931                 1.0753
 Frc consts  --      6.9198                 6.9582                 7.9418
 IR Inten    --      0.7050                 6.1579                 8.2448

 - Thermochemistry -
 -------------------
 Temperature   298.150 Kelvin.  Pressure   1.00000 Atm.
 Atom     1 has atomic number  6 and mass  12.00000

 Molecular mass:   221.09867 amu.
 Principal axes and moments of inertia in atomic units:
                           1         2         3
     Eigenvalues --  1562.878636941.032407530.11509
           X            0.99992  -0.01156   0.00580
           Y            0.01149   0.99987   0.01117
           Z           -0.00593  -0.01110   0.99992
 This molecule is an asymmetric top.
 Rotational symmetry number  1.
 Warning -- assumption of classical behavior for rotation
           may cause significant error
 Rotational temperatures (Kelvin)      0.05542     0.01248     0.01150
 Rotational constants (GHZ):           1.15475     0.26001     0.23967
 Zero-point vibrational energy     658000.1 (Joules/Mol)
                                  157.26580 (Kcal/Mol)
 Warning -- explicit consideration of  19 degrees of freedom as
           vibrations may cause significant error
 Vibrational temperatures:     39.50    59.81    90.11   113.82   180.82
          (Kelvin)            195.97   225.47   324.62   385.09   395.12
                              407.89   440.30   484.99   526.63   578.61
                              646.84   664.76   709.49   835.36   898.67
                              914.87   935.82   937.79   971.87   981.52
                              998.49  1099.54  1137.30  1160.41  1212.67
                             1224.51  1252.65  1271.52  1302.91  1347.04
                             1368.32  1391.81  1420.78  1464.48  1573.04
                             1591.38  1609.44  1670.38  1673.66  1728.75
                             1771.60  1774.43  1797.77  1819.09  1842.18
                             1883.28  1914.00  1970.34  1976.67  2023.55
                             2050.41  2066.21  2075.17  2102.89  2147.83
                             2175.65  2188.51  2193.68  2200.39  2203.87
                             2221.03  2245.28  2318.01  2340.94  4306.09
                             4399.90  4402.93  4411.38  4424.43  4498.10
                             4505.42  4535.85  4542.41  4623.87  4670.11
                             4678.39  4708.80  4729.11  5094.11

 Zero-point correction=                           0.250619 (Hartree/Particle)
 Thermal correction to Energy=                    0.264971
 Thermal correction to Enthalpy=                  0.265915
 Thermal correction to Gibbs Free Energy=         0.207946
 Sum of electronic and zero-point Energies=           -990.433976
 Sum of electronic and thermal Energies=              -990.419625
 Sum of electronic and thermal Enthalpies=            -990.418680
 Sum of electronic and thermal Free Energies=         -990.476650

                     E (Thermal)             CV                S
                      KCal/Mol        Cal/Mol-Kelvin    Cal/Mol-Kelvin
 Total                  166.272             55.001            122.007
 Electronic               0.000              0.000              0.000
 Translational            0.889              2.981             42.083
 Rotational               0.889              2.981             32.768
 Vibrational            164.494             49.039             47.155
 Vibration     1          0.593              1.984              6.005
 Vibration     2          0.594              1.981              5.183
 Vibration     3          0.597              1.972              4.373
 Vibration     4          0.600              1.963              3.913
 Vibration     5          0.611              1.927              3.011
 Vibration     6          0.614              1.917              2.856
 Vibration     7          0.620              1.895              2.589
 Vibration     8          0.650              1.802              1.914
 Vibration     9          0.673              1.733              1.611
 Vibration    10          0.677              1.720              1.567
 Vibration    11          0.682              1.704              1.512
 Vibration    12          0.696              1.662              1.384
 Vibration    13          0.718              1.601              1.226
 Vibration    14          0.739              1.542              1.096
 Vibration    15          0.768              1.465              0.955
 Vibration    16          0.808              1.362              0.797
 Vibration    17          0.820              1.334              0.760
 Vibration    18          0.849              1.265              0.676
 Vibration    19          0.937              1.073              0.484

 Optimization completed.
    -- Stationary point found.
 Normal termination of Gaussian 16 at Thu Dec 10 17:57:17 2020.

 ----------------------------------------------------------------------
 # B3LYP/6-311++G(d,p) empiricaldispersion=gd3bj scf=xqc pop=npa geom=c
 heck
 ----------------------------------------------------------------------

 --------------------------------------
 CID_66351662_JID_5869_Energie_neutraal
 --------------------------------------
 Structure from the checkpoint file:  "JID_5869.chk"
 Charge =  0 Multiplicity = 1

 SCF Done:  E(RB3LYP) =  -990.872288954     A.U. after   15 cycles
 Normal termination of Gaussian 16 at Thu Dec 10 18:01:21 2020.

 ----------------------------------------------------------------------
 # B3LYP/6-311++G(d,p) empiricaldispersion=gd3bj scf=xqc pop=npa geom=c
 heck
 ----------------------------------------------------------------------

 ------------------------------------
 CID_66351662_JID_5869_Energie_kation
 ------------------------------------
 Structure from the checkpoint file:  "JID_5869.chk"
 Charge =  1 Multiplicity = 2

 SCF Done:  E(UB3LYP) =  -990.593883875     A.U. after   27 cycles
 Normal termination of Gaussian 16 at Thu Dec 10 18:10:57 2020.
 Gaussian 16:  ES64L-G16RevA.03 25-Dec-2016

 ----------------------------------------------------------------------
 # B3LYP/6-311++G(d,p) empiricaldispersion=gd3bj scf=xqc pop=npa geom=c
 heck
 ----------------------------------------------------------------------

 -----------------------------------
 CID_66351662_JID_5869_Energie_anion
 -----------------------------------
 Structure from the checkpoint file:  "JID_5869.chk"
 Charge = -1 Multiplicity = 2

                         Standard orientation:
 ---------------------------------------------------------------------
 Center     Atomic      Atomic             Coordinates (Angstroms)
 Number     Number       Type             X           Y           Z
 ---------------------------------------------------------------------
      1          6           0       -1.785237    2.192827    0.970674
      2          6           0       -2.310095    1.568733   -0.326658
      3          6           0       -1.383948    1.844484   -1.512637
      4          7           0       -2.606386    0.135677   -0.149566
      5          6           0       -3.855843   -0.324835    0.170518
      6          7           0       -3.890170   -1.623879    0.380542
      7          6           0       -2.592659   -2.035428    0.195444
      8          6           0       -1.769257   -0.979894   -0.129936
      9          6           0       -0.312165   -1.006262   -0.443462
     10          7           0        0.478778   -0.256592    0.530255
     11          6           0        1.866194   -0.202540    0.345882
     12          6           0        2.550193   -0.578348   -0.786173
     13         16           0        4.257440   -0.262499   -0.640646
     14          6           0        4.047856    0.357384    0.965334
     15          6           0        2.740814    0.335552    1.353053
     16          1           0       -0.802790    1.779682    1.211857
     17          1           0       -2.471891    1.996289    1.800320
     18          1           0       -1.688899    3.277612    0.850447
     19          1           0       -3.286651    2.011783   -0.553531
     20          1           0       -0.350983    1.572333   -1.282354
     21          1           0       -1.711202    1.302706   -2.405582
     22          1           0       -1.400548    2.915911   -1.737529
     23          1           0       -4.702426    0.347281    0.231506
     24          1           0       -2.308857   -3.076212    0.288789
     25          1           0       -0.002003   -2.062721   -0.498206
     26          1           0       -0.110856   -0.574937   -1.430280
     27          1           0        0.215770   -0.491186    1.482324
     28          1           0        2.162339   -1.023463   -1.689674
     29          1           0        4.900515    0.713346    1.526988
     30          1           0        2.388768    0.695071    2.314404
 ---------------------------------------------------------------------

 SCF Done:  E(UB3LYP) =  -990.860529171     A.U. after   33 cycles
 SCF Done:  E(UB3LYP) =  -990.860529171     a.u. after    1 cycles

 The electronic state is 2-A.
 Alpha  occ. eigenvalues --  -88.78565 -14.27571 -14.23653 -14.20118 -10.12952
 Alpha  occ. eigenvalues --  -10.12797 -10.12670 -10.12604 -10.11320 -10.11265
 Alpha  occ. eigenvalues --  -10.09873 -10.09149 -10.08800 -10.06979 -10.06372
 Alpha  occ. eigenvalues --   -7.87163  -5.83462  -5.83097  -5.82745  -0.92502
 Alpha  occ. eigenvalues --   -0.85213  -0.79761  -0.78087  -0.69877  -0.67658
 Alpha  occ. eigenvalues --   -0.64308  -0.62798  -0.59893  -0.58648  -0.53754
 Alpha  occ. eigenvalues --   -0.50795  -0.49326  -0.46894  -0.45515  -0.43735
 Alpha  occ. eigenvalues --   -0.42672  -0.39321  -0.37227  -0.35982  -0.35680
 Alpha  occ. eigenvalues --   -0.34775  -0.34182  -0.32060  -0.31552  -0.31123
 Alpha  occ. eigenvalues --   -0.30461  -0.29651  -0.29429  -0.29130  -0.28225
 Alpha  occ. eigenvalues --   -0.26165  -0.26153  -0.25231  -0.21282  -0.18349
 Alpha  occ. eigenvalues --   -0.17924  -0.15773  -0.13987  -0.11928   0.04129
 Alpha virt. eigenvalues --    0.05965   0.06479   0.06990   0.07113   0.08044
 Alpha virt. eigenvalues --    0.08635   0.09125   0.09438   0.09729   0.10335
 Alpha virt. eigenvalues --    0.10688   0.11413   0.11644   0.12091   0.12482

  Beta  occ. eigenvalues --  -88.78562 -14.27570 -14.23637 -14.20119 -10.12933
  Beta  occ. eigenvalues --  -10.12787 -10.12655 -10.12606 -10.11318 -10.11249
  Beta  occ. eigenvalues --  -10.09852 -10.09143 -10.08778 -10.06941 -10.06336
  Beta  occ. eigenvalues --   -7.87161  -5.83459  -5.83095  -5.82741  -0.92493
  Beta  occ. eigenvalues --   -0.85190  -0.79748  -0.78063  -0.69849  -0.67631
  Beta  occ. eigenvalues --   -0.64273  -0.62770  -0.59824  -0.58610  -0.53703
  Beta  occ. eigenvalues --   -0.50778  -0.49289  -0.46851  -0.45477  -0.43693
  Beta  occ. eigenvalues --   -0.42635  -0.39280  -0.37191  -0.35946  -0.35631
  Beta  occ. eigenvalues --   -0.34746  -0.34149  -0.32033  -0.31535  -0.31092
  Beta  occ. eigenvalues --   -0.30432  -0.29611  -0.29402  -0.29092  -0.28185
  Beta  occ. eigenvalues --   -0.26139  -0.26110  -0.25178  -0.21259  -0.18344
  Beta  occ. eigenvalues --   -0.17915  -0.15730  -0.13976  -0.11899
  Beta virt. eigenvalues --    0.06317   0.06779   0.07142   0.07259   0.07726
  Beta virt. eigenvalues --    0.08364   0.09065   0.09617   0.09756   0.10227
  Beta virt. eigenvalues --    0.10503   0.10818   0.11529   0.12019   0.12336

 Mulliken charges and spin densities:
               1          2
     1  C    1.197067  -1.780198
     2  C   -2.055665   2.034149
     3  C    1.121247  -1.700965
     4  N    0.233416  -0.038278
     5  C    0.365276  -0.346021
     6  N   -0.126567  -0.001323
     7  C   -0.335303  -0.184309
     8  C    0.504319  -0.425470
     9  C    0.271944  -0.556007
    10  N    0.163575  -0.080549
    11  C    1.828359  -2.600384
    12  C   -0.095148   0.831622
    13  S   -0.199961  -0.271734
    14  C    0.992252  -1.302554
    15  C   -2.394278   2.269889
    16  H    0.197809  -0.009315
    17  H   -0.252396   0.398055
    18  H   -0.374758   0.518216
    19  H   -0.503300   0.691340
    20  H    0.241884  -0.058126
    21  H   -0.269193   0.432836
    22  H   -0.424563   0.590145
    23  H   -0.084379   0.233414
    24  H   -0.047534   0.181748
    25  H    0.029436   0.136508
    26  H    0.237324  -0.127549
    27  H    0.220337   0.039582
    28  H   -0.322993   0.591539
    29  H   -0.166470   0.412255
    30  H   -0.951733   1.121484
 Sum of Mulliken charges =  -1.00000   1.00000

 Dipole moment (field-independent basis, Debye):
    X=              3.3772    Y=             -4.0330    Z=             -1.3757  Tot=              5.4373
 Quadrupole moment (field-independent basis, Debye-Ang):
   XX=           -175.2334   YY=           -150.2292   ZZ=           -140.1675
   XY=              2.4695   XZ=             -4.4685   YZ=              1.1066

 Summary of Natural Population Analysis:

                                       Natural Population
                Natural  -----------------------------------------------
    Atom  No    Charge         Core      Valence    Rydberg      Total
 -----------------------------------------------------------------------
      C    1   -0.28918      0.99964     2.28345    0.00610     3.28918
      C    2   -0.00257      0.99960     1.99030    0.01267     3.00257
      C    3   -0.29150      0.99964     2.28527    0.00658     3.29150
      N    4   -0.20662      0.99962     2.69512    0.01188     3.70662
      C    5    0.11143      0.99963     1.87234    0.01660     2.88857
      N    6   -0.25989      0.99973     2.74901    0.01115     3.75989
      C    7   -0.02808      0.99951     2.01534    0.01323     3.02808
      C    8    0.05008      0.99950     1.93835    0.01207     2.94992
      C    9   -0.10354      0.99958     2.09378    0.01019     3.10354
      N   10   -0.31634      0.99968     2.80565    0.01101     3.81634
      C   11    0.05950      0.99945     1.92742    0.01362     2.94050
      C   12   -0.23069      0.99948     2.22204    0.00917     3.23069
      S   13    0.19140      4.99947     2.78653    0.02260     7.80860
      C   14   -0.18780      0.99955     2.17591    0.01234     3.18780
      C   15   -0.12970      0.99949     2.11886    0.01135     3.12970
      H   16    0.10752      0.00000     0.39057    0.00191     0.39248
      H   17    0.10081      0.00000     0.39776    0.00143     0.39919
      H   18    0.10411      0.00000     0.39442    0.00148     0.39589
      H   19    0.09878      0.00000     0.39820    0.00302     0.40122
      H   20    0.10375      0.00000     0.39437    0.00187     0.39625
      H   21    0.10236      0.00000     0.39631    0.00133     0.39764
      H   22    0.10815      0.00000     0.39045    0.00140     0.39185
      H   23    0.09326      0.00000     0.40525    0.00149     0.40674
      H   24    0.09566      0.00000     0.40319    0.00116     0.40434
      H   25    0.09610      0.00000     0.40237    0.00153     0.40390
      H   26    0.10198      0.00000     0.39534    0.00268     0.39802
      H   27    0.18656      0.00000     0.31023    0.00322     0.31344
      H   28    0.11256      0.00000     0.38618    0.00126     0.38744
      H   29    0.11037      0.00000     0.38866    0.00097     0.38963
      H   30    0.11153      0.00000     0.38636    0.00211     0.38847
 =======================================================================
   * Total *   -0.00000     18.99356    39.79904    0.20740    59.00000

 Normal termination of Gaussian 16 at Thu Dec 10 18:22:19 2020.
