 Gaussian 16, Revision A.03,

 -----------------------------------------------------------
 # opt freq B3LYP/6-31G(d) empiricaldispersion=gd3bj scf=xqc
 -----------------------------------------------------------

 ------------------------------
 CID_45083020_JID_1882_neutraal
 ------------------------------
 Symbolic Z-matrix:
 Charge =  0 Multiplicity = 1

 SCF Done:  E(RB3LYP) =  -516.695717467     A.U. after   14 cycles
 SCF Done:  E(RB3LYP) =  -516.698805029     A.U. after   12 cycles
 SCF Done:  E(RB3LYP) =  -516.699547024     A.U. after   11 cycles
 SCF Done:  E(RB3LYP) =  -516.700064471     A.U. after   12 cycles
 SCF Done:  E(RB3LYP) =  -516.700151754     A.U. after   11 cycles
 SCF Done:  E(RB3LYP) =  -516.700355198     A.U. after   11 cycles
 SCF Done:  E(RB3LYP) =  -516.700396421     A.U. after   10 cycles
 SCF Done:  E(RB3LYP) =  -516.700401862     A.U. after    9 cycles
 SCF Done:  E(RB3LYP) =  -516.700403069     A.U. after    8 cycles
 SCF Done:  E(RB3LYP) =  -516.700403287     A.U. after    7 cycles
 SCF Done:  E(RB3LYP) =  -516.700403541     A.U. after    8 cycles
 SCF Done:  E(RB3LYP) =  -516.700403670     A.U. after    7 cycles
 SCF Done:  E(RB3LYP) =  -516.700403773     A.U. after    7 cycles
 Optimization completed.
    -- Stationary point found.
 Normal termination of Gaussian 16 at Tue Dec  8 21:24:21 2020.

 --------------------------------------------------------------------
 #N Geom=AllCheck Guess=TCheck SCRF=Check GenChk RB3LYP/6-31G(d) Freq
 --------------------------------------------------------------------

 Structure from the checkpoint file:  "JID_1882.chk"
 ------------------------------
 CID_45083020_JID_1882_neutraal
 ------------------------------
 Charge =  0 Multiplicity = 1

 SCF Done:  E(RB3LYP) =  -516.700403773     A.U. after    1 cycles

  Exact polarizability: 130.583   1.870 100.608  -5.630   1.582  56.891
 Approx polarizability: 191.028   7.181 165.429  -8.902   3.588  85.489

                      1                      2                      3
                      A                      A                      A
 Frequencies --     82.8277                92.5332               121.5774
 Red. masses --      4.3001                 3.2377                 1.1032
 Frc consts  --      0.0174                 0.0163                 0.0096
 IR Inten    --      0.8733                 0.9039                 0.9202

                      4                      5                      6
                      A                      A                      A
 Frequencies --    143.7343               168.4838               220.0172
 Red. masses --      1.0962                 2.8420                 3.5012
 Frc consts  --      0.0133                 0.0475                 0.0999
 IR Inten    --      2.1042                 0.0793                 0.5932

                      7                      8                      9
                      A                      A                      A
 Frequencies --    274.3958               288.6373               306.9306
 Red. masses --      2.1017                 2.5681                 2.0949
 Frc consts  --      0.0932                 0.1261                 0.1163
 IR Inten    --     17.0675                 0.1466                28.3941

                     10                     11                     12
                      A                      A                      A
 Frequencies --    320.3155               326.5700               368.6707
 Red. masses --      1.3679                 3.4088                 1.4409
 Frc consts  --      0.0827                 0.2142                 0.1154
 IR Inten    --     93.7882                 7.4334               116.2707

                     13                     14                     15
                      A                      A                      A
 Frequencies --    415.0725               464.1833               491.8635
 Red. masses --      4.3638                 4.6962                 5.1274
 Frc consts  --      0.4430                 0.5962                 0.7309
 IR Inten    --      2.1005                 4.6452                 4.8041

                     16                     17                     18
                      A                      A                      A
 Frequencies --    533.7090               573.9853               653.3666
 Red. masses --      3.7837                 3.5382                 4.8220
 Frc consts  --      0.6350                 0.6868                 1.2128
 IR Inten    --      2.7682                16.5959                 0.8159

                     19                     20                     21
                      A                      A                      A
 Frequencies --    710.6610               742.2512               766.1185
 Red. masses --      4.7119                 6.0862                 4.6392
 Frc consts  --      1.4021                 1.9756                 1.6043
 IR Inten    --      5.0367                 4.1306                14.6972

                     22                     23                     24
                      A                      A                      A
 Frequencies --    831.3845               913.5944               982.8826
 Red. masses --      3.2595                 1.4242                 1.6470
 Frc consts  --      1.3274                 0.7004                 0.9375
 IR Inten    --      8.6302                19.6123                51.0744

                     25                     26                     27
                      A                      A                      A
 Frequencies --    996.6235              1041.3310              1059.9376
 Red. masses --      1.4500                 3.6303                 1.7728
 Frc consts  --      0.8486                 2.3194                 1.1734
 IR Inten    --      8.6388                35.3658                11.1253

                     28                     29                     30
                      A                      A                      A
 Frequencies --   1063.5572              1077.5546              1136.8096
 Red. masses --      1.7588                 1.5559                 4.7641
 Frc consts  --      1.1721                 1.0644                 3.6275
 IR Inten    --     23.3850                 6.0079                 6.2900

                     31                     32                     33
                      A                      A                      A
 Frequencies --   1190.6245              1204.4233              1255.1465
 Red. masses --      1.5492                 1.2236                 1.8834
 Frc consts  --      1.2939                 1.0458                 1.7481
 IR Inten    --     45.9152                12.7242                15.7502

                     34                     35                     36
                      A                      A                      A
 Frequencies --   1278.4662              1334.0148              1355.0478
 Red. masses --      2.5208                 4.3287                 2.8341
 Frc consts  --      2.4276                 4.5387                 3.0660
 IR Inten    --    136.1768                65.3269                 3.2231

                     37                     38                     39
                      A                      A                      A
 Frequencies --   1379.6868              1421.6585              1430.1800
 Red. masses --      1.3542                 1.3948                 1.2876
 Frc consts  --      1.5187                 1.6610                 1.5517
 IR Inten    --      4.2886                 2.9430                14.8723

                     40                     41                     42
                      A                      A                      A
 Frequencies --   1440.7050              1472.5602              1498.4276
 Red. masses --      1.2499                 2.5146                 4.3664
 Frc consts  --      1.5286                 3.2127                 5.7762
 IR Inten    --     61.3977                30.0639               180.5006

                     43                     44                     45
                      A                      A                      A
 Frequencies --   1512.8774              1518.2716              1520.4650
 Red. masses --      1.0664                 1.0692                 1.0439
 Frc consts  --      1.4381                 1.4521                 1.4218
 IR Inten    --      9.1008                 0.5299                 8.1163

                     46                     47                     48
                      A                      A                      A
 Frequencies --   1532.6683              1538.7307              1629.6014
 Red. masses --      1.2738                 1.0987                 6.4040
 Frc consts  --      1.7629                 1.5326                10.0199
 IR Inten    --     16.0873                 3.5785                26.3506

                     49                     50                     51
                      A                      A                      A
 Frequencies --   1670.3172              3011.8414              3021.7746
 Red. masses --      6.5615                 1.0709                 1.0422
 Frc consts  --     10.7858                 5.7234                 5.6069
 IR Inten    --      6.0486                68.0905                28.7634

                     52                     53                     54
                      A                      A                      A
 Frequencies --   3041.4458              3066.8287              3100.5828
 Red. masses --      1.0490                 1.1009                 1.0934
 Frc consts  --      5.7171                 6.1005                 6.1934
 IR Inten    --     22.5378                22.7702                24.5488

                     55                     56                     57
                      A                      A                      A
 Frequencies --   3115.6082              3161.5504              3164.7659
 Red. masses --      1.0855                 1.0951                 1.1037
 Frc consts  --      6.2084                 6.4489                 6.5128
 IR Inten    --     10.1916                 2.9353                 6.0557

                     58                     59                     60
                      A                      A                      A
 Frequencies --   3196.6057              3736.1875              3762.3244
 Red. masses --      1.0910                 1.0662                 1.0654
 Frc consts  --      6.5684                 8.7691                 8.8856
 IR Inten    --      7.9442                11.8636                53.3161

 - Thermochemistry -
 -------------------
 Temperature   298.150 Kelvin.  Pressure   1.00000 Atm.
 Atom     1 has atomic number  6 and mass  12.00000

 Molecular mass:   153.07898 amu.
 Principal axes and moments of inertia in atomic units:
                           1         2         3
     Eigenvalues --   929.931352298.623153071.30752
           X            0.99992  -0.00916  -0.00888
           Y            0.00917   0.99996   0.00180
           Z            0.00886  -0.00189   0.99996
 This molecule is an asymmetric top.
 Rotational symmetry number  1.
 Warning -- assumption of classical behavior for rotation
           may cause significant error
 Rotational temperatures (Kelvin)      0.09314     0.03768     0.02820
 Rotational constants (GHZ):           1.94073     0.78514     0.58761
 Zero-point vibrational energy     476909.1 (Joules/Mol)
                                  113.98400 (Kcal/Mol)
 Warning -- explicit consideration of  17 degrees of freedom as
           vibrations may cause significant error
 Vibrational temperatures:    119.17   133.13   174.92   206.80   242.41
          (Kelvin)            316.56   394.79   415.28   441.60   460.86
                              469.86   530.43   597.20   667.86   707.68
                              767.89   825.84   940.05  1022.48  1067.93
                             1102.27  1196.18  1314.46  1414.15  1433.92
                             1498.24  1525.01  1530.22  1550.36  1635.62
                             1713.04  1732.90  1805.88  1839.43  1919.35
                             1949.61  1985.06  2045.45  2057.71  2072.85
                             2118.69  2155.90  2176.69  2184.45  2187.61
                             2205.17  2213.89  2344.63  2403.21  4333.37
                             4347.66  4375.96  4412.48  4461.05  4482.67
                             4548.77  4553.39  4599.20  5375.54  5413.15

 Zero-point correction=                           0.181645 (Hartree/Particle)
 Thermal correction to Energy=                    0.192968
 Thermal correction to Enthalpy=                  0.193912
 Thermal correction to Gibbs Free Energy=         0.145068
 Sum of electronic and zero-point Energies=           -516.518759
 Sum of electronic and thermal Energies=              -516.507436
 Sum of electronic and thermal Enthalpies=            -516.506492
 Sum of electronic and thermal Free Energies=         -516.555335

                     E (Thermal)             CV                S
                      KCal/Mol        Cal/Mol-Kelvin    Cal/Mol-Kelvin
 Total                  121.089             42.127            102.799
 Electronic               0.000              0.000              0.000
 Translational            0.889              2.981             40.987
 Rotational               0.889              2.981             30.263
 Vibrational            119.312             36.165             31.549
 Vibration     1          0.600              1.961              3.823
 Vibration     2          0.602              1.955              3.606
 Vibration     3          0.609              1.931              3.075
 Vibration     4          0.616              1.909              2.754
 Vibration     5          0.625              1.881              2.452
 Vibration     6          0.647              1.811              1.959
 Vibration     7          0.677              1.721              1.568
 Vibration     8          0.685              1.695              1.482
 Vibration     9          0.697              1.661              1.379
 Vibration    10          0.706              1.635              1.308
 Vibration    11          0.710              1.622              1.277
 Vibration    12          0.741              1.537              1.085
 Vibration    13          0.778              1.438              0.909
 Vibration    14          0.822              1.330              0.754
 Vibration    15          0.848              1.268              0.679
 Vibration    16          0.889              1.175              0.579
 Vibration    17          0.930              1.088              0.497

 Optimization completed.
    -- Stationary point found.
 Normal termination of Gaussian 16 at Tue Dec  8 21:29:53 2020.

 ----------------------------------------------------------------------
 # B3LYP/6-311++G(d,p) empiricaldispersion=gd3bj scf=xqc pop=npa geom=c
 heck
 ----------------------------------------------------------------------

 --------------------------------------
 CID_45083020_JID_1882_Energie_neutraal
 --------------------------------------
 Structure from the checkpoint file:  "JID_1882.chk"
 Charge =  0 Multiplicity = 1

 SCF Done:  E(RB3LYP) =  -516.860575047     A.U. after   15 cycles
 Normal termination of Gaussian 16 at Tue Dec  8 21:31:25 2020.

 ----------------------------------------------------------------------
 # B3LYP/6-311++G(d,p) empiricaldispersion=gd3bj scf=xqc pop=npa geom=c
 heck
 ----------------------------------------------------------------------

 ------------------------------------
 CID_45083020_JID_1882_Energie_kation
 ------------------------------------
 Structure from the checkpoint file:  "JID_1882.chk"
 Charge =  1 Multiplicity = 2

 SCF Done:  E(UB3LYP) =  -516.555774485     A.U. after   22 cycles
 Normal termination of Gaussian 16 at Tue Dec  8 21:35:19 2020.
 Gaussian 16:  ES64L-G16RevA.03 25-Dec-2016

 ----------------------------------------------------------------------
 # B3LYP/6-311++G(d,p) empiricaldispersion=gd3bj scf=xqc pop=npa geom=c
 heck
 ----------------------------------------------------------------------

 -----------------------------------
 CID_45083020_JID_1882_Energie_anion
 -----------------------------------
 Structure from the checkpoint file:  "JID_1882.chk"
 Charge = -1 Multiplicity = 2

                         Standard orientation:
 ---------------------------------------------------------------------
 Center     Atomic      Atomic             Coordinates (Angstroms)
 Number     Number       Type             X           Y           Z
 ---------------------------------------------------------------------
      1          6           0       -3.002080    1.093902    0.240924
      2          6           0       -1.614739    0.529944    0.061344
      3          6           0       -1.407840   -0.852042   -0.054092
      4          6           0       -0.106745   -1.322557   -0.215899
      5          6           0        0.951729   -0.419341   -0.263746
      6          6           0        0.660004    0.955678   -0.141109
      7          7           0       -0.593955    1.396833    0.016686
      8          6           0        1.745600    2.000557   -0.193463
      9          6           0        2.370948   -0.917322   -0.402966
     10          8           0        3.159350   -0.687512    0.766573
     11          8           0       -2.424253   -1.766516   -0.011641
     12          1           0       -3.661113    0.844433   -0.603064
     13          1           0       -2.935745    2.181118    0.307487
     14          1           0       -3.481653    0.725299    1.159051
     15          1           0        0.061618   -2.392464   -0.305782
     16          1           0        2.568634    1.747930    0.480891
     17          1           0        2.169144    2.080327   -1.204198
     18          1           0        1.325691    2.971403    0.076629
     19          1           0        2.360561   -1.986286   -0.665069
     20          1           0        2.894405   -0.388134   -1.205293
     21          1           0        2.659666   -1.043902    1.518036
     22          1           0       -3.265567   -1.298250    0.099089
 ---------------------------------------------------------------------

 SCF Done:  E(UB3LYP) =  -516.848268772     A.U. after   33 cycles
 SCF Done:  E(UB3LYP) =  -516.848268772     a.u. after    1 cycles

 The electronic state is 2-A.
 Alpha  occ. eigenvalues --  -19.04529 -19.02293 -14.19429 -10.12537 -10.12045
 Alpha  occ. eigenvalues --  -10.09885 -10.09707 -10.07341 -10.07162 -10.05811
 Alpha  occ. eigenvalues --  -10.05791  -0.95589  -0.92312  -0.83255  -0.70316
 Alpha  occ. eigenvalues --   -0.68108  -0.62198  -0.60438  -0.55145  -0.51018
 Alpha  occ. eigenvalues --   -0.49313  -0.44476  -0.42220  -0.36954  -0.36077
 Alpha  occ. eigenvalues --   -0.34477  -0.33344  -0.32983  -0.31154  -0.31074
 Alpha  occ. eigenvalues --   -0.29072  -0.28466  -0.27677  -0.26973  -0.26819
 Alpha  occ. eigenvalues --   -0.24006  -0.23421  -0.18723  -0.16753  -0.14673
 Alpha  occ. eigenvalues --   -0.11747   0.04733
 Alpha virt. eigenvalues --    0.06655   0.07807   0.08236   0.08443   0.09860
 Alpha virt. eigenvalues --    0.10038   0.10533   0.10931   0.11876   0.12818
 Alpha virt. eigenvalues --    0.13062   0.13503   0.15089   0.15422   0.16851

  Beta  occ. eigenvalues --  -19.04488 -19.02247 -14.19397 -10.12552 -10.12029
  Beta  occ. eigenvalues --  -10.09886 -10.09635 -10.07307 -10.07094 -10.05784
  Beta  occ. eigenvalues --  -10.05755  -0.95512  -0.92204  -0.83181  -0.70205
  Beta  occ. eigenvalues --   -0.68018  -0.62093  -0.60382  -0.55065  -0.50911
  Beta  occ. eigenvalues --   -0.49232  -0.44392  -0.42155  -0.36857  -0.36005
  Beta  occ. eigenvalues --   -0.34382  -0.33287  -0.32865  -0.31109  -0.31028
  Beta  occ. eigenvalues --   -0.29022  -0.28393  -0.27636  -0.26915  -0.26757
  Beta  occ. eigenvalues --   -0.23908  -0.23354  -0.18643  -0.16473  -0.14581
  Beta  occ. eigenvalues --   -0.11555
  Beta virt. eigenvalues --    0.07148   0.07988   0.08311   0.08472   0.08761
  Beta virt. eigenvalues --    0.10196   0.10690   0.10824   0.11698   0.12307
  Beta virt. eigenvalues --    0.13030   0.13273   0.13677   0.15317   0.15652

 Mulliken charges and spin densities:
               1          2
     1  C    4.404493  -4.912903
     2  C   -2.042637   2.398906
     3  C   -2.318263   1.778797
     4  C    2.538001  -3.061691
     5  C    0.603696   1.197165
     6  C   -2.641532   1.483303
     7  N   -0.019668   0.123113
     8  C   -0.440877  -0.047023
     9  C    1.481612  -2.045096
    10  O   -0.258455   0.033014
    11  O   -0.262994   0.017892
    12  H   -0.556125   0.729017
    13  H   -0.092967   0.260668
    14  H   -0.393061   0.555396
    15  H   -0.369893   0.539980
    16  H    0.124340   0.044637
    17  H    0.061840   0.077221
    18  H    0.078234   0.079597
    19  H   -0.168454   0.331003
    20  H   -0.012041   0.171526
    21  H   -0.054084   0.291072
    22  H   -0.661166   0.954407
 Sum of Mulliken charges =  -1.00000   1.00000

 Dipole moment (field-independent basis, Debye):
    X=              5.3560    Y=              1.7002    Z=             -0.8472  Tot=              5.6829
 Quadrupole moment (field-independent basis, Debye-Ang):
   XX=           -144.0458   YY=            -98.5713   ZZ=            -88.2475
   XY=              0.7795   XZ=             -4.6556   YZ=              0.2362

 Summary of Natural Population Analysis:

                                       Natural Population
                Natural  -----------------------------------------------
    Atom  No    Charge         Core      Valence    Rydberg      Total
 -----------------------------------------------------------------------
      C    1   -0.31118      0.99964     2.30412    0.00742     3.31118
      C    2    0.08960      0.99950     1.89649    0.01441     2.91040
      C    3    0.13767      0.99932     1.84859    0.01442     2.86233
      C    4   -0.08955      0.99948     2.08009    0.00998     3.08955
      C    5   -0.05100      0.99946     2.04168    0.00986     3.05100
      C    6    0.10499      0.99951     1.88293    0.01258     2.89501
      N    7   -0.23829      0.99966     2.72769    0.01094     3.73829
      C    8   -0.30300      0.99963     2.29861    0.00476     3.30300
      C    9   -0.01817      0.99956     2.00454    0.01407     3.01817
      O   10   -0.36774      0.99990     3.36101    0.00683     4.36774
      O   11   -0.34177      0.99988     3.33474    0.00716     4.34177
      H   12    0.10816      0.00000     0.38732    0.00452     0.39184
      H   13    0.11301      0.00000     0.38529    0.00170     0.38699
      H   14    0.10387      0.00000     0.39447    0.00166     0.39613
      H   15    0.10376      0.00000     0.39495    0.00130     0.39624
      H   16    0.11131      0.00000     0.38730    0.00139     0.38869
      H   17    0.09843      0.00000     0.40027    0.00130     0.40157
      H   18    0.10673      0.00000     0.39202    0.00124     0.39327
      H   19    0.08000      0.00000     0.41837    0.00163     0.42000
      H   20    0.08918      0.00000     0.40930    0.00153     0.41082
      H   21    0.22977      0.00000     0.26531    0.00493     0.27023
      H   22    0.24425      0.00000     0.24248    0.01328     0.25575
 =======================================================================
   * Total *   -0.00000     10.99554    29.85755    0.14690    41.00000

 Normal termination of Gaussian 16 at Tue Dec  8 21:42:37 2020.
