 Gaussian 16, Revision A.03,

 -----------------------------------------------------------
 # opt freq B3LYP/6-31G(d) empiricaldispersion=gd3bj scf=xqc
 -----------------------------------------------------------

 -------------------------------
 CID_150640545_JID_6191_neutraal
 -------------------------------
 Symbolic Z-matrix:
 Charge =  0 Multiplicity = 1

 SCF Done:  E(RB3LYP) =  -778.904920413     A.U. after   14 cycles
 SCF Done:  E(RB3LYP) =  -778.911148457     A.U. after   12 cycles
 SCF Done:  E(RB3LYP) =  -778.911463673     A.U. after   12 cycles
 SCF Done:  E(RB3LYP) =  -778.912582524     A.U. after   12 cycles
 SCF Done:  E(RB3LYP) =  -778.913201772     A.U. after   12 cycles
 SCF Done:  E(RB3LYP) =  -778.913008404     A.U. after   12 cycles
 SCF Done:  E(RB3LYP) =  -778.913487211     A.U. after   12 cycles
 SCF Done:  E(RB3LYP) =  -778.913748447     A.U. after   11 cycles
 SCF Done:  E(RB3LYP) =  -778.913884246     A.U. after   11 cycles
 SCF Done:  E(RB3LYP) =  -778.913946157     A.U. after   11 cycles
 SCF Done:  E(RB3LYP) =  -778.914198021     A.U. after    9 cycles
 SCF Done:  E(RB3LYP) =  -778.914198605     A.U. after    9 cycles
 SCF Done:  E(RB3LYP) =  -778.914199034     A.U. after    9 cycles
 SCF Done:  E(RB3LYP) =  -778.914199173     A.U. after    8 cycles
 SCF Done:  E(RB3LYP) =  -778.914199209     A.U. after    7 cycles
 Optimization completed.
    -- Stationary point found.
 Normal termination of Gaussian 16 at Thu Dec 10 21:26:50 2020.

 --------------------------------------------------------------------
 #N Geom=AllCheck Guess=TCheck SCRF=Check GenChk RB3LYP/6-31G(d) Freq
 --------------------------------------------------------------------

 Structure from the checkpoint file:  "JID_6191.chk"
 -------------------------------
 CID_150640545_JID_6191_neutraal
 -------------------------------
 Charge =  0 Multiplicity = 1

 SCF Done:  E(RB3LYP) =  -778.914199209     A.U. after    1 cycles

  Exact polarizability: 144.957  -1.207 166.134  -1.090  -7.607  78.867
 Approx polarizability: 213.958   6.264 253.897  -0.230 -24.739 123.673

                      1                      2                      3
                      A                      A                      A
 Frequencies --     17.2438                49.2751                50.5175
 Red. masses --      4.1574                 4.6986                 7.1247
 Frc consts  --      0.0007                 0.0067                 0.0107
 IR Inten    --      1.4856                 1.5619                 2.7815

                      4                      5                      6
                      A                      A                      A
 Frequencies --     61.5188                78.6784                95.3213
 Red. masses --      5.1908                 5.5173                 5.0165
 Frc consts  --      0.0116                 0.0201                 0.0269
 IR Inten    --      1.0445                 3.6108                 0.5435

                      7                      8                      9
                      A                      A                      A
 Frequencies --    138.1257               165.3084               183.5842
 Red. masses --      1.5066                 2.2547                 4.0899
 Frc consts  --      0.0169                 0.0363                 0.0812
 IR Inten    --      4.2129                 5.1250                 3.6517

                     10                     11                     12
                      A                      A                      A
 Frequencies --    208.4398               256.3950               286.0087
 Red. masses --      4.5200                 2.8225                 4.3229
 Frc consts  --      0.1157                 0.1093                 0.2083
 IR Inten    --      1.5754                 4.3644                 6.0112

                     13                     14                     15
                      A                      A                      A
 Frequencies --    325.5844               367.3161               382.4876
 Red. masses --      3.7691                 5.3888                 6.1164
 Frc consts  --      0.2354                 0.4284                 0.5272
 IR Inten    --      6.7504                 2.5526                 2.1253

                     16                     17                     18
                      A                      A                      A
 Frequencies --    391.6012               437.3917               490.5184
 Red. masses --      4.7989                 2.1472                 1.3491
 Frc consts  --      0.4336                 0.2420                 0.1912
 IR Inten    --      6.5129                50.3225                60.8296

                     19                     20                     21
                      A                      A                      A
 Frequencies --    503.7798               509.2650               539.5997
 Red. masses --      1.2600                 1.2844                 2.7774
 Frc consts  --      0.1884                 0.1963                 0.4765
 IR Inten    --     84.5757               102.2242                33.6802

                     22                     23                     24
                      A                      A                      A
 Frequencies --    562.8990               573.4610               589.5813
 Red. masses --      1.2870                 3.6136                 3.1950
 Frc consts  --      0.2403                 0.7002                 0.6543
 IR Inten    --    141.7925                12.6948                22.1960

                     25                     26                     27
                      A                      A                      A
 Frequencies --    646.9888               658.6660               666.1349
 Red. masses --      3.9667                 4.1186                 5.2503
 Frc consts  --      0.9783                 1.0528                 1.3726
 IR Inten    --     21.8943                 5.9197                 7.7526

                     28                     29                     30
                      A                      A                      A
 Frequencies --    716.8650               754.3758               764.3221
 Red. masses --      2.4170                 8.1320                11.5383
 Frc consts  --      0.7318                 2.7266                 3.9714
 IR Inten    --      9.3911                48.4963                39.9525

                     31                     32                     33
                      A                      A                      A
 Frequencies --    780.3408               797.9733               871.6679
 Red. masses --      3.5927                 1.7298                 4.8480
 Frc consts  --      1.2890                 0.6490                 2.1703
 IR Inten    --     23.0448                18.6759                 6.1974

                     34                     35                     36
                      A                      A                      A
 Frequencies --    885.9669               912.4322               949.6134
 Red. masses --      1.3488                 1.3847                 4.5757
 Frc consts  --      0.6238                 0.6792                 2.4311
 IR Inten    --      0.2460                 4.9585                 6.0540

                     37                     38                     39
                      A                      A                      A
 Frequencies --    970.2151               987.7616              1021.2091
 Red. masses --      1.2778                 2.0839                 5.8940
 Frc consts  --      0.7087                 1.1979                 3.6215
 IR Inten    --      0.0076                15.4444                 0.2858

                     40                     41                     42
                      A                      A                      A
 Frequencies --   1026.8182              1106.9193              1120.2623
 Red. masses --      2.9793                 4.6478                 1.7905
 Frc consts  --      1.8508                 3.3553                 1.3239
 IR Inten    --      9.4227                65.0586                14.0679

                     43                     44                     45
                      A                      A                      A
 Frequencies --   1133.8163              1153.0925              1192.6714
 Red. masses --      1.6819                 2.6766                 1.2673
 Frc consts  --      1.2739                 2.0968                 1.0621
 IR Inten    --     26.8294                67.4377                 0.5551

                     46                     47                     48
                      A                      A                      A
 Frequencies --   1198.1235              1205.6022              1222.8616
 Red. masses --      1.8921                 1.1297                 1.4881
 Frc consts  --      1.6003                 0.9674                 1.3111
 IR Inten    --     14.6780                 4.2889                35.0647

                     49                     50                     51
                      A                      A                      A
 Frequencies --   1287.7063              1298.5343              1327.2937
 Red. masses --      1.8387                 1.6408                 1.6464
 Frc consts  --      1.7964                 1.6301                 1.7089
 IR Inten    --     55.0834                48.9271                 8.8176

                     52                     53                     54
                      A                      A                      A
 Frequencies --   1363.9683              1371.6728              1417.8903
 Red. masses --      1.9834                 2.9038                 2.1784
 Frc consts  --      2.1741                 3.2190                 2.5803
 IR Inten    --     69.9331                48.1127               271.8092

                     55                     56                     57
                      A                      A                      A
 Frequencies --   1421.0372              1465.4972              1488.2827
 Red. masses --      2.6218                 1.9060                 1.2906
 Frc consts  --      3.1193                 2.4119                 1.6843
 IR Inten    --    234.3377                 8.6496                 1.6876

                     58                     59                     60
                      A                      A                      A
 Frequencies --   1497.1650              1512.9362              1514.8251
 Red. masses --      1.2475                 1.1765                 1.9013
 Frc consts  --      1.6476                 1.5867                 2.5706
 IR Inten    --     14.4725                44.2502                27.0120

                     61                     62                     63
                      A                      A                      A
 Frequencies --   1518.0424              1529.6043              1554.2555
 Red. masses --      1.3482                 1.0732                 2.4769
 Frc consts  --      1.8306                 1.4794                 3.5254
 IR Inten    --     42.4844                 7.0428                51.1860

                     64                     65                     66
                      A                      A                      A
 Frequencies --   1648.5596              1652.1136              1671.8828
 Red. masses --      2.1572                 1.9145                 5.1703
 Frc consts  --      3.4542                 3.0788                 8.5149
 IR Inten    --    166.4349                52.4668                74.5391

                     67                     68                     69
                      A                      A                      A
 Frequencies --   1820.3334              1837.6209              3071.7309
 Red. masses --      6.6849                 8.9583                 1.0618
 Frc consts  --     13.0510                17.8232                 5.9027
 IR Inten    --    527.4188               494.1251                27.9835

                     70                     71                     72
                      A                      A                      A
 Frequencies --   3075.6610              3115.1707              3154.8478
 Red. masses --      1.0288                 1.1027                 1.1076
 Frc consts  --      5.7342                 6.3048                 6.4950
 IR Inten    --     30.8585                 7.7685                20.5488

                     73                     74                     75
                      A                      A                      A
 Frequencies --   3173.9269              3181.2095              3189.8937
 Red. masses --      1.1079                 1.0865                 1.0903
 Frc consts  --      6.5758                 6.4781                 6.5368
 IR Inten    --     17.3106                 1.6865                19.2007

                     76                     77                     78
                      A                      A                      A
 Frequencies --   3207.1913              3250.6229              3566.8425
 Red. masses --      1.0964                 1.0894                 1.0476
 Frc consts  --      6.6447                 6.7825                 7.8523
 IR Inten    --     23.1847                 0.5622                14.2156

                     79                     80                     81
                      A                      A                      A
 Frequencies --   3619.0563              3635.8307              3685.6553
 Red. masses --      1.0761                 1.0768                 1.1009
 Frc consts  --      8.3040                 8.3864                 8.8108
 IR Inten    --     38.4082                38.4364                49.3356

 - Thermochemistry -
 -------------------
 Temperature   298.150 Kelvin.  Pressure   1.00000 Atm.
 Atom     1 has atomic number  6 and mass  12.00000

 Molecular mass:   223.09569 amu.
 Principal axes and moments of inertia in atomic units:
                           1         2         3
     Eigenvalues --  3002.378154174.683896503.47543
           X            0.99882  -0.04804  -0.00752
           Y            0.04813   0.99877   0.01163
           Z            0.00695  -0.01198   0.99990
 This molecule is an asymmetric top.
 Rotational symmetry number  1.
 Warning -- assumption of classical behavior for rotation
           may cause significant error
 Rotational temperatures (Kelvin)      0.02885     0.02075     0.01332
 Rotational constants (GHZ):           0.60110     0.43231     0.27750
 Zero-point vibrational energy     616887.1 (Joules/Mol)
                                  147.43955 (Kcal/Mol)
 Warning -- explicit consideration of  24 degrees of freedom as
           vibrations may cause significant error
 Vibrational temperatures:     24.81    70.90    72.68    88.51   113.20
          (Kelvin)            137.15   198.73   237.84   264.14   299.90
                              368.90   411.50   468.44   528.49   550.31
                              563.43   629.31   705.75   724.83   732.72
                              776.36   809.89   825.08   848.28   930.87
                              947.67   958.42  1031.41  1085.38  1099.69
                             1122.74  1148.11  1254.14  1274.71  1312.79
                             1366.28  1395.92  1421.17  1469.29  1477.36
                             1592.61  1611.81  1631.31  1659.04  1715.99
                             1723.83  1734.59  1759.43  1852.72  1868.30
                             1909.68  1962.45  1973.53  2040.03  2044.56
                             2108.52  2141.31  2154.09  2176.78  2179.50
                             2184.12  2200.76  2236.23  2371.91  2377.02
                             2405.47  2619.05  2643.93  4419.54  4425.19
                             4482.04  4539.12  4566.57  4577.05  4589.55
                             4614.43  4676.92  5131.89  5207.01  5231.15
                             5302.84

 Zero-point correction=                           0.234960 (Hartree/Particle)
 Thermal correction to Energy=                    0.250542
 Thermal correction to Enthalpy=                  0.251486
 Thermal correction to Gibbs Free Energy=         0.190055
 Sum of electronic and zero-point Energies=           -778.679239
 Sum of electronic and thermal Energies=              -778.663658
 Sum of electronic and thermal Enthalpies=            -778.662713
 Sum of electronic and thermal Free Energies=         -778.724145

                     E (Thermal)             CV                S
                      KCal/Mol        Cal/Mol-Kelvin    Cal/Mol-Kelvin
 Total                  157.217             57.701            129.293
 Electronic               0.000              0.000              0.000
 Translational            0.889              2.981             42.110
 Rotational               0.889              2.981             32.766
 Vibrational            155.440             51.740             54.417
 Vibration     1          0.593              1.986              6.929
 Vibration     2          0.595              1.978              4.846
 Vibration     3          0.595              1.977              4.797
 Vibration     4          0.597              1.973              4.408
 Vibration     5          0.600              1.964              3.924
 Vibration     6          0.603              1.953              3.548
 Vibration     7          0.614              1.915              2.830
 Vibration     8          0.624              1.885              2.488
 Vibration     9          0.631              1.862              2.292
 Vibration    10          0.642              1.828              2.057
 Vibration    11          0.666              1.752              1.686
 Vibration    12          0.684              1.700              1.497
 Vibration    13          0.710              1.624              1.282
 Vibration    14          0.740              1.539              1.091
 Vibration    15          0.752              1.508              1.029
 Vibration    16          0.759              1.488              0.994
 Vibration    17          0.798              1.389              0.835
 Vibration    18          0.846              1.271              0.682
 Vibration    19          0.859              1.242              0.649
 Vibration    20          0.864              1.229              0.635
 Vibration    21          0.895              1.162              0.566
 Vibration    22          0.919              1.112              0.518
 Vibration    23          0.930              1.089              0.498
 Vibration    24          0.947              1.054              0.468

 Optimization completed.
    -- Stationary point found.
 Normal termination of Gaussian 16 at Thu Dec 10 21:36:48 2020.

 ----------------------------------------------------------------------
 # B3LYP/6-311++G(d,p) empiricaldispersion=gd3bj scf=xqc pop=npa geom=c
 heck
 ----------------------------------------------------------------------

 ---------------------------------------
 CID_150640545_JID_6191_Energie_neutraal
 ---------------------------------------
 Structure from the checkpoint file:  "JID_6191.chk"
 Charge =  0 Multiplicity = 1

 SCF Done:  E(RB3LYP) =  -779.151951647     A.U. after   16 cycles
 Normal termination of Gaussian 16 at Thu Dec 10 21:41:31 2020.

 ----------------------------------------------------------------------
 # B3LYP/6-311++G(d,p) empiricaldispersion=gd3bj scf=xqc pop=npa geom=c
 heck
 ----------------------------------------------------------------------

 -------------------------------------
 CID_150640545_JID_6191_Energie_kation
 -------------------------------------
 Structure from the checkpoint file:  "JID_6191.chk"
 Charge =  1 Multiplicity = 2

 SCF Done:  E(UB3LYP) =  -778.846253325     A.U. after   26 cycles
 Normal termination of Gaussian 16 at Thu Dec 10 21:52:24 2020.
 Gaussian 16:  ES64L-G16RevA.03 25-Dec-2016

 ----------------------------------------------------------------------
 # B3LYP/6-311++G(d,p) empiricaldispersion=gd3bj scf=xqc pop=npa geom=c
 heck
 ----------------------------------------------------------------------

 ------------------------------------
 CID_150640545_JID_6191_Energie_anion
 ------------------------------------
 Structure from the checkpoint file:  "JID_6191.chk"
 Charge = -1 Multiplicity = 2

                         Standard orientation:
 ---------------------------------------------------------------------
 Center     Atomic      Atomic             Coordinates (Angstroms)
 Number     Number       Type             X           Y           Z
 ---------------------------------------------------------------------
      1          6           0        2.735680   -1.804257   -1.188434
      2          8           0        2.397625   -0.460292   -0.819037
      3          6           0        2.676707   -0.157127    0.479681
      4          8           0        3.185354   -0.931634    1.267137
      5          7           0        2.322215    1.129751    0.777084
      6          6           0        1.555905    2.018121   -0.078745
      7          6           0        0.046616    1.830989   -0.042059
      8          6           0       -0.511515    0.592271    0.274190
      9          6           0       -1.896299    0.392269    0.202873
     10          6           0       -2.730638    1.471390   -0.122445
     11          6           0       -2.175331    2.718458   -0.393610
     12          6           0       -0.792086    2.899736   -0.370850
     13          7           0       -2.470000   -0.861543    0.480608
     14          6           0       -2.054435   -2.140308    0.116233
     15          8           0       -2.736810   -3.115055    0.395619
     16          7           0       -0.839897   -2.239016   -0.537420
     17          1           0        2.502924   -1.878725   -2.251787
     18          1           0        2.140379   -2.516619   -0.611055
     19          1           0        3.796105   -1.999625   -1.013835
     20          1           0        2.372884    1.335531    1.764813
     21          1           0        1.806628    3.047966    0.196793
     22          1           0        1.911401    1.871421   -1.102987
     23          1           0        0.121061   -0.221414    0.602218
     24          1           0       -3.806140    1.323750   -0.170653
     25          1           0       -2.827133    3.552554   -0.637481
     26          1           0       -0.366139    3.872415   -0.603533
     27          1           0       -3.424846   -0.872863    0.813021
     28          1           0       -0.498001   -1.448376   -1.068481
     29          1           0       -0.712319   -3.143754   -0.969694
 ---------------------------------------------------------------------

 SCF Done:  E(UB3LYP) =  -779.144552056     A.U. after   33 cycles
 SCF Done:  E(UB3LYP) =  -779.144552056     a.u. after    1 cycles

 The electronic state is 2-A.
 Alpha  occ. eigenvalues --  -19.07550 -19.00706 -18.99222 -14.25176 -14.25128
 Alpha  occ. eigenvalues --  -14.23540 -10.22953 -10.20948 -10.13163 -10.13007
 Alpha  occ. eigenvalues --  -10.12335 -10.09147 -10.08484 -10.07990 -10.07957
 Alpha  occ. eigenvalues --  -10.07742  -1.02044  -0.96008  -0.92779  -0.85134
 Alpha  occ. eigenvalues --   -0.84533  -0.80605  -0.75927  -0.68002  -0.65451
 Alpha  occ. eigenvalues --   -0.63781  -0.60421  -0.54697  -0.51929  -0.50441
 Alpha  occ. eigenvalues --   -0.50226  -0.45546  -0.45135  -0.44242  -0.41229
 Alpha  occ. eigenvalues --   -0.40314  -0.39543  -0.38558  -0.37035  -0.36103
 Alpha  occ. eigenvalues --   -0.34638  -0.34360  -0.33988  -0.33450  -0.32988
 Alpha  occ. eigenvalues --   -0.32160  -0.30834  -0.28118  -0.27497  -0.27283
 Alpha  occ. eigenvalues --   -0.26453  -0.21873  -0.21086  -0.19564  -0.19147
 Alpha  occ. eigenvalues --   -0.17830  -0.17729  -0.16038  -0.13326   0.03911
 Alpha virt. eigenvalues --    0.05921   0.06423   0.07004   0.07485   0.07671
 Alpha virt. eigenvalues --    0.08621   0.08868   0.09421   0.10467   0.10516
 Alpha virt. eigenvalues --    0.11714   0.12271   0.12600   0.13192   0.13661

  Beta  occ. eigenvalues --  -19.07538 -19.00699 -18.99215 -14.25166 -14.25116
  Beta  occ. eigenvalues --  -14.23497 -10.22952 -10.20939 -10.13129 -10.13000
  Beta  occ. eigenvalues --  -10.12317 -10.09093 -10.08471 -10.07950 -10.07926
  Beta  occ. eigenvalues --  -10.07719  -1.02029  -0.95989  -0.92765  -0.85105
  Beta  occ. eigenvalues --   -0.84508  -0.80541  -0.75857  -0.67907  -0.65397
  Beta  occ. eigenvalues --   -0.63725  -0.60354  -0.54652  -0.51834  -0.50378
  Beta  occ. eigenvalues --   -0.50168  -0.45493  -0.45095  -0.44201  -0.41180
  Beta  occ. eigenvalues --   -0.40259  -0.39500  -0.38504  -0.36990  -0.36055
  Beta  occ. eigenvalues --   -0.34581  -0.34313  -0.33932  -0.33409  -0.32967
  Beta  occ. eigenvalues --   -0.32097  -0.30794  -0.28023  -0.27453  -0.27229
  Beta  occ. eigenvalues --   -0.26401  -0.21848  -0.21008  -0.19554  -0.19105
  Beta  occ. eigenvalues --   -0.17808  -0.17689  -0.15838  -0.13193
  Beta virt. eigenvalues --    0.06229   0.06835   0.07097   0.07464   0.07615
  Beta virt. eigenvalues --    0.08261   0.08983   0.09443   0.09957   0.10774
  Beta virt. eigenvalues --    0.11018   0.11899   0.12431   0.12858   0.13435

 Mulliken charges and spin densities:
               1          2
     1  C    0.519980  -0.819742
     2  O   -0.157642   0.046075
     3  C   -0.078059   0.085335
     4  O   -0.297620   0.016139
     5  N   -0.248302   0.156594
     6  C    2.337346  -3.343779
     7  C   -0.166798   1.382839
     8  C   -0.268442   0.305841
     9  C   -0.958397   0.368135
    10  C   -0.368304   0.583136
    11  C    0.965662  -1.260406
    12  C   -0.291598  -0.505497
    13  N   -0.145997  -0.051084
    14  C    0.142475   0.043738
    15  O   -0.392340   0.021049
    16  N   -0.350846  -0.117987
    17  H   -0.514652   0.671071
    18  H    0.102741   0.082153
    19  H    0.036519   0.128062
    20  H    0.065557   0.245366
    21  H   -0.221074   0.413330
    22  H   -0.170057   0.415042
    23  H    0.397662  -0.152157
    24  H   -0.387327   0.530559
    25  H   -0.508032   0.680125
    26  H   -0.489996   0.632478
    27  H    0.168029   0.150529
    28  H    0.204219   0.058372
    29  H    0.075297   0.234683
 Sum of Mulliken charges =  -1.00000   1.00000

 Dipole moment (field-independent basis, Debye):
    X=              1.3806    Y=             -0.0859    Z=              1.3612  Tot=              1.9407
 Quadrupole moment (field-independent basis, Debye-Ang):
   XX=           -153.5961   YY=           -156.7889   ZZ=           -128.0374
   XY=             -0.9762   XZ=              0.5959   YZ=              6.4774

 Summary of Natural Population Analysis:

                                       Natural Population
                Natural  -----------------------------------------------
    Atom  No    Charge         Core      Valence    Rydberg      Total
 -----------------------------------------------------------------------
      C    1   -0.10272      0.99959     2.09351    0.00961     3.10272
      O    2   -0.28850      0.99987     3.27927    0.00937     4.28850
      C    3    0.46021      0.99969     1.51561    0.02449     2.53979
      O    4   -0.33011      0.99987     3.32517    0.00507     4.33011
      N    5   -0.32329      0.99967     2.81368    0.00994     3.82329
      C    6   -0.09569      0.99957     2.08396    0.01216     3.09569
      C    7   -0.00542      0.99950     1.99517    0.01075     3.00542
      C    8   -0.12640      0.99947     2.11756    0.00937     3.12640
      C    9    0.07976      0.99947     1.90908    0.01169     2.92024
      C   10   -0.10711      0.99952     2.09755    0.01004     3.10711
      C   11   -0.08700      0.99957     2.07755    0.00988     3.08700
      C   12   -0.10743      0.99951     2.09791    0.01001     3.10743
      N   13   -0.32061      0.99964     2.81140    0.00956     3.82061
      C   14    0.40551      0.99973     1.57315    0.02160     2.59449
      O   15   -0.33672      0.99987     3.33127    0.00557     4.33672
      N   16   -0.41696      0.99972     2.90962    0.00763     3.91696
      H   17    0.09347      0.00000     0.40460    0.00193     0.40653
      H   18    0.09242      0.00000     0.40639    0.00118     0.40758
      H   19    0.09076      0.00000     0.40834    0.00090     0.40924
      H   20    0.19753      0.00000     0.30062    0.00185     0.30247
      H   21    0.10210      0.00000     0.39662    0.00128     0.39790
      H   22    0.11484      0.00000     0.38260    0.00256     0.38516
      H   23    0.10964      0.00000     0.38779    0.00257     0.39036
      H   24    0.10162      0.00000     0.39704    0.00134     0.39838
      H   25    0.10199      0.00000     0.39665    0.00137     0.39801
      H   26    0.10170      0.00000     0.39651    0.00179     0.39830
      H   27    0.20048      0.00000     0.29710    0.00243     0.29952
      H   28    0.19929      0.00000     0.29846    0.00225     0.30071
      H   29    0.19663      0.00000     0.30154    0.00183     0.30337
 =======================================================================
   * Total *   -0.00000     15.99426    42.80571    0.20002    59.00000

 Normal termination of Gaussian 16 at Thu Dec 10 22:06:20 2020.
