 Gaussian 16, Revision A.03,

 -----------------------------------------------------------
 # opt freq B3LYP/6-31G(d) empiricaldispersion=gd3bj scf=xqc
 -----------------------------------------------------------

 ------------------------------
 CID_81814281_JID_6627_neutraal
 ------------------------------
 Symbolic Z-matrix:
 Charge =  0 Multiplicity = 1

 SCF Done:  E(RB3LYP) =  -763.914594072     A.U. after   15 cycles
 SCF Done:  E(RB3LYP) =  -763.937173601     A.U. after   13 cycles
 SCF Done:  E(RB3LYP) =  -763.932297772     A.U. after   13 cycles
 SCF Done:  E(RB3LYP) =  -763.937839053     A.U. after   12 cycles
 SCF Done:  E(RB3LYP) =  -763.938192695     A.U. after   12 cycles
 SCF Done:  E(RB3LYP) =  -763.940202507     A.U. after   12 cycles
 SCF Done:  E(RB3LYP) =  -763.940799289     A.U. after   12 cycles
 SCF Done:  E(RB3LYP) =  -763.940628152     A.U. after   15 cycles
 SCF Done:  E(RB3LYP) =  -763.943368970     A.U. after   13 cycles
 SCF Done:  E(RB3LYP) =  -763.945234895     A.U. after   13 cycles
 SCF Done:  E(RB3LYP) =  -763.949857524     A.U. after    8 cycles
 SCF Done:  E(RB3LYP) =  -763.949857901     A.U. after    8 cycles
 SCF Done:  E(RB3LYP) =  -763.949858226     A.U. after    8 cycles
 SCF Done:  E(RB3LYP) =  -763.949858350     A.U. after    8 cycles
 SCF Done:  E(RB3LYP) =  -763.949858410     A.U. after    8 cycles
 Optimization completed.
    -- Stationary point found.
 Normal termination of Gaussian 16 at Fri Dec 11 00:37:26 2020.

 --------------------------------------------------------------------
 #N Geom=AllCheck Guess=TCheck SCRF=Check GenChk RB3LYP/6-31G(d) Freq
 --------------------------------------------------------------------

 Structure from the checkpoint file:  "JID_6627.chk"
 ------------------------------
 CID_81814281_JID_6627_neutraal
 ------------------------------
 Charge =  0 Multiplicity = 1

 SCF Done:  E(RB3LYP) =  -763.949858410     A.U. after    1 cycles

  Exact polarizability: 151.610  -6.655 145.784  -3.589   1.101  96.335
 Approx polarizability: 205.108  -6.759 209.448  -7.597   3.839 149.227

                      1                      2                      3
                      A                      A                      A
 Frequencies --     26.0735                28.7423                59.8385
 Red. masses --      7.2641                 5.3816                 3.5403
 Frc consts  --      0.0029                 0.0026                 0.0075
 IR Inten    --      0.4895                 0.3703                 0.2688

                      4                      5                      6
                      A                      A                      A
 Frequencies --     66.3163                86.1714                97.5129
 Red. masses --      3.9346                 3.9126                 2.7123
 Frc consts  --      0.0102                 0.0171                 0.0152
 IR Inten    --      2.3497                 0.4089                 0.2680

                      7                      8                      9
                      A                      A                      A
 Frequencies --    100.8469               119.8597               145.4577
 Red. masses --      2.9377                 5.0791                 2.3998
 Frc consts  --      0.0176                 0.0430                 0.0299
 IR Inten    --      0.2425                 0.1694                 1.1992

                     10                     11                     12
                      A                      A                      A
 Frequencies --    160.7202               171.6925               215.0911
 Red. masses --      5.5225                 3.8686                 1.6767
 Frc consts  --      0.0840                 0.0672                 0.0457
 IR Inten    --      3.4617                 0.6340                 0.0037

                     13                     14                     15
                      A                      A                      A
 Frequencies --    225.7922               268.4595               299.8100
 Red. masses --      2.5522                 2.6372                 2.7307
 Frc consts  --      0.0767                 0.1120                 0.1446
 IR Inten    --      0.5237                 1.6270                 3.4422

                     16                     17                     18
                      A                      A                      A
 Frequencies --    319.1110               335.3730               348.7807
 Red. masses --      5.1430                 3.7535                 2.1971
 Frc consts  --      0.3086                 0.2487                 0.1575
 IR Inten    --      3.9683                 1.2406                 1.3510

                     19                     20                     21
                      A                      A                      A
 Frequencies --    387.2808               403.4716               427.6668
 Red. masses --      2.6636                 4.2674                 3.7335
 Frc consts  --      0.2354                 0.4093                 0.4023
 IR Inten    --      4.1021                13.1950                12.5064

                     22                     23                     24
                      A                      A                      A
 Frequencies --    480.3400               486.5343               493.4602
 Red. masses --      1.8000                 5.9059                 2.4992
 Frc consts  --      0.2447                 0.8237                 0.3586
 IR Inten    --     19.2544                 1.3950                12.3438

                     25                     26                     27
                      A                      A                      A
 Frequencies --    574.5131               590.0581               592.6170
 Red. masses --      2.3271                 2.3752                 1.2055
 Frc consts  --      0.4526                 0.4872                 0.2494
 IR Inten    --     23.9942                20.2145                57.3175

                     28                     29                     30
                      A                      A                      A
 Frequencies --    643.2023               656.8582               659.1733
 Red. masses --      2.4451                 1.5276                 1.7329
 Frc consts  --      0.5960                 0.3883                 0.4436
 IR Inten    --     13.8387                43.1883                94.5319

                     31                     32                     33
                      A                      A                      A
 Frequencies --    704.7800               770.9209               788.2070
 Red. masses --      3.0299                 6.9314                 2.2932
 Frc consts  --      0.8867                 2.4271                 0.8394
 IR Inten    --      1.3713                23.9727                 4.4075

                     34                     35                     36
                      A                      A                      A
 Frequencies --    807.9027               852.8723               894.6275
 Red. masses --      1.6281                 4.4641                 2.4147
 Frc consts  --      0.6261                 1.9132                 1.1387
 IR Inten    --     12.0950                 8.8209                 6.2311

                     37                     38                     39
                      A                      A                      A
 Frequencies --    940.7303               946.4858               954.0878
 Red. masses --      1.8162                 1.3558                 2.7547
 Frc consts  --      0.9470                 0.7156                 1.4774
 IR Inten    --      5.0336                35.9702                11.5025

                     40                     41                     42
                      A                      A                      A
 Frequencies --    979.0032               992.1977              1001.6214
 Red. masses --      2.0285                 3.3591                 1.7731
 Frc consts  --      1.1455                 1.9484                 1.0481
 IR Inten    --     33.7317                12.1770                 3.8497

                     43                     44                     45
                      A                      A                      A
 Frequencies --   1028.0589              1031.9010              1111.1005
 Red. masses --      1.4740                 1.6612                 1.9969
 Frc consts  --      0.9178                 1.0422                 1.4525
 IR Inten    --      4.5736                12.2611                11.7742

                     46                     47                     48
                      A                      A                      A
 Frequencies --   1123.8464              1142.1177              1191.6723
 Red. masses --      2.1211                 1.9973                 2.5395
 Frc consts  --      1.5784                 1.5350                 2.1248
 IR Inten    --     11.8658                38.2741                60.9754

                     49                     50                     51
                      A                      A                      A
 Frequencies --   1200.1896              1229.9347              1244.8687
 Red. masses --      2.4579                 2.3909                 2.5294
 Frc consts  --      2.0860                 2.1310                 2.3095
 IR Inten    --    144.8096                27.4660                23.7462

                     52                     53                     54
                      A                      A                      A
 Frequencies --   1285.9371              1311.2380              1332.3751
 Red. masses --      1.1945                 1.4993                 1.2510
 Frc consts  --      1.1638                 1.5188                 1.3085
 IR Inten    --    100.8236                68.3459                10.6977

                     55                     56                     57
                      A                      A                      A
 Frequencies --   1340.7477              1374.9852              1380.8737
 Red. masses --      1.4027                 1.2918                 1.3251
 Frc consts  --      1.4856                 1.4390                 1.4887
 IR Inten    --     81.6891                58.2418                 5.9747

                     58                     59                     60
                      A                      A                      A
 Frequencies --   1394.3848              1397.6266              1412.2336
 Red. masses --      1.5574                 2.1888                 1.2978
 Frc consts  --      1.7841                 2.5191                 1.5251
 IR Inten    --     45.8873                45.3500                12.3592

                     61                     62                     63
                      A                      A                      A
 Frequencies --   1425.7331              1436.0108              1454.3388
 Red. masses --      1.4508                 1.2966                 1.9288
 Frc consts  --      1.7375                 1.5753                 2.4037
 IR Inten    --     95.1990                16.0995               239.7140

                     64                     65                     66
                      A                      A                      A
 Frequencies --   1479.1449              1481.1126              1508.2442
 Red. masses --      1.2018                 1.2160                 1.0844
 Frc consts  --      1.5491                 1.5717                 1.4534
 IR Inten    --     34.7518                52.9710                18.8435

                     67                     68                     69
                      A                      A                      A
 Frequencies --   1512.7005              1519.6283              1531.3069
 Red. masses --      1.0843                 1.0668                 1.1259
 Frc consts  --      1.4619                 1.4515                 1.5555
 IR Inten    --      8.6728                 5.4282                35.8976

                     70                     71                     72
                      A                      A                      A
 Frequencies --   1542.1856              1733.1084              1742.6507
 Red. masses --      1.0548                 4.6325                 9.8439
 Frc consts  --      1.4781                 8.1981                17.6131
 IR Inten    --      8.8188                 6.7628               314.0788

                     73                     74                     75
                      A                      A                      A
 Frequencies --   1851.8816              2246.2892              3020.2519
 Red. masses --     10.0307                 5.9455                 1.0715
 Frc consts  --     20.2679                17.6753                 5.7590
 IR Inten    --    300.0314                 0.4286                22.1683

                     76                     77                     78
                      A                      A                      A
 Frequencies --   3026.4825              3056.1232              3063.7558
 Red. masses --      1.0703                 1.0410                 1.0667
 Frc consts  --      5.7761                 5.7288                 5.8992
 IR Inten    --     39.1678                28.3566                40.1511

                     79                     80                     81
                      A                      A                      A
 Frequencies --   3106.6241              3109.9089              3111.1789
 Red. masses --      1.0903                 1.0612                 1.1006
 Frc consts  --      6.1999                 6.0473                 6.2769
 IR Inten    --      2.9295                 9.8492                28.8120

                     82                     83                     84
                      A                      A                      A
 Frequencies --   3128.7614              3142.1876              3155.0768
 Red. masses --      1.0896                 1.0957                 1.0601
 Frc consts  --      6.2842                 6.3737                 6.2173
 IR Inten    --      5.7739                20.1533                14.5393

                     85                     86                     87
                      A                      A                      A
 Frequencies --   3160.1727              3164.3573              3165.6451
 Red. masses --      1.1038                 1.0990                 1.0938
 Frc consts  --      6.4947                 6.4839                 6.4581
 IR Inten    --      1.7307                 7.3808                13.0983

                     88                     89                     90
                      A                      A                      A
 Frequencies --   3238.9688              3495.3102              3695.7790
 Red. masses --      1.1149                 1.1612                 1.0641
 Frc consts  --      6.8912                 8.3585                 8.5630
 IR Inten    --     17.4425                61.1866                52.8711

 - Thermochemistry -
 -------------------
 Temperature   298.150 Kelvin.  Pressure   1.00000 Atm.
 Atom     1 has atomic number  6 and mass  12.00000

 Molecular mass:   224.11609 amu.
 Principal axes and moments of inertia in atomic units:
                           1         2         3
     Eigenvalues --  2542.920344501.114316428.77191
           X            0.99967  -0.02560  -0.00089
           Y            0.02560   0.99966   0.00446
           Z            0.00078  -0.00448   0.99999
 This molecule is an asymmetric top.
 Rotational symmetry number  1.
 Warning -- assumption of classical behavior for rotation
           may cause significant error
 Rotational temperatures (Kelvin)      0.03406     0.01924     0.01347
 Rotational constants (GHZ):           0.70971     0.40095     0.28073
 Zero-point vibrational energy     693494.8 (Joules/Mol)
                                  165.74923 (Kcal/Mol)
 Warning -- explicit consideration of  27 degrees of freedom as
           vibrations may cause significant error
 Vibrational temperatures:     37.51    41.35    86.09    95.41   123.98
          (Kelvin)            140.30   145.10   172.45   209.28   231.24
                              247.03   309.47   324.86   386.25   431.36
                              459.13   482.53   501.82   557.21   580.51
                              615.32   691.10   700.01   709.98   826.60
                              848.96   852.64   925.42   945.07   948.40
                             1014.02  1109.18  1134.05  1162.39  1227.09
                             1287.17  1353.50  1361.78  1372.72  1408.57
                             1427.55  1441.11  1479.15  1484.68  1598.63
                             1616.96  1643.25  1714.55  1726.81  1769.60
                             1791.09  1850.18  1886.58  1916.99  1929.04
                             1978.30  1986.77  2006.21  2010.87  2031.89
                             2051.31  2066.10  2092.47  2128.16  2130.99
                             2170.03  2176.44  2186.41  2203.21  2218.86
                             2493.56  2507.29  2664.44  3231.91  4345.47
                             4354.43  4397.08  4408.06  4469.74  4474.47
                             4476.29  4501.59  4520.91  4539.45  4546.78
                             4552.80  4554.66  4660.15  5028.97  5317.40

 Zero-point correction=                           0.264138 (Hartree/Particle)
 Thermal correction to Energy=                    0.281820
 Thermal correction to Enthalpy=                  0.282764
 Thermal correction to Gibbs Free Energy=         0.217282
 Sum of electronic and zero-point Energies=           -763.685720
 Sum of electronic and thermal Energies=              -763.668039
 Sum of electronic and thermal Enthalpies=            -763.667094
 Sum of electronic and thermal Free Energies=         -763.732576

                     E (Thermal)             CV                S
                      KCal/Mol        Cal/Mol-Kelvin    Cal/Mol-Kelvin
 Total                  176.845             63.953            137.818
 Electronic               0.000              0.000              0.000
 Translational            0.889              2.981             42.123
 Rotational               0.889              2.981             32.664
 Vibrational            175.067             57.991             63.030
 Vibration     1          0.593              1.985              6.108
 Vibration     2          0.593              1.984              5.914
 Vibration     3          0.597              1.973              4.463
 Vibration     4          0.598              1.970              4.260
 Vibration     5          0.601              1.959              3.745
 Vibration     6          0.603              1.951              3.503
 Vibration     7          0.604              1.948              3.438
 Vibration     8          0.609              1.933              3.103
 Vibration     9          0.617              1.908              2.731
 Vibration    10          0.622              1.891              2.541
 Vibration    11          0.626              1.877              2.417
 Vibration    12          0.645              1.818              2.000
 Vibration    13          0.650              1.802              1.912
 Vibration    14          0.673              1.731              1.606
 Vibration    15          0.692              1.674              1.418
 Vibration    16          0.705              1.637              1.315
 Vibration    17          0.716              1.605              1.234
 Vibration    18          0.726              1.578              1.172
 Vibration    19          0.756              1.497              1.011
 Vibration    20          0.769              1.463              0.950
 Vibration    21          0.789              1.410              0.866
 Vibration    22          0.837              1.294              0.709
 Vibration    23          0.843              1.280              0.693
 Vibration    24          0.849              1.265              0.675
 Vibration    25          0.931              1.086              0.496
 Vibration    26          0.947              1.053              0.467
 Vibration    27          0.950              1.048              0.463

 Optimization completed.
    -- Stationary point found.
 Normal termination of Gaussian 16 at Fri Dec 11 00:49:22 2020.

 ----------------------------------------------------------------------
 # B3LYP/6-311++G(d,p) empiricaldispersion=gd3bj scf=xqc pop=npa geom=c
 heck
 ----------------------------------------------------------------------

 --------------------------------------
 CID_81814281_JID_6627_Energie_neutraal
 --------------------------------------
 Structure from the checkpoint file:  "JID_6627.chk"
 Charge =  0 Multiplicity = 1

 SCF Done:  E(RB3LYP) =  -764.183065516     A.U. after   15 cycles
 Normal termination of Gaussian 16 at Fri Dec 11 00:54:50 2020.

 ----------------------------------------------------------------------
 # B3LYP/6-311++G(d,p) empiricaldispersion=gd3bj scf=xqc pop=npa geom=c
 heck
 ----------------------------------------------------------------------

 ------------------------------------
 CID_81814281_JID_6627_Energie_kation
 ------------------------------------
 Structure from the checkpoint file:  "JID_6627.chk"
 Charge =  1 Multiplicity = 2

 SCF Done:  E(UB3LYP) =  -763.873345545     A.U. after   24 cycles
 Normal termination of Gaussian 16 at Fri Dec 11 01:06:43 2020.
 Gaussian 16:  ES64L-G16RevA.03 25-Dec-2016

 ----------------------------------------------------------------------
 # B3LYP/6-311++G(d,p) empiricaldispersion=gd3bj scf=xqc pop=npa geom=c
 heck
 ----------------------------------------------------------------------

 -----------------------------------
 CID_81814281_JID_6627_Energie_anion
 -----------------------------------
 Structure from the checkpoint file:  "JID_6627.chk"
 Charge = -1 Multiplicity = 2

                         Standard orientation:
 ---------------------------------------------------------------------
 Center     Atomic      Atomic             Coordinates (Angstroms)
 Number     Number       Type             X           Y           Z
 ---------------------------------------------------------------------
      1          6           0        2.962091   -2.580459    0.106129
      2          6           0        2.385842   -1.526400   -0.842190
      3          7           0        1.589148   -0.483382   -0.181189
      4          6           0        2.358751    0.514111    0.574640
      5          6           0        2.862209    1.649873   -0.278756
      6          6           0        2.833295    2.933103    0.077667
      7          6           0        0.301833   -0.857710    0.178604
      8          8           0       -0.089697   -2.020158    0.098077
      9          7           0       -0.547484    0.148325    0.635446
     10          6           0       -0.434328    1.535498    0.145717
     11          6           0       -1.711411    2.163260   -0.190469
     12          6           0       -2.747501    2.732462   -0.430718
     13          6           0       -1.836007   -0.332479    1.097498
     14          6           0       -2.778393   -0.871556    0.026534
     15          8           0       -3.815707   -1.437312    0.288076
     16          8           0       -2.364224   -0.628773   -1.234063
     17          1           0        3.617481   -2.136543    0.864352
     18          1           0        3.557190   -3.306700   -0.458925
     19          1           0        2.147957   -3.107544    0.607503
     20          1           0        3.189728   -1.019241   -1.388478
     21          1           0        1.740394   -2.008336   -1.578676
     22          1           0        1.753982    0.889018    1.402837
     23          1           0        3.216321    0.001613    1.034684
     24          1           0        3.292758    1.365144   -1.238247
     25          1           0        3.235186    3.714825   -0.560339
     26          1           0        2.411338    3.252960    1.028653
     27          1           0        0.062135    2.168377    0.893864
     28          1           0        0.215946    1.535469   -0.733554
     29          1           0       -3.667592    3.216547   -0.667691
     30          1           0       -1.686717   -1.144742    1.810382
     31          1           0       -2.357042    0.476761    1.614481
     32          1           0       -3.041960   -1.020490   -1.815296
 ---------------------------------------------------------------------

 SCF Done:  E(UB3LYP) =  -764.171456573     A.U. after   33 cycles
 SCF Done:  E(UB3LYP) =  -764.171456573     a.u. after    1 cycles

 The electronic state is 2-A.
 Alpha  occ. eigenvalues --  -19.08147 -19.02619 -18.99379 -14.25636 -14.24687
 Alpha  occ. eigenvalues --  -10.21869 -10.20378 -10.14464 -10.13050 -10.12319
 Alpha  occ. eigenvalues --  -10.11227 -10.09442 -10.09040 -10.08323 -10.07880
 Alpha  occ. eigenvalues --  -10.06816  -1.02363  -0.96323  -0.93373  -0.85714
 Alpha  occ. eigenvalues --   -0.84207  -0.70472  -0.69825  -0.67514  -0.65045
 Alpha  occ. eigenvalues --   -0.61745  -0.59986  -0.55231  -0.52895  -0.48275
 Alpha  occ. eigenvalues --   -0.47112  -0.46133  -0.44634  -0.42130  -0.41109
 Alpha  occ. eigenvalues --   -0.39707  -0.38704  -0.38276  -0.37328  -0.36379
 Alpha  occ. eigenvalues --   -0.35664  -0.35098  -0.34090  -0.32592  -0.32220
 Alpha  occ. eigenvalues --   -0.31588  -0.30678  -0.30323  -0.28689  -0.27419
 Alpha  occ. eigenvalues --   -0.26897  -0.25988  -0.23696  -0.21692  -0.19958
 Alpha  occ. eigenvalues --   -0.19574  -0.18928  -0.17796  -0.15611  -0.15236
 Alpha  occ. eigenvalues --    0.04044
 Alpha virt. eigenvalues --    0.05870   0.06586   0.06956   0.07323   0.07667
 Alpha virt. eigenvalues --    0.08421   0.08704   0.08996   0.09106   0.09574
 Alpha virt. eigenvalues --    0.10715   0.11172   0.11323   0.11826   0.12062

  Beta  occ. eigenvalues --  -19.08126 -19.02614 -18.99375 -14.25637 -14.24686
  Beta  occ. eigenvalues --  -10.21866 -10.20378 -10.14442 -10.13034 -10.12293
  Beta  occ. eigenvalues --  -10.11213 -10.09442 -10.09026 -10.08300 -10.07843
  Beta  occ. eigenvalues --  -10.06794  -1.02336  -0.96318  -0.93353  -0.85706
  Beta  occ. eigenvalues --   -0.84195  -0.70437  -0.69796  -0.67489  -0.65016
  Beta  occ. eigenvalues --   -0.61709  -0.59941  -0.55189  -0.52849  -0.48204
  Beta  occ. eigenvalues --   -0.47068  -0.46088  -0.44595  -0.42098  -0.41088
  Beta  occ. eigenvalues --   -0.39684  -0.38678  -0.38244  -0.37298  -0.36346
  Beta  occ. eigenvalues --   -0.35629  -0.35061  -0.34067  -0.32557  -0.32198
  Beta  occ. eigenvalues --   -0.31563  -0.30656  -0.30294  -0.28663  -0.27394
  Beta  occ. eigenvalues --   -0.26843  -0.25964  -0.23679  -0.21677  -0.19933
  Beta  occ. eigenvalues --   -0.19550  -0.18908  -0.17766  -0.15598  -0.15223
  Beta virt. eigenvalues --    0.06158   0.06681   0.07369   0.07609   0.07775
  Beta virt. eigenvalues --    0.07881   0.08532   0.09029   0.09230   0.09510
  Beta virt. eigenvalues --    0.09918   0.10903   0.11379   0.11471   0.11999

 Mulliken charges and spin densities:
               1          2
     1  C    0.550826  -0.975853
     2  C   -0.396726   0.357888
     3  N    0.174765  -0.034394
     4  C    0.687176  -1.359026
     5  C   -1.641285   2.033369
     6  C    1.868431  -2.544539
     7  C   -0.100578  -0.202555
     8  O   -0.314344   0.013864
     9  N    0.106108   0.109157
    10  C   -2.403137   1.411889
    11  C    7.105358  -5.436776
    12  C   -3.545227   2.253059
    13  C   -0.045416  -0.299309
    14  C    0.084644   0.009222
    15  O   -0.292666   0.012382
    16  O   -0.151617  -0.001080
    17  H   -0.046724   0.166862
    18  H   -0.111182   0.251549
    19  H    0.093984   0.092538
    20  H   -0.168231   0.304532
    21  H    0.076641   0.116442
    22  H   -0.482097   0.728483
    23  H   -0.454728   0.626781
    24  H   -0.606760   0.786241
    25  H   -0.192118   0.331828
    26  H   -0.433558   0.559986
    27  H   -0.003237   0.187634
    28  H    0.250626  -0.030506
    29  H   -0.891101   1.055587
    30  H    0.102688   0.140655
    31  H    0.092539   0.121409
    32  H    0.086945   0.212680
 Sum of Mulliken charges =  -1.00000   1.00000

 Dipole moment (field-independent basis, Debye):
    X=             -1.6130    Y=             -2.7404    Z=             -0.8378  Tot=              3.2884
 Quadrupole moment (field-independent basis, Debye-Ang):
   XX=           -174.0603   YY=           -156.7982   ZZ=           -127.6750
   XY=             -4.9044   XZ=             -0.6485   YZ=              0.3774

 Summary of Natural Population Analysis:

                                       Natural Population
                Natural  -----------------------------------------------
    Atom  No    Charge         Core      Valence    Rydberg      Total
 -----------------------------------------------------------------------
      C    1   -0.29487      0.99966     2.29108    0.00413     3.29487
      C    2   -0.08363      0.99962     2.07292    0.01109     3.08363
      N    3   -0.27109      0.99965     2.76039    0.01105     3.77109
      C    4   -0.10721      0.99956     2.09479    0.01285     3.10721
      C    5   -0.09353      0.99955     2.08297    0.01101     3.09353
      C    6   -0.18317      0.99955     2.17623    0.00739     3.18317
      C    7    0.42519      0.99962     1.55305    0.02214     2.57481
      O    8   -0.33543      0.99988     3.33051    0.00503     4.33543
      N    9   -0.26685      0.99965     2.75500    0.01220     3.76685
      C   10   -0.12784      0.99952     2.11544    0.01288     3.12784
      C   11   -0.00779      0.99935     1.99984    0.00859     3.00779
      C   12   -0.10517      0.99924     2.10250    0.00343     3.10517
      C   13   -0.13597      0.99956     2.12386    0.01255     3.13597
      C   14    0.41033      0.99973     1.56546    0.02448     2.58967
      O   15   -0.31241      0.99987     3.30618    0.00636     4.31241
      O   16   -0.33772      0.99987     3.33053    0.00732     4.33772
      H   17    0.09566      0.00000     0.40306    0.00129     0.40434
      H   18    0.09868      0.00000     0.40033    0.00099     0.40132
      H   19    0.10947      0.00000     0.38937    0.00117     0.39053
      H   20    0.09314      0.00000     0.40540    0.00146     0.40686
      H   21    0.10583      0.00000     0.39311    0.00106     0.39417
      H   22    0.10668      0.00000     0.39089    0.00243     0.39332
      H   23    0.10414      0.00000     0.39399    0.00188     0.39586
      H   24    0.09603      0.00000     0.40249    0.00149     0.40397
      H   25    0.09735      0.00000     0.40136    0.00129     0.40265
      H   26    0.09252      0.00000     0.40549    0.00199     0.40748
      H   27    0.11090      0.00000     0.38665    0.00246     0.38910
      H   28    0.12287      0.00000     0.37449    0.00265     0.37713
      H   29    0.11317      0.00000     0.38514    0.00169     0.38683
      H   30    0.12193      0.00000     0.37711    0.00097     0.37807
      H   31    0.11822      0.00000     0.38077    0.00101     0.38178
      H   32    0.24059      0.00000     0.25540    0.00402     0.25941
 =======================================================================
   * Total *   -0.00000     15.99388    43.80579    0.20033    60.00000

 Normal termination of Gaussian 16 at Fri Dec 11 01:22:41 2020.
