 Gaussian 16, Revision A.03,

 -----------------------------------------------------------
 # opt freq B3LYP/6-31G(d) empiricaldispersion=gd3bj scf=xqc
 -----------------------------------------------------------

 ------------------------------
 CID_82477103_JID_8726_neutraal
 ------------------------------
 Symbolic Z-matrix:
 Charge =  0 Multiplicity = 1

 SCF Done:  E(RB3LYP) =  -780.857572766     A.U. after   15 cycles
 SCF Done:  E(RB3LYP) =  -780.862759507     A.U. after   13 cycles
 SCF Done:  E(RB3LYP) =  -780.864146018     A.U. after   13 cycles
 SCF Done:  E(RB3LYP) =  -780.864468209     A.U. after   12 cycles
 SCF Done:  E(RB3LYP) =  -780.864558917     A.U. after   11 cycles
 SCF Done:  E(RB3LYP) =  -780.864593034     A.U. after   10 cycles
 SCF Done:  E(RB3LYP) =  -780.864612404     A.U. after   11 cycles
 SCF Done:  E(RB3LYP) =  -780.864617141     A.U. after   10 cycles
 SCF Done:  E(RB3LYP) =  -780.864618435     A.U. after    9 cycles
 SCF Done:  E(RB3LYP) =  -780.864618619     A.U. after    7 cycles
 SCF Done:  E(RB3LYP) =  -780.864618708     A.U. after    8 cycles
 Optimization completed.
    -- Stationary point found.
 Normal termination of Gaussian 16 at Fri Dec 11 22:10:32 2020.

 --------------------------------------------------------------------
 #N Geom=AllCheck Guess=TCheck SCRF=Check GenChk RB3LYP/6-31G(d) Freq
 --------------------------------------------------------------------

 Structure from the checkpoint file:  "JID_8726.chk"
 ------------------------------
 CID_82477103_JID_8726_neutraal
 ------------------------------
 Charge =  0 Multiplicity = 1

 SCF Done:  E(RB3LYP) =  -780.864618709     A.U. after    1 cycles

  Exact polarizability: 175.873 -35.572 156.096  24.870   3.933 134.916
 Approx polarizability: 249.810 -70.722 260.343  49.728   9.765 257.671

                      1                      2                      3
                      A                      A                      A
 Frequencies --     20.7503                27.8632                45.5642
 Red. masses --      5.9539                 5.7388                 4.6747
 Frc consts  --      0.0015                 0.0026                 0.0057
 IR Inten    --      0.1840                 1.6082                 1.2256

                      4                      5                      6
                      A                      A                      A
 Frequencies --     91.5528               115.8607               157.9785
 Red. masses --      5.6549                 4.4996                 4.5589
 Frc consts  --      0.0279                 0.0356                 0.0670
 IR Inten    --      0.2018                 0.8975                 2.2073

                      7                      8                      9
                      A                      A                      A
 Frequencies --    231.5801               259.6377               288.0025
 Red. masses --      3.7677                 5.9929                 2.9280
 Frc consts  --      0.1191                 0.2380                 0.1431
 IR Inten    --      4.1495                 0.2029                 1.9574

                     10                     11                     12
                      A                      A                      A
 Frequencies --    299.4563               322.9334               362.6774
 Red. masses --      1.1330                 4.1830                 2.2715
 Frc consts  --      0.0599                 0.2570                 0.1760
 IR Inten    --     27.7000                 5.9378                 2.4714

                     13                     14                     15
                      A                      A                      A
 Frequencies --    402.1614               426.7967               444.2998
 Red. masses --      4.2310                 2.8073                 4.3605
 Frc consts  --      0.4032                 0.3013                 0.5072
 IR Inten    --      1.1423                 0.2747                 0.8585

                     16                     17                     18
                      A                      A                      A
 Frequencies --    482.5721               500.0907               521.5705
 Red. masses --      3.0284                 5.1558                 3.8264
 Frc consts  --      0.4155                 0.7597                 0.6133
 IR Inten    --     22.0220                 0.9113                 1.6507

                     19                     20                     21
                      A                      A                      A
 Frequencies --    542.7387               579.6809               602.2312
 Red. masses --      4.1643                 5.5630                 4.4083
 Frc consts  --      0.7227                 1.1014                 0.9420
 IR Inten    --     11.0419                 2.2507                 2.7735

                     22                     23                     24
                      A                      A                      A
 Frequencies --    608.1545               653.2694               667.8442
 Red. masses --      4.1685                 7.9507                 5.6184
 Frc consts  --      0.9084                 1.9991                 1.4764
 IR Inten    --      2.7151                 0.5766                 3.4969

                     25                     26                     27
                      A                      A                      A
 Frequencies --    673.9033               709.6995               748.0063
 Red. masses --      1.4115                 3.3163                 2.6285
 Frc consts  --      0.3777                 0.9841                 0.8665
 IR Inten    --    214.0369                 0.7366                 2.9988

                     28                     29                     30
                      A                      A                      A
 Frequencies --    749.5367               764.6559               793.5086
 Red. masses --      4.0105                 1.4830                 2.6834
 Frc consts  --      1.3275                 0.5109                 0.9955
 IR Inten    --      2.0631                87.4300                29.5913

                     31                     32                     33
                      A                      A                      A
 Frequencies --    802.6146               844.6834               855.1930
 Red. masses --      1.9796                 3.7458                 2.4397
 Frc consts  --      0.7513                 1.5746                 1.0513
 IR Inten    --     15.3888                13.7059                 3.3434

                     34                     35                     36
                      A                      A                      A
 Frequencies --    862.2542               913.0994               921.5361
 Red. masses --      2.2174                 5.1750                 3.9963
 Frc consts  --      0.9713                 2.5421                 1.9996
 IR Inten    --      8.2643                 1.8209                 5.6000

                     37                     38                     39
                      A                      A                      A
 Frequencies --    927.7352               940.8157               955.7680
 Red. masses --      1.9710                 1.3481                 1.9652
 Frc consts  --      0.9995                 0.7031                 1.0577
 IR Inten    --     18.6867                 0.4934                18.1674

                     40                     41                     42
                      A                      A                      A
 Frequencies --    959.2554               965.8811               972.0181
 Red. masses --      2.5567                 1.2570                 1.3185
 Frc consts  --      1.3861                 0.6909                 0.7340
 IR Inten    --      3.1152                 1.4485                 1.1889

                     43                     44                     45
                      A                      A                      A
 Frequencies --   1036.6918              1061.1804              1070.5943
 Red. masses --      2.4372                 2.2200                 2.1506
 Frc consts  --      1.5433                 1.4729                 1.4523
 IR Inten    --      3.9417                 4.0591                 0.7990

                     46                     47                     48
                      A                      A                      A
 Frequencies --   1096.6207              1134.1167              1155.2570
 Red. masses --      1.8525                 1.7300                 1.4912
 Frc consts  --      1.3125                 1.3110                 1.1726
 IR Inten    --      8.3127                 4.7360                26.6983

                     49                     50                     51
                      A                      A                      A
 Frequencies --   1184.1620              1196.0254              1204.3600
 Red. masses --      1.3906                 1.0928                 1.8931
 Frc consts  --      1.1488                 0.9210                 1.6179
 IR Inten    --      1.6952                 3.4209                 8.5270

                     52                     53                     54
                      A                      A                      A
 Frequencies --   1230.7100              1238.6004              1279.8878
 Red. masses --      2.4814                 1.3446                 2.6765
 Frc consts  --      2.2144                 1.2153                 2.5832
 IR Inten    --      0.8869                 6.3857                38.4688

                     55                     56                     57
                      A                      A                      A
 Frequencies --   1291.8086              1311.6547              1333.7990
 Red. masses --      4.1582                 2.5769                 2.3420
 Frc consts  --      4.0884                 2.6121                 2.4548
 IR Inten    --     68.2606                29.9199                12.1579

                     58                     59                     60
                      A                      A                      A
 Frequencies --   1349.1794              1369.1883              1378.2031
 Red. masses --      1.5397                 1.9356                 2.5979
 Frc consts  --      1.6513                 2.1379                 2.9073
 IR Inten    --      2.9333                 3.9275                 4.5262

                     61                     62                     63
                      A                      A                      A
 Frequencies --   1384.4112              1394.8731              1443.1057
 Red. masses --      2.1036                 1.9338                 2.6505
 Frc consts  --      2.3755                 2.2169                 3.2522
 IR Inten    --     10.0247                20.0853                99.9023

                     64                     65                     66
                      A                      A                      A
 Frequencies --   1500.6850              1508.3763              1524.8089
 Red. masses --      1.1886                 1.8233                 2.4878
 Frc consts  --      1.5771                 2.4441                 3.4080
 IR Inten    --     16.3554                 9.0840                 1.2899

                     67                     68                     69
                      A                      A                      A
 Frequencies --   1530.0406              1552.4763              1613.0584
 Red. masses --      1.2335                 2.4983                 8.0737
 Frc consts  --      1.7014                 3.5477                12.3772
 IR Inten    --      4.1727                40.7306                72.0658

                     70                     71                     72
                      A                      A                      A
 Frequencies --   1647.0130              1665.9150              1668.5859
 Red. masses --      5.9503                 7.6222                 3.5965
 Frc consts  --      9.5101                12.4634                 5.8997
 IR Inten    --      8.1464                19.1236                 7.7385

                     73                     74                     75
                      A                      A                      A
 Frequencies --   1675.3951              1698.4740              3030.4899
 Red. masses --      8.8843                 1.2993                 1.0699
 Frc consts  --     14.6928                 2.2084                 5.7893
 IR Inten    --     28.4205               105.6086                47.0669

                     76                     77                     78
                      A                      A                      A
 Frequencies --   3052.7771              3103.8118              3146.1210
 Red. masses --      1.0693                 1.0929                 1.0946
 Frc consts  --      5.8713                 6.2036                 6.3834
 IR Inten    --     38.9979                11.5668                 2.2468

                     79                     80                     81
                      A                      A                      A
 Frequencies --   3171.1019              3181.5501              3182.1851
 Red. masses --      1.0874                 1.0892                 1.0876
 Frc consts  --      6.4426                 6.4956                 6.4890
 IR Inten    --     17.0976                21.9735                 4.1667

                     82                     83                     84
                      A                      A                      A
 Frequencies --   3194.8729              3211.9149              3212.3408
 Red. masses --      1.0914                 1.0904                 1.0970
 Frc consts  --      6.5639                 6.6280                 6.6694
 IR Inten    --     27.0058                11.6917                20.6437

                     85                     86                     87
                      A                      A                      A
 Frequencies --   3227.5132              3538.3950              3634.6152
 Red. masses --      1.0964                 1.0481                 1.0972
 Frc consts  --      6.7292                 7.7312                 8.5397
 IR Inten    --      9.4959                 5.7055                 6.2883

 - Thermochemistry -
 -------------------
 Temperature   298.150 Kelvin.  Pressure   1.00000 Atm.
 Atom     1 has atomic number  6 and mass  12.00000

 Molecular mass:   239.10586 amu.
 Principal axes and moments of inertia in atomic units:
                           1         2         3
     Eigenvalues --  2263.213136454.464437138.02146
           X            0.99985  -0.01390   0.00986
           Y            0.01382   0.99987   0.00805
           Z           -0.00997  -0.00791   0.99992
 This molecule is an asymmetric top.
 Rotational symmetry number  1.
 Warning -- assumption of classical behavior for rotation
           may cause significant error
 Rotational temperatures (Kelvin)      0.03827     0.01342     0.01213
 Rotational constants (GHZ):           0.79742     0.27961     0.25283
 Zero-point vibrational energy     655747.2 (Joules/Mol)
                                  156.72735 (Kcal/Mol)
 Warning -- explicit consideration of  22 degrees of freedom as
           vibrations may cause significant error
 Vibrational temperatures:     29.86    40.09    65.56   131.72   166.70
          (Kelvin)            227.30   333.19   373.56   414.37   430.85
                              464.63   521.81   578.62   614.07   639.25
                              694.31   719.52   750.42   780.88   834.03
                              866.48   875.00   939.91   960.88   969.60
                             1021.10  1076.21  1078.42  1100.17  1141.68
                             1154.78  1215.31  1230.43  1240.59  1313.75
                             1325.88  1334.80  1353.62  1375.14  1380.15
                             1389.69  1398.52  1491.57  1526.80  1540.35
                             1577.79  1631.74  1662.16  1703.75  1720.81
                             1732.81  1770.72  1782.07  1841.47  1858.62
                             1887.18  1919.04  1941.17  1969.96  1982.93
                             1991.86  2006.91  2076.31  2159.15  2170.22
                             2193.86  2201.39  2233.67  2320.83  2369.68
                             2396.88  2400.72  2410.52  2443.73  4360.20
                             4392.27  4465.69  4526.57  4562.51  4577.54
                             4578.45  4596.71  4621.23  4621.84  4643.67
                             5090.96  5229.40

 Zero-point correction=                           0.249761 (Hartree/Particle)
 Thermal correction to Energy=                    0.263947
 Thermal correction to Enthalpy=                  0.264891
 Thermal correction to Gibbs Free Energy=         0.206706
 Sum of electronic and zero-point Energies=           -780.614858
 Sum of electronic and thermal Energies=              -780.600672
 Sum of electronic and thermal Enthalpies=            -780.599728
 Sum of electronic and thermal Free Energies=         -780.657912

                     E (Thermal)             CV                S
                      KCal/Mol        Cal/Mol-Kelvin    Cal/Mol-Kelvin
 Total                  165.629             56.863            122.460
 Electronic               0.000              0.000              0.000
 Translational            0.889              2.981             42.316
 Rotational               0.889              2.981             33.011
 Vibrational            163.852             50.901             47.132
 Vibration     1          0.593              1.986              6.561
 Vibration     2          0.593              1.984              5.976
 Vibration     3          0.595              1.979              5.001
 Vibration     4          0.602              1.955              3.627
 Vibration     5          0.608              1.936              3.168
 Vibration     6          0.621              1.894              2.574
 Vibration     7          0.653              1.793              1.867
 Vibration     8          0.668              1.746              1.664
 Vibration     9          0.685              1.696              1.486
 Vibration    10          0.692              1.675              1.420
 Vibration    11          0.708              1.630              1.295
 Vibration    12          0.737              1.549              1.111
 Vibration    13          0.768              1.465              0.955
 Vibration    14          0.788              1.412              0.869
 Vibration    15          0.804              1.373              0.813
 Vibration    16          0.839              1.289              0.703
 Vibration    17          0.856              1.250              0.658
 Vibration    18          0.877              1.202              0.606
 Vibration    19          0.898              1.156              0.559
 Vibration    20          0.936              1.075              0.486
 Vibration    21          0.961              1.027              0.446
 Vibration    22          0.967              1.015              0.436

                           ! Non-Optimized Parameters !
 Normal termination of Gaussian 16 at Fri Dec 11 22:22:50 2020.

 ----------------------------------------------------------------------
 # B3LYP/6-311++G(d,p) empiricaldispersion=gd3bj scf=xqc pop=npa geom=c
 heck
 ----------------------------------------------------------------------

 --------------------------------------
 CID_82477103_JID_8726_Energie_neutraal
 --------------------------------------
 Structure from the checkpoint file:  "JID_8726.chk"
 Charge =  0 Multiplicity = 1

 SCF Done:  E(RB3LYP) =  -781.072783739     A.U. after   16 cycles
 Normal termination of Gaussian 16 at Fri Dec 11 22:27:45 2020.

 ----------------------------------------------------------------------
 # B3LYP/6-311++G(d,p) empiricaldispersion=gd3bj scf=xqc pop=npa geom=c
 heck
 ----------------------------------------------------------------------

 ------------------------------------
 CID_82477103_JID_8726_Energie_kation
 ------------------------------------
 Structure from the checkpoint file:  "JID_8726.chk"
 Charge =  1 Multiplicity = 2

 SCF Done:  E(UB3LYP) =  -780.789446958     A.U. after   33 cycles
 SCF Done:  E(UB3LYP) =  -780.789446958     a.u. after    1 cycles
 Normal termination of Gaussian 16 at Fri Dec 11 22:41:44 2020.
 Gaussian 16:  ES64L-G16RevA.03 25-Dec-2016

 ----------------------------------------------------------------------
 # B3LYP/6-311++G(d,p) empiricaldispersion=gd3bj scf=xqc pop=npa geom=c
 heck
 ----------------------------------------------------------------------

 -----------------------------------
 CID_82477103_JID_8726_Energie_anion
 -----------------------------------
 Structure from the checkpoint file:  "JID_8726.chk"
 Charge = -1 Multiplicity = 2

                         Standard orientation:
 ---------------------------------------------------------------------
 Center     Atomic      Atomic             Coordinates (Angstroms)
 Number     Number       Type             X           Y           Z
 ---------------------------------------------------------------------
      1          6           0        1.742424    2.240023   -0.909549
      2          6           0        2.630127    2.473635    0.140203
      3          6           0        3.254157    1.407265    0.780856
      4          6           0        2.993378    0.084903    0.394475
      5          6           0        2.091073   -0.161646   -0.662817
      6          6           0        1.485059    0.925851   -1.296981
      7          6           0        1.713442   -1.572160   -1.047286
      8          6           0        0.767905   -2.226401   -0.009114
      9          6           0       -0.474681   -1.431358    0.178368
     10          7           0       -0.966384   -0.941904    1.268792
     11          6           0       -2.111846   -0.251554    0.861513
     12          6           0       -2.238723   -0.378852   -0.532985
     13          8           0       -1.193046   -1.141150   -0.978516
     14          6           0       -3.280085    0.207317   -1.225668
     15          6           0       -4.174232    0.923871   -0.422647
     16          6           0       -3.975204    1.000622    0.965984
     17          7           0       -2.961345    0.426767    1.629438
     18          7           0        3.574656   -0.982328    1.097018
     19          1           0        1.254119    3.066567   -1.416291
     20          1           0        2.844923    3.489082    0.461289
     21          1           0        3.947955    1.592664    1.597967
     22          1           0        0.785629    0.727770   -2.105309
     23          1           0        1.219539   -1.563791   -2.023529
     24          1           0        2.596197   -2.217298   -1.158185
     25          1           0        0.508873   -3.241472   -0.337921
     26          1           0        1.255248   -2.294088    0.965848
     27          1           0       -3.396215    0.121192   -2.300785
     28          1           0       -5.027856    1.424563   -0.867878
     29          1           0       -4.680981    1.561195    1.575066
     30          1           0        3.795875   -1.792276    0.529780
     31          1           0        4.375805   -0.711746    1.655229
 ---------------------------------------------------------------------

 SCF Done:  E(UB3LYP) =  -781.073796050     A.U. after   33 cycles
 SCF Done:  E(UB3LYP) =  -781.073796050     a.u. after    1 cycles

 The electronic state is 2-A.
 Alpha  occ. eigenvalues --  -19.07368 -14.21619 -14.18270 -14.17551 -10.13523
 Alpha  occ. eigenvalues --  -10.11429 -10.11250 -10.09991 -10.08389 -10.07550
 Alpha  occ. eigenvalues --  -10.07444 -10.07308 -10.07253 -10.07036 -10.07030
 Alpha  occ. eigenvalues --  -10.06664 -10.06644 -10.06030  -1.00608  -0.83169
 Alpha  occ. eigenvalues --   -0.82089  -0.78788  -0.74218  -0.70227  -0.68612
 Alpha  occ. eigenvalues --   -0.65028  -0.63062  -0.61346  -0.55801  -0.51842
 Alpha  occ. eigenvalues --   -0.51089  -0.50626  -0.48609  -0.46979  -0.42197
 Alpha  occ. eigenvalues --   -0.41305  -0.40915  -0.39638  -0.37706  -0.36969
 Alpha  occ. eigenvalues --   -0.36011  -0.34455  -0.33482  -0.32451  -0.32131
 Alpha  occ. eigenvalues --   -0.30741  -0.30035  -0.29114  -0.28572  -0.27558
 Alpha  occ. eigenvalues --   -0.26692  -0.26100  -0.25962  -0.24503  -0.23613
 Alpha  occ. eigenvalues --   -0.21411  -0.21104  -0.17719  -0.15589  -0.14923
 Alpha  occ. eigenvalues --   -0.13742  -0.12560  -0.11088   0.03949
 Alpha virt. eigenvalues --    0.05962   0.07412   0.07596   0.08243   0.08814
 Alpha virt. eigenvalues --    0.09291   0.09477   0.09870   0.10478   0.10621
 Alpha virt. eigenvalues --    0.10790   0.11612   0.12519   0.13102   0.13864

  Beta  occ. eigenvalues --  -19.07360 -14.21571 -14.18287 -14.17240 -10.13249
  Beta  occ. eigenvalues --  -10.11482 -10.11248 -10.09919 -10.08407 -10.07544
  Beta  occ. eigenvalues --  -10.07445 -10.07277 -10.07247 -10.07030 -10.07023
  Beta  occ. eigenvalues --  -10.06665 -10.06421 -10.05954  -1.00517  -0.82851
  Beta  occ. eigenvalues --   -0.82026  -0.78570  -0.74184  -0.70073  -0.68275
  Beta  occ. eigenvalues --   -0.64882  -0.63013  -0.61249  -0.55616  -0.51773
  Beta  occ. eigenvalues --   -0.51030  -0.50375  -0.48502  -0.46870  -0.42123
  Beta  occ. eigenvalues --   -0.41258  -0.40768  -0.39527  -0.37586  -0.36674
  Beta  occ. eigenvalues --   -0.35832  -0.34398  -0.33396  -0.32381  -0.32078
  Beta  occ. eigenvalues --   -0.30664  -0.29915  -0.28985  -0.28487  -0.27481
  Beta  occ. eigenvalues --   -0.26284  -0.26053  -0.25577  -0.24432  -0.23553
  Beta  occ. eigenvalues --   -0.21239  -0.20643  -0.17655  -0.14895  -0.14500
  Beta  occ. eigenvalues --   -0.13449  -0.11833  -0.11057
  Beta virt. eigenvalues --    0.06746   0.07558   0.07729   0.08298   0.08578
  Beta virt. eigenvalues --    0.09083   0.09406   0.09673   0.09963   0.10556
  Beta virt. eigenvalues --    0.10879   0.11094   0.11706   0.12793   0.13166

 Mulliken charges and spin densities:
               1          2
     1  C   -0.512491  -0.005325
     2  C   -0.058583  -0.324172
     3  C    0.216077  -0.314950
     4  C   -0.494057  -0.320714
     5  C   -0.045879   1.430726
     6  C   -0.197547   0.193299
     7  C    1.655298  -2.333955
     8  C   -0.504875   0.550593
     9  C    0.024941  -0.323566
    10  N    0.004962  -0.011948
    11  C   -0.388229  -0.039954
    12  C    0.579740  -0.044378
    13  O   -0.044074   0.004809
    14  C   -0.563481   0.162736
    15  C   -0.078803   0.075442
    16  C   -0.226606  -0.010274
    17  N   -0.107086   0.146146
    18  N   -0.355352   0.039814
    19  H    0.131828   0.016697
    20  H    0.139629  -0.012649
    21  H   -0.037677   0.171561
    22  H    0.094104   0.067560
    23  H    0.196134  -0.027956
    24  H   -0.757386   0.951747
    25  H   -0.093507   0.281677
    26  H    0.225691  -0.034283
    27  H    0.141673  -0.008801
    28  H    0.127798  -0.004619
    29  H    0.156532  -0.000573
    30  H   -0.187222   0.437027
    31  H   -0.041550   0.288282
 Sum of Mulliken charges =  -1.00000   1.00000

 Dipole moment (field-independent basis, Debye):
    X=             -1.6946    Y=              3.9206    Z=             -3.1021  Tot=              5.2788
 Quadrupole moment (field-independent basis, Debye-Ang):
   XX=           -163.4987   YY=           -132.7622   ZZ=           -130.6297
   XY=             13.3657   XZ=             11.5396   YZ=             -1.4297

 Summary of Natural Population Analysis:

                                       Natural Population
                Natural  -----------------------------------------------
    Atom  No    Charge         Core      Valence    Rydberg      Total
 -----------------------------------------------------------------------
      C    1   -0.12127      0.99956     2.11260    0.00910     3.12127
      C    2   -0.09685      0.99957     2.08879    0.00849     3.09685
      C    3   -0.12377      0.99952     2.11467    0.00957     3.12377
      C    4    0.08886      0.99943     1.89995    0.01176     2.91114
      C    5   -0.03631      0.99947     2.02581    0.01104     3.03631
      C    6   -0.08900      0.99952     2.07955    0.00994     3.08900
      C    7   -0.19269      0.99960     2.18222    0.01087     3.19269
      C    8   -0.22150      0.99957     2.21205    0.00988     3.22150
      C    9    0.32782      0.99959     1.65137    0.02123     2.67218
      N   10   -0.25582      0.99965     2.74797    0.00820     3.75582
      C   11    0.16411      0.99945     1.81931    0.01713     2.83589
      C   12    0.11048      0.99933     1.87788    0.01231     2.88952
      O   13   -0.25400      0.99986     3.24742    0.00672     4.25400
      C   14   -0.07499      0.99953     2.06725    0.00821     3.07499
      C   15   -0.12035      0.99959     2.11217    0.00859     3.12035
      C   16    0.00827      0.99961     1.97758    0.01454     2.99173
      N   17   -0.19034      0.99967     2.67770    0.01297     3.69034
      N   18   -0.39583      0.99972     2.88614    0.00997     3.89583
      H   19    0.09789      0.00000     0.40130    0.00081     0.40211
      H   20    0.09607      0.00000     0.40314    0.00078     0.40393
      H   21    0.09538      0.00000     0.40338    0.00124     0.40462
      H   22    0.10071      0.00000     0.39784    0.00145     0.39929
      H   23    0.10397      0.00000     0.39455    0.00147     0.39603
      H   24    0.10357      0.00000     0.39315    0.00328     0.39643
      H   25    0.11052      0.00000     0.38818    0.00129     0.38948
      H   26    0.11857      0.00000     0.37949    0.00193     0.38143
      H   27    0.09773      0.00000     0.40078    0.00149     0.40227
      H   28    0.09438      0.00000     0.40448    0.00114     0.40562
      H   29    0.08197      0.00000     0.41658    0.00144     0.41803
      H   30    0.18960      0.00000     0.30635    0.00405     0.31040
      H   31    0.18281      0.00000     0.31542    0.00177     0.31719
 =======================================================================
   * Total *    0.00000     17.99224    44.78510    0.22266    63.00000

 Normal termination of Gaussian 16 at Fri Dec 11 22:55:49 2020.
