 Gaussian 16, Revision A.03,

 -----------------------------------------------------------
 # opt freq B3LYP/6-31G(d) empiricaldispersion=gd3bj scf=xqc
 -----------------------------------------------------------

 ------------------------------
 CID_11074406_JID_4162_neutraal
 ------------------------------
 Symbolic Z-matrix:
 Charge =  0 Multiplicity = 1

 SCF Done:  E(RB3LYP) =  -656.903803005     A.U. after   13 cycles
 SCF Done:  E(RB3LYP) =  -656.907682374     A.U. after   11 cycles
 SCF Done:  E(RB3LYP) =  -656.908104227     A.U. after   10 cycles
 SCF Done:  E(RB3LYP) =  -656.908213014     A.U. after   10 cycles
 SCF Done:  E(RB3LYP) =  -656.908274017     A.U. after    9 cycles
 SCF Done:  E(RB3LYP) =  -656.908315687     A.U. after    9 cycles
 SCF Done:  E(RB3LYP) =  -656.908338485     A.U. after    9 cycles
 SCF Done:  E(RB3LYP) =  -656.908347711     A.U. after    9 cycles
 SCF Done:  E(RB3LYP) =  -656.908349484     A.U. after    7 cycles
 SCF Done:  E(RB3LYP) =  -656.908352743     A.U. after    9 cycles
 SCF Done:  E(RB3LYP) =  -656.908353741     A.U. after    7 cycles
 SCF Done:  E(RB3LYP) =  -656.908353930     A.U. after    7 cycles
 SCF Done:  E(RB3LYP) =  -656.908353899     A.U. after    7 cycles
 SCF Done:  E(RB3LYP) =  -656.908353824     A.U. after    6 cycles
 Optimization completed.
    -- Stationary point found.
 Normal termination of Gaussian 16 at Thu Dec 10 09:21:47 2020.

 --------------------------------------------------------------------
 #N Geom=AllCheck Guess=TCheck SCRF=Check GenChk RB3LYP/6-31G(d) Freq
 --------------------------------------------------------------------

 Structure from the checkpoint file:  "JID_4162.chk"
 ------------------------------
 CID_11074406_JID_4162_neutraal
 ------------------------------
 Charge =  0 Multiplicity = 1

 SCF Done:  E(RB3LYP) =  -656.908353824     A.U. after    1 cycles

  Exact polarizability: 124.571  -1.347 117.042  -0.071  -4.913 110.856
 Approx polarizability: 165.424  -0.121 170.159   1.787  -5.136 166.857

                      1                      2                      3
                      A                      A                      A
 Frequencies --     44.1104                71.8546                97.0972
 Red. masses --      5.2821                 3.1865                 2.1826
 Frc consts  --      0.0061                 0.0097                 0.0121
 IR Inten    --      0.3427                 5.7784                 5.4995

                      4                      5                      6
                      A                      A                      A
 Frequencies --    139.5208               168.1798               199.7144
 Red. masses --      4.3631                 3.9692                 2.4325
 Frc consts  --      0.0500                 0.0661                 0.0572
 IR Inten    --      1.9770                 3.3670                 3.8062

                      7                      8                      9
                      A                      A                      A
 Frequencies --    248.6890               276.6968               284.4449
 Red. masses --      2.0534                 1.5080                 1.7776
 Frc consts  --      0.0748                 0.0680                 0.0847
 IR Inten    --     44.0165                84.0023                73.5505

                     10                     11                     12
                      A                      A                      A
 Frequencies --    299.4174               309.1929               327.1807
 Red. masses --      1.5269                 1.5862                 2.6093
 Frc consts  --      0.0807                 0.0893                 0.1646
 IR Inten    --     31.5378                49.4293                 3.9775

                     13                     14                     15
                      A                      A                      A
 Frequencies --    334.3326               351.0848               374.5862
 Red. masses --      1.7262                 2.9255                 2.5571
 Frc consts  --      0.1137                 0.2125                 0.2114
 IR Inten    --     60.4032                29.2631                 0.4054

                     16                     17                     18
                      A                      A                      A
 Frequencies --    391.8428               423.2952               448.8704
 Red. masses --      2.6219                 3.1245                 2.3459
 Frc consts  --      0.2372                 0.3298                 0.2785
 IR Inten    --      2.9052                 6.3263                 2.4002

                     19                     20                     21
                      A                      A                      A
 Frequencies --    464.1449               508.3785               528.6441
 Red. masses --      2.5528                 2.7978                 2.6787
 Frc consts  --      0.3240                 0.4260                 0.4411
 IR Inten    --      2.5123                 1.9561                 6.2534

                     22                     23                     24
                      A                      A                      A
 Frequencies --    605.0036               686.9217               699.3051
 Red. masses --      4.5293                 3.7356                 2.9948
 Frc consts  --      0.9768                 1.0385                 0.8629
 IR Inten    --      0.7442                 0.1200                 0.8790

                     25                     26                     27
                      A                      A                      A
 Frequencies --    763.4651               796.2065               817.9675
 Red. masses --      2.9178                 3.0494                 2.0500
 Frc consts  --      1.0020                 1.1390                 0.8081
 IR Inten    --      2.5350                 3.1020                 5.1662

                     28                     29                     30
                      A                      A                      A
 Frequencies --    855.0987               873.5063               890.2275
 Red. masses --      2.0558                 2.0157                 1.9548
 Frc consts  --      0.8857                 0.9062                 0.9128
 IR Inten    --      2.9141                 1.6437                 5.9481

                     31                     32                     33
                      A                      A                      A
 Frequencies --    910.5369               948.6691               955.3503
 Red. masses --      1.8795                 2.1913                 2.2797
 Frc consts  --      0.9181                 1.1619                 1.2259
 IR Inten    --     18.3969                 3.5523                 5.1690

                     34                     35                     36
                      A                      A                      A
 Frequencies --    983.9644               993.1165              1023.8169
 Red. masses --      1.8508                 2.0878                 1.8149
 Frc consts  --      1.0558                 1.2132                 1.1208
 IR Inten    --     30.1781                 7.1919                18.5519

                     37                     38                     39
                      A                      A                      A
 Frequencies --   1035.3806              1046.6734              1081.2010
 Red. masses --      2.1580                 2.0822                 3.6864
 Frc consts  --      1.3630                 1.3440                 2.5390
 IR Inten    --     46.0490                16.6701                51.1794

                     40                     41                     42
                      A                      A                      A
 Frequencies --   1084.4722              1089.1713              1103.5389
 Red. masses --      3.8344                 2.4282                 2.1386
 Frc consts  --      2.6570                 1.6972                 1.5345
 IR Inten    --     67.2560                45.3424                45.2721

                     43                     44                     45
                      A                      A                      A
 Frequencies --   1112.8405              1125.2876              1150.6068
 Red. masses --      2.3759                 1.9197                 1.7789
 Frc consts  --      1.7336                 1.4323                 1.3876
 IR Inten    --     58.0116                 7.2144                 3.9367

                     46                     47                     48
                      A                      A                      A
 Frequencies --   1168.2503              1195.9793              1199.6652
 Red. masses --      1.3627                 1.1111                 1.4533
 Frc consts  --      1.0958                 0.9364                 1.2323
 IR Inten    --     16.4579                31.0388                 6.1564

                     49                     50                     51
                      A                      A                      A
 Frequencies --   1217.1546              1236.9679              1252.8313
 Red. masses --      1.1849                 1.2873                 1.2985
 Frc consts  --      1.0342                 1.1605                 1.2008
 IR Inten    --     17.7541                 9.7422                 3.6370

                     52                     53                     54
                      A                      A                      A
 Frequencies --   1293.7805              1300.9282              1311.8015
 Red. masses --      1.3111                 1.3573                 1.4001
 Frc consts  --      1.2930                 1.3534                 1.4196
 IR Inten    --      4.1204                 7.9445                 2.6035

                     55                     56                     57
                      A                      A                      A
 Frequencies --   1322.9420              1344.8465              1362.0061
 Red. masses --      1.3936                 1.4567                 1.5550
 Frc consts  --      1.4370                 1.5522                 1.6996
 IR Inten    --     18.9073                12.9076                 3.8180

                     58                     59                     60
                      A                      A                      A
 Frequencies --   1367.5913              1372.8274              1381.0097
 Red. masses --      1.3623                 1.4746                 1.4066
 Frc consts  --      1.5011                 1.6374                 1.5805
 IR Inten    --      9.6113                 0.7443                 2.5141

                     61                     62                     63
                      A                      A                      A
 Frequencies --   1386.7612              1395.0151              1402.5083
 Red. masses --      1.5626                 1.4478                 1.3612
 Frc consts  --      1.7705                 1.6601                 1.5775
 IR Inten    --      4.5838                 0.2566                 5.4048

                     64                     65                     66
                      A                      A                      A
 Frequencies --   1407.2420              1419.7108              1420.7470
 Red. masses --      1.3003                 1.2613                 1.3226
 Frc consts  --      1.5171                 1.4978                 1.5730
 IR Inten    --     23.0194                23.6541                14.2954

                     67                     68                     69
                      A                      A                      A
 Frequencies --   1432.6726              1443.8860              1446.0988
 Red. masses --      1.3178                 1.3252                 1.5152
 Frc consts  --      1.5936                 1.6277                 1.8669
 IR Inten    --     34.3774                16.3510                 7.4716

                     70                     71                     72
                      A                      A                      A
 Frequencies --   1513.8548              1521.3464              1527.2834
 Red. masses --      1.0847                 1.0936                 1.0862
 Frc consts  --      1.4646                 1.4912                 1.4928
 IR Inten    --      1.2726                 2.0942                 8.1297

                     73                     74                     75
                      A                      A                      A
 Frequencies --   1529.5022              1534.7554              1546.0538
 Red. masses --      1.0877                 1.0829                 1.0928
 Frc consts  --      1.4991                 1.5029                 1.5390
 IR Inten    --      4.7866                 3.9725                 6.6382

                     76                     77                     78
                      A                      A                      A
 Frequencies --   1554.2072              3012.0350              3021.0001
 Red. masses --      1.0815                 1.0675                 1.0675
 Frc consts  --      1.5391                 5.7063                 5.7401
 IR Inten    --      4.8874                35.2543                26.8434

                     79                     80                     81
                      A                      A                      A
 Frequencies --   3027.8227              3037.2172              3042.2688
 Red. masses --      1.0704                 1.0822                 1.0721
 Frc consts  --      5.7819                 5.8817                 5.8462
 IR Inten    --      8.4316                 8.8789                13.6731

                     82                     83                     84
                      A                      A                      A
 Frequencies --   3045.8224              3052.1032              3056.9783
 Red. masses --      1.0742                 1.0691                 1.0718
 Frc consts  --      5.8716                 5.8676                 5.9012
 IR Inten    --     36.4068                54.6275                56.8686

                     85                     86                     87
                      A                      A                      A
 Frequencies --   3062.7238              3064.3576              3067.8287
 Red. masses --      1.0682                 1.0888                 1.0777
 Frc consts  --      5.9037                 6.0238                 5.9759
 IR Inten    --     34.0553                52.8679                22.8078

                     88                     89                     90
                      A                      A                      A
 Frequencies --   3078.1480              3080.0147              3090.1407
 Red. masses --      1.0912                 1.0953                 1.1006
 Frc consts  --      6.0917                 6.1217                 6.1922
 IR Inten    --     35.3090                58.1646                64.9493

                     91                     92                     93
                      A                      A                      A
 Frequencies --   3097.1873              3107.0002              3107.8185
 Red. masses --      1.0986                 1.1011                 1.1039
 Frc consts  --      6.2093                 6.2627                 6.2822
 IR Inten    --     60.2613                40.0992                21.4686

                     94                     95                     96
                      A                      A                      A
 Frequencies --   3718.6245              3754.5537              3765.1781
 Red. masses --      1.0660                 1.0660                 1.0662
 Frc consts  --      8.6847                 8.8538                 8.9055
 IR Inten    --      5.7535                 6.6831                10.1258

 - Thermochemistry -
 -------------------
 Temperature   298.150 Kelvin.  Pressure   1.00000 Atm.
 Atom     1 has atomic number  6 and mass  12.00000

 Molecular mass:   200.14124 amu.
 Principal axes and moments of inertia in atomic units:
                           1         2         3
     Eigenvalues --  2055.017773242.315954120.09756
           X            0.99996  -0.00843  -0.00128
           Y            0.00841   0.99975  -0.02067
           Z            0.00145   0.02066   0.99979
 This molecule is an asymmetric top.
 Rotational symmetry number  1.
 Warning -- assumption of classical behavior for rotation
           may cause significant error
 Rotational temperatures (Kelvin)      0.04215     0.02671     0.02102
 Rotational constants (GHZ):           0.87821     0.55662     0.43803
 Zero-point vibrational energy     807614.8 (Joules/Mol)
                                  193.02458 (Kcal/Mol)
 Warning -- explicit consideration of  22 degrees of freedom as
           vibrations may cause significant error
 Vibrational temperatures:     63.47   103.38   139.70   200.74   241.97
          (Kelvin)            287.34   357.81   398.11   409.25   430.79
                              444.86   470.74   481.03   505.13   538.95
                              563.77   609.03   645.82   667.80   731.44
                              760.60   870.47   988.33  1006.14  1098.46
                             1145.56  1176.87  1230.30  1256.78  1280.84
                             1310.06  1364.92  1374.54  1415.71  1428.87
                             1473.04  1489.68  1505.93  1555.61  1560.31
                             1567.07  1587.75  1601.13  1619.04  1655.47
                             1680.85  1720.75  1726.05  1751.21  1779.72
                             1802.54  1861.46  1871.75  1887.39  1903.42
                             1934.93  1959.62  1967.66  1975.19  1986.97
                             1995.24  2007.12  2017.90  2024.71  2042.65
                             2044.14  2061.30  2077.43  2080.61  2178.10
                             2188.88  2197.42  2200.61  2208.17  2224.43
                             2236.16  4333.65  4346.55  4356.36  4369.88
                             4377.15  4382.26  4391.30  4398.31  4406.58
                             4408.93  4413.92  4428.77  4431.45  4446.02
                             4456.16  4470.28  4471.46  5350.27  5401.97
                             5417.25

 Zero-point correction=                           0.307604 (Hartree/Particle)
 Thermal correction to Energy=                    0.321432
 Thermal correction to Enthalpy=                  0.322377
 Thermal correction to Gibbs Free Energy=         0.267923
 Sum of electronic and zero-point Energies=           -656.600750
 Sum of electronic and thermal Energies=              -656.586921
 Sum of electronic and thermal Enthalpies=            -656.585977
 Sum of electronic and thermal Free Energies=         -656.640431

                     E (Thermal)             CV                S
                      KCal/Mol        Cal/Mol-Kelvin    Cal/Mol-Kelvin
 Total                  201.702             55.475            114.607
 Electronic               0.000              0.000              0.000
 Translational            0.889              2.981             41.786
 Rotational               0.889              2.981             31.685
 Vibrational            199.924             49.513             41.136
 Vibration     1          0.595              1.980              5.065
 Vibration     2          0.598              1.967              4.102
 Vibration     3          0.603              1.951              3.512
 Vibration     4          0.615              1.914              2.810
 Vibration     5          0.625              1.882              2.456
 Vibration     6          0.638              1.840              2.136
 Vibration     7          0.662              1.765              1.740
 Vibration     8          0.678              1.717              1.554
 Vibration     9          0.683              1.703              1.507
 Vibration    10          0.692              1.675              1.420
 Vibration    11          0.699              1.656              1.367
 Vibration    12          0.711              1.621              1.274
 Vibration    13          0.716              1.607              1.239
 Vibration    14          0.728              1.573              1.161
 Vibration    15          0.746              1.524              1.061
 Vibration    16          0.759              1.488              0.993
 Vibration    17          0.785              1.420              0.881
 Vibration    18          0.808              1.363              0.799
 Vibration    19          0.822              1.330              0.754
 Vibration    20          0.864              1.231              0.638
 Vibration    21          0.884              1.187              0.590
 Vibration    22          0.964              1.021              0.441

                           ! Non-Optimized Parameters !
 Normal termination of Gaussian 16 at Thu Dec 10 09:33:48 2020.

 ----------------------------------------------------------------------
 # B3LYP/6-311++G(d,p) empiricaldispersion=gd3bj scf=xqc pop=npa geom=c
 heck
 ----------------------------------------------------------------------

 --------------------------------------
 CID_11074406_JID_4162_Energie_neutraal
 --------------------------------------
 Structure from the checkpoint file:  "JID_4162.chk"
 Charge =  0 Multiplicity = 1

 SCF Done:  E(RB3LYP) =  -657.122415883     A.U. after   13 cycles
 Normal termination of Gaussian 16 at Thu Dec 10 09:38:22 2020.

 ----------------------------------------------------------------------
 # B3LYP/6-311++G(d,p) empiricaldispersion=gd3bj scf=xqc pop=npa geom=c
 heck
 ----------------------------------------------------------------------

 ------------------------------------
 CID_11074406_JID_4162_Energie_kation
 ------------------------------------
 Structure from the checkpoint file:  "JID_4162.chk"
 Charge =  1 Multiplicity = 2

 SCF Done:  E(UB3LYP) =  -656.783675816     A.U. after   27 cycles
 Normal termination of Gaussian 16 at Thu Dec 10 09:50:41 2020.
 Gaussian 16:  ES64L-G16RevA.03 25-Dec-2016

 ----------------------------------------------------------------------
 # B3LYP/6-311++G(d,p) empiricaldispersion=gd3bj scf=xqc pop=npa geom=c
 heck
 ----------------------------------------------------------------------

 -----------------------------------
 CID_11074406_JID_4162_Energie_anion
 -----------------------------------
 Structure from the checkpoint file:  "JID_4162.chk"
 Charge = -1 Multiplicity = 2

                         Standard orientation:
 ---------------------------------------------------------------------
 Center     Atomic      Atomic             Coordinates (Angstroms)
 Number     Number       Type             X           Y           Z
 ---------------------------------------------------------------------
      1          6           0       -1.554259   -0.420905    1.443526
      2          6           0       -0.019898   -0.310122    1.526076
      3          6           0        0.712498   -1.273822    0.550373
      4          6           0        1.421089   -0.614785   -0.660298
      5          6           0        0.749492    0.686074   -1.181006
      6          6           0       -0.016856    1.547277   -0.137057
      7          6           0        0.381578    1.151106    1.281314
      8          6           0       -1.550905    1.445379   -0.273167
      9          6           0       -2.179010    0.093751    0.129053
     10          6           0       -2.189901   -0.925632   -1.026070
     11          8           0       -2.878046   -2.126955   -0.695673
     12          8           0        0.356252    2.926595   -0.279921
     13          6           0        2.915536   -0.348438   -0.378320
     14          8           0        3.655611   -1.529247   -0.097322
     15          1           0       -1.872029   -1.455531    1.627987
     16          1           0       -1.976012    0.167740    2.268886
     17          1           0        0.263327   -0.579463    2.550630
     18          1           0        0.006283   -2.029665    0.190963
     19          1           0        1.461159   -1.853623    1.103735
     20          1           0        1.421881   -1.347767   -1.475860
     21          1           0        1.537849    1.332972   -1.583977
     22          1           0        0.088827    0.456285   -2.023415
     23          1           0       -0.132395    1.810552    1.990573
     24          1           0        1.455182    1.310868    1.422776
     25          1           0       -1.840550    1.701131   -1.304084
     26          1           0       -1.964082    2.230214    0.371332
     27          1           0       -3.241749    0.274693    0.335883
     28          1           0       -2.747890   -0.491295   -1.862837
     29          1           0       -1.183907   -1.148922   -1.396768
     30          1           0       -2.314868   -2.630922   -0.089490
     31          1           0        0.052404    3.217641   -1.155204
     32          1           0        3.369721    0.073474   -1.280955
     33          1           0        3.040247    0.395004    0.422597
     34          1           0        3.489883   -1.775824    0.824010
 ---------------------------------------------------------------------

 SCF Done:  E(UB3LYP) =  -657.113792119     A.U. after   26 cycles

 The electronic state is 2-A.
 Alpha  occ. eigenvalues --  -19.02537 -19.02243 -19.02132 -10.12781 -10.11468
 Alpha  occ. eigenvalues --  -10.11376 -10.07674 -10.07574 -10.06977 -10.06957
 Alpha  occ. eigenvalues --  -10.06899 -10.06338 -10.06327 -10.05938  -0.92645
 Alpha  occ. eigenvalues --   -0.92575  -0.92258  -0.75013  -0.69670  -0.66350
 Alpha  occ. eigenvalues --   -0.64910  -0.58394  -0.57906  -0.57695  -0.50988
 Alpha  occ. eigenvalues --   -0.49199  -0.47114  -0.42911  -0.41521  -0.40868
 Alpha  occ. eigenvalues --   -0.40686  -0.37695  -0.36031  -0.35835  -0.34314
 Alpha  occ. eigenvalues --   -0.34171  -0.32520  -0.32018  -0.30922  -0.29880
 Alpha  occ. eigenvalues --   -0.29531  -0.28067  -0.26567  -0.25265  -0.24745
 Alpha  occ. eigenvalues --   -0.24018  -0.23763  -0.23259  -0.22974  -0.21521
 Alpha  occ. eigenvalues --   -0.20934  -0.18753  -0.17716  -0.17362  -0.17094
 Alpha  occ. eigenvalues --    0.04173
 Alpha virt. eigenvalues --    0.06079   0.07452   0.07626   0.08672   0.08952
 Alpha virt. eigenvalues --    0.09583   0.10210   0.10441   0.11901   0.12170
 Alpha virt. eigenvalues --    0.12530   0.12650   0.13141   0.13511   0.13812

  Beta  occ. eigenvalues --  -19.02513 -19.02222 -19.02095 -10.12783 -10.11453
  Beta  occ. eigenvalues --  -10.11361 -10.07671 -10.07570 -10.06959 -10.06947
  Beta  occ. eigenvalues --  -10.06880 -10.06303 -10.06300 -10.05919  -0.92604
  Beta  occ. eigenvalues --   -0.92529  -0.92180  -0.74977  -0.69637  -0.66311
  Beta  occ. eigenvalues --   -0.64870  -0.58326  -0.57860  -0.57641  -0.50937
  Beta  occ. eigenvalues --   -0.49144  -0.47078  -0.42850  -0.41452  -0.40805
  Beta  occ. eigenvalues --   -0.40613  -0.37656  -0.35983  -0.35799  -0.34290
  Beta  occ. eigenvalues --   -0.34134  -0.32482  -0.31988  -0.30888  -0.29839
  Beta  occ. eigenvalues --   -0.29501  -0.28030  -0.26537  -0.25237  -0.24713
  Beta  occ. eigenvalues --   -0.23990  -0.23730  -0.23223  -0.22943  -0.21477
  Beta  occ. eigenvalues --   -0.20900  -0.18709  -0.17684  -0.17333  -0.17068
  Beta virt. eigenvalues --    0.06488   0.07338   0.07948   0.08177   0.09113
  Beta virt. eigenvalues --    0.09444   0.09993   0.10460   0.10726   0.12267
  Beta virt. eigenvalues --    0.12561   0.12765   0.13001   0.13503   0.13622

 Mulliken charges and spin densities:
               1          2
     1  C    0.248373  -1.054863
     2  C    0.237152   0.056060
     3  C    0.398929  -0.558774
     4  C   -0.252123   0.157678
     5  C   -0.125412  -0.131837
     6  C    0.209283  -0.367304
     7  C   -0.060535  -0.295849
     8  C   -0.238892  -0.478085
     9  C   -0.124790   0.657862
    10  C    0.498920  -1.184197
    11  O   -0.239629   0.024876
    12  O   -0.205695   0.016338
    13  C    0.391595  -0.954172
    14  O   -0.241939  -0.000599
    15  H   -0.283396   0.410037
    16  H    0.021847   0.118375
    17  H   -0.754956   1.018976
    18  H   -0.265744   0.403682
    19  H   -0.394245   0.512728
    20  H    0.127247   0.055375
    21  H    0.107265   0.057888
    22  H   -0.157053   0.316833
    23  H   -0.051355   0.235995
    24  H    0.094986   0.056625
    25  H   -0.314754   0.481058
    26  H   -0.015118   0.198591
    27  H    0.009124   0.199570
    28  H    0.004886   0.170009
    29  H    0.157414   0.026580
    30  H    0.140717   0.102342
    31  H    0.056389   0.187228
    32  H    0.028709   0.146203
    33  H    0.041001   0.118140
    34  H   -0.048201   0.296632
 Sum of Mulliken charges =  -1.00000   1.00000

 Dipole moment (field-independent basis, Debye):
    X=             -0.8802    Y=              2.3590    Z=             -2.8169  Tot=              3.7781
 Quadrupole moment (field-independent basis, Debye-Ang):
   XX=           -145.0604   YY=           -136.0144   ZZ=           -128.3292
   XY=              3.5179   XZ=             -5.5477   YZ=              4.0408

 Summary of Natural Population Analysis:

                                       Natural Population
                Natural  -----------------------------------------------
    Atom  No    Charge         Core      Valence    Rydberg      Total
 -----------------------------------------------------------------------
      C    1   -0.18509      0.99959     2.17441    0.01109     3.18509
      C    2   -0.11602      0.99958     2.10178    0.01465     3.11602
      C    3   -0.18947      0.99960     2.17765    0.01222     3.18947
      C    4   -0.12667      0.99958     2.11612    0.01097     3.12667
      C    5   -0.20455      0.99956     2.19409    0.01090     3.20455
      C    6    0.13238      0.99948     1.85299    0.01515     2.86762
      C    7   -0.19473      0.99956     2.18398    0.01119     3.19473
      C    8   -0.19894      0.99956     2.18782    0.01156     3.19894
      C    9   -0.12586      0.99958     2.11474    0.01154     3.12586
      C   10   -0.00647      0.99955     1.99568    0.01125     3.00647
      O   11   -0.36949      0.99990     3.36316    0.00644     4.36949
      O   12   -0.37585      0.99989     3.36911    0.00685     4.37585
      C   13   -0.00253      0.99955     1.99024    0.01273     3.00253
      O   14   -0.37067      0.99990     3.36435    0.00642     4.37067
      H   15    0.09878      0.00000     0.39961    0.00161     0.40122
      H   16    0.10144      0.00000     0.39725    0.00131     0.39856
      H   17    0.10478      0.00000     0.39192    0.00329     0.39522
      H   18    0.09610      0.00000     0.40189    0.00201     0.40390
      H   19    0.10232      0.00000     0.39480    0.00288     0.39768
      H   20    0.10023      0.00000     0.39822    0.00155     0.39977
      H   21    0.10583      0.00000     0.39267    0.00150     0.39417
      H   22    0.10071      0.00000     0.39815    0.00114     0.39929
      H   23    0.10464      0.00000     0.39407    0.00129     0.39536
      H   24    0.10353      0.00000     0.39512    0.00135     0.39647
      H   25    0.09763      0.00000     0.40079    0.00158     0.40237
      H   26    0.10565      0.00000     0.39309    0.00126     0.39435
      H   27    0.10029      0.00000     0.39804    0.00166     0.39971
      H   28    0.08479      0.00000     0.41388    0.00133     0.41521
      H   29    0.07904      0.00000     0.41918    0.00178     0.42096
      H   30    0.22900      0.00000     0.26787    0.00313     0.27100
      H   31    0.22609      0.00000     0.27114    0.00277     0.27391
      H   32    0.08278      0.00000     0.41599    0.00122     0.41722
      H   33    0.07840      0.00000     0.42036    0.00124     0.42160
      H   34    0.23192      0.00000     0.26384    0.00425     0.26808
 =======================================================================
   * Total *   -0.00000     13.99488    40.81400    0.19112    55.00000

 Normal termination of Gaussian 16 at Thu Dec 10 10:02:23 2020.
