 Gaussian 16, Revision A.03,

 -----------------------------------------------------------
 # opt freq B3LYP/6-31G(d) empiricaldispersion=gd3bj scf=xqc
 -----------------------------------------------------------

 -----------------------------
 CID_85742677_JID_350_neutraal
 -----------------------------
 Symbolic Z-matrix:
 Charge =  0 Multiplicity = 1

 SCF Done:  E(RB3LYP) =  -427.849405563     A.U. after   15 cycles
 SCF Done:  E(RB3LYP) =  -427.850899423     A.U. after   13 cycles
 SCF Done:  E(RB3LYP) =  -427.849957910     A.U. after   12 cycles
 SCF Done:  E(RB3LYP) =  -427.851183871     A.U. after   12 cycles
 SCF Done:  E(RB3LYP) =  -427.851525642     A.U. after   12 cycles
 SCF Done:  E(RB3LYP) =  -427.851599868     A.U. after   12 cycles
 SCF Done:  E(RB3LYP) =  -427.851663667     A.U. after   11 cycles
 SCF Done:  E(RB3LYP) =  -427.851693300     A.U. after   11 cycles
 SCF Done:  E(RB3LYP) =  -427.851723109     A.U. after   11 cycles
 SCF Done:  E(RB3LYP) =  -427.851738915     A.U. after   11 cycles
 SCF Done:  E(RB3LYP) =  -427.852544506     A.U. after    8 cycles
 SCF Done:  E(RB3LYP) =  -427.852545055     A.U. after    7 cycles
 SCF Done:  E(RB3LYP) =  -427.852545268     A.U. after    7 cycles
 SCF Done:  E(RB3LYP) =  -427.852545274     A.U. after    7 cycles
 Optimization completed.
    -- Stationary point found.

 1\1\GINC-NODE373\FOpt\RB3LYP\6-31G(d)\C9H16O1\VSC10255\08-Dec-2020\0\\
 # opt freq B3LYP/6-31G(d) empiricaldispersion=gd3bj scf=xqc\\CID_85742
 677_JID_350_neutraal\\0,1\C,1.607972141,-0.8284703963,0.1668012839\C,1
 .205932089,-1.2588238603,1.5810182798\C,0.7425746172,-0.1039885452,2.4
 821924804\C,-0.5141496846,0.6234617319,1.9932784453\C,-1.7825591794,-0
 .2239274021,2.0937399645\O,-1.7654601199,-1.2981561339,2.6820194131\C,
 -3.0666047488,0.2605411087,1.4958262912\C,-3.1334112126,1.4639544114,0
 .8952343842\C,-4.3247114479,2.1156716739,0.2630414345\C,-4.2188143136,

 Normal termination of Gaussian 16 at Tue Dec  8 10:37:36 2020.

 --------------------------------------------------------------------
 #N Geom=AllCheck Guess=TCheck SCRF=Check GenChk RB3LYP/6-31G(d) Freq
 --------------------------------------------------------------------

 Structure from the checkpoint file:  "JID_350.chk"
 -----------------------------
 CID_85742677_JID_350_neutraal
 -----------------------------
 Charge =  0 Multiplicity = 1

 SCF Done:  E(RB3LYP) =  -427.852545274     A.U. after    1 cycles

  Exact polarizability: 115.697 -12.428 103.140   2.416   5.205  76.236
 Approx polarizability: 140.638 -28.986 171.232   1.582  12.328 108.076

                      1                      2                      3
                      A                      A                      A
 Frequencies --     33.2425                42.4067                64.5404
 Red. masses --      3.0969                 2.7550                 2.9349
 Frc consts  --      0.0020                 0.0029                 0.0072
 IR Inten    --      0.1352                 0.2917                 1.0480

                      4                      5                      6
                      A                      A                      A
 Frequencies --    102.3860               121.5871               138.1552
 Red. masses --      1.0620                 1.0660                 2.2489
 Frc consts  --      0.0066                 0.0093                 0.0253
 IR Inten    --      0.5055                 0.3570                 2.2710

                      7                      8                      9
                      A                      A                      A
 Frequencies --    181.3859               191.6905               239.5338
 Red. masses --      2.5427                 2.2157                 2.2302
 Frc consts  --      0.0493                 0.0480                 0.0754
 IR Inten    --      0.2828                 0.5059                 2.4468

                     10                     11                     12
                      A                      A                      A
 Frequencies --    272.0528               324.2714               360.6275
 Red. masses --      1.5351                 2.5308                 3.2442
 Frc consts  --      0.0669                 0.1568                 0.2486
 IR Inten    --      0.5781                 0.7373                 9.6721

                     13                     14                     15
                      A                      A                      A
 Frequencies --    380.4943               408.0637               456.9092
 Red. masses --      2.2941                 2.5796                 2.3386
 Frc consts  --      0.1957                 0.2531                 0.2877
 IR Inten    --      0.0461                 0.0080                 0.6531

                     16                     17                     18
                      A                      A                      A
 Frequencies --    488.7092               593.9853               639.6637
 Red. masses --      4.7981                 2.2798                 2.8220
 Frc consts  --      0.6752                 0.4739                 0.6803
 IR Inten    --      2.4952                 3.3118                 8.7248

                     19                     20                     21
                      A                      A                      A
 Frequencies --    730.8346               778.8649               822.6100
 Red. masses --      2.1407                 1.4196                 2.0519
 Frc consts  --      0.6737                 0.5074                 0.8181
 IR Inten    --      5.5935                12.8080                 6.8015

                     22                     23                     24
                      A                      A                      A
 Frequencies --    865.5229               893.8533               924.2996
 Red. masses --      1.4366                 1.7510                 1.8152
 Frc consts  --      0.6341                 0.8243                 0.9137
 IR Inten    --      7.7812                 4.9412                 1.3632

                     25                     26                     27
                      A                      A                      A
 Frequencies --    963.8724               996.9636              1014.2521
 Red. masses --      2.0454                 1.7723                 1.6347
 Frc consts  --      1.1196                 1.0379                 0.9908
 IR Inten    --      1.4582                 4.6073                 7.6414

                     28                     29                     30
                      A                      A                      A
 Frequencies --   1074.5482              1075.8884              1085.6951
 Red. masses --      1.4985                 1.5501                 1.9330
 Frc consts  --      1.0194                 1.0572                 1.3424
 IR Inten    --      0.3647                 0.3584                 4.1877

                     31                     32                     33
                      A                      A                      A
 Frequencies --   1092.7277              1114.6127              1121.8726
 Red. masses --      1.8229                 1.8076                 2.0151
 Frc consts  --      1.2825                 1.3232                 1.4943
 IR Inten    --     91.3164                 0.7263                 2.4584

                     34                     35                     36
                      A                      A                      A
 Frequencies --   1154.7554              1227.0989              1265.7155
 Red. masses --      2.2027                 1.2520                 1.7915
 Frc consts  --      1.7305                 1.1107                 1.6910
 IR Inten    --      9.2606                 1.7383                30.6987

                     37                     38                     39
                      A                      A                      A
 Frequencies --   1291.5507              1336.7437              1378.5139
 Red. masses --      1.7125                 1.1828                 1.4733
 Frc consts  --      1.6831                 1.2452                 1.6496
 IR Inten    --     39.6253                14.9449                 8.5687

                     40                     41                     42
                      A                      A                      A
 Frequencies --   1398.1984              1407.8327              1417.5452
 Red. masses --      1.3338                 1.4430                 1.4135
 Frc consts  --      1.5363                 1.6850                 1.6735
 IR Inten    --      4.3260                 4.9083                14.1740

                     43                     44                     45
                      A                      A                      A
 Frequencies --   1442.9287              1444.7747              1451.8464
 Red. masses --      1.2655                 1.3031                 1.4049
 Frc consts  --      1.5524                 1.6026                 1.7447
 IR Inten    --      5.0429                 9.3337                 6.8293

                     46                     47                     48
                      A                      A                      A
 Frequencies --   1493.8337              1505.9968              1509.1946
 Red. masses --      1.0811                 1.0439                 1.0901
 Frc consts  --      1.4214                 1.3949                 1.4629
 IR Inten    --      9.0801                 1.4652                 4.2711

                     49                     50                     51
                      A                      A                      A
 Frequencies --   1509.9575              1512.1101              1520.8481
 Red. masses --      1.0535                 1.0447                 1.0892
 Frc consts  --      1.4152                 1.4073                 1.4843
 IR Inten    --      5.0589                10.1582                 8.2307

                     52                     53                     54
                      A                      A                      A
 Frequencies --   1524.6509              1534.7402              1541.1223
 Red. masses --      1.0537                 1.0573                 1.0666
 Frc consts  --      1.4431                 1.4673                 1.4926
 IR Inten    --      0.8700                 9.1832                 4.8382

                     55                     56                     57
                      A                      A                      A
 Frequencies --   1728.0261              1757.0968              3032.7087
 Red. masses --      5.8510                11.1154                 1.0675
 Frc consts  --     10.2938                20.2193                 5.7845
 IR Inten    --     36.9546               137.1204                24.8022

                     58                     59                     60
                      A                      A                      A
 Frequencies --   3037.7273              3039.6006              3043.7979
 Red. masses --      1.0417                 1.0428                 1.0622
 Frc consts  --      5.6638                 5.6764                 5.7981
 IR Inten    --     21.7886                21.4406                41.9522

                     61                     62                     63
                      A                      A                      A
 Frequencies --   3049.1609              3067.0713              3079.5252
 Red. masses --      1.0682                 1.0380                 1.0992
 Frc consts  --      5.8512                 5.7531                 6.1418
 IR Inten    --     25.0885                13.3743                17.0966

                     64                     65                     66
                      A                      A                      A
 Frequencies --   3084.3336              3089.9532              3103.8645
 Red. masses --      1.0934                 1.0951                 1.0958
 Frc consts  --      6.1287                 6.1605                 6.2200
 IR Inten    --      4.0294                 0.7395                34.0965

                     67                     68                     69
                      A                      A                      A
 Frequencies --   3111.5121              3114.0302              3117.3013
 Red. masses --      1.1008                 1.1000                 1.0999
 Frc consts  --      6.2793                 6.2847                 6.2975
 IR Inten    --     52.3114                64.0862                12.6876

                     70                     71                     72
                      A                      A                      A
 Frequencies --   3148.2697              3162.6836              3182.3343
 Red. masses --      1.0987                 1.0964                 1.0879
 Frc consts  --      6.4160                 6.4613                 6.4915
 IR Inten    --      6.9738                23.0690                24.3708

 - Thermochemistry -
 -------------------
 Temperature   298.150 Kelvin.  Pressure   1.00000 Atm.
 Atom     1 has atomic number  6 and mass  12.00000

 Molecular mass:   140.12012 amu.
 Principal axes and moments of inertia in atomic units:
                           1         2         3
     Eigenvalues --   837.545602770.697463128.71552
           X            0.99999   0.00446   0.00012
           Y           -0.00446   0.99989   0.01397
           Z           -0.00005  -0.01397   0.99990
 This molecule is an asymmetric top.
 Rotational symmetry number  1.
 Warning -- assumption of classical behavior for rotation
           may cause significant error
 Rotational temperatures (Kelvin)      0.10341     0.03126     0.02768
 Rotational constants (GHZ):           2.15480     0.65137     0.57683
 Zero-point vibrational energy     612578.2 (Joules/Mol)
                                  146.40971 (Kcal/Mol)
 Warning -- explicit consideration of  17 degrees of freedom as
           vibrations may cause significant error
 Vibrational temperatures:     47.83    61.01    92.86   147.31   174.94
          (Kelvin)            198.77   260.97   275.80   344.64   391.42
                              466.55   518.86   547.45   587.11   657.39
                              703.14   854.61   920.33  1051.51  1120.61
                             1183.55  1245.29  1286.06  1329.86  1386.80
                             1434.41  1459.28  1546.04  1547.96  1562.07
                             1572.19  1603.68  1614.12  1661.44  1765.52
                             1821.08  1858.25  1923.28  1983.37  2011.70
                             2025.56  2039.53  2076.05  2078.71  2088.88
                             2149.29  2166.79  2171.39  2172.49  2175.59
                             2188.16  2193.63  2208.15  2217.33  2486.24
                             2528.07  4363.39  4370.61  4373.31  4379.35
                             4387.06  4412.83  4430.75  4437.67  4445.75
                             4465.77  4476.77  4480.39  4485.10  4529.66
                             4550.40  4578.67

 Zero-point correction=                           0.233319 (Hartree/Particle)
 Thermal correction to Energy=                    0.245906
 Thermal correction to Enthalpy=                  0.246850
 Thermal correction to Gibbs Free Energy=         0.193507
 Sum of electronic and zero-point Energies=           -427.619227
 Sum of electronic and thermal Energies=              -427.606640
 Sum of electronic and thermal Enthalpies=            -427.605696
 Sum of electronic and thermal Free Energies=         -427.659038

                     E (Thermal)             CV                S
                      KCal/Mol        Cal/Mol-Kelvin    Cal/Mol-Kelvin
 Total                  154.308             44.407            112.269
 Electronic               0.000              0.000              0.000
 Translational            0.889              2.981             40.724
 Rotational               0.889              2.981             30.363
 Vibrational            152.531             38.446             41.182
 Vibration     1          0.594              1.983              5.626
 Vibration     2          0.595              1.980              5.143
 Vibration     3          0.597              1.971              4.313
 Vibration     4          0.604              1.947              3.408
 Vibration     5          0.609              1.931              3.075
 Vibration     6          0.614              1.915              2.829
 Vibration     7          0.630              1.865              2.314
 Vibration     8          0.634              1.851              2.211
 Vibration     9          0.657              1.780              1.806
 Vibration    10          0.675              1.725              1.583
 Vibration    11          0.709              1.627              1.288
 Vibration    12          0.735              1.553              1.119
 Vibration    13          0.750              1.512              1.037
 Vibration    14          0.773              1.453              0.933
 Vibration    15          0.815              1.346              0.775
 Vibration    16          0.845              1.275              0.687
 Vibration    17          0.952              1.045              0.460

 Optimization completed.
    -- Stationary point found.

 1\1\GINC-NODE373\Freq\RB3LYP\6-31G(d)\C9H16O1\VSC10255\08-Dec-2020\0\\
 #N Geom=AllCheck Guess=TCheck SCRF=Check GenChk RB3LYP/6-31G(d) Freq\\
 CID_85742677_JID_350_neutraal\\0,1\C,1.607972141,-0.8284703963,0.16680
 12839\C,1.205932089,-1.2588238603,1.5810182798\C,0.7425746172,-0.10398
 85452,2.4821924804\C,-0.5141496846,0.6234617319,1.9932784453\C,-1.7825
 591794,-0.2239274021,2.0937399645\O,-1.7654601199,-1.2981561339,2.6820
 194131\C,-3.0666047488,0.2605411087,1.4958262912\C,-3.1334112126,1.463
 9544114,0.8952343842\C,-4.3247114479,2.1156716739,0.2630414345\C,-4.21

 Normal termination of Gaussian 16 at Tue Dec  8 10:42:04 2020.

 ----------------------------------------------------------------------
 # B3LYP/6-311++G(d,p) empiricaldispersion=gd3bj scf=xqc pop=npa geom=c
 heck
 ----------------------------------------------------------------------

 -------------------------------------
 CID_85742677_JID_350_Energie_neutraal
 -------------------------------------
 Structure from the checkpoint file:  "JID_350.chk"
 Charge =  0 Multiplicity = 1

 SCF Done:  E(RB3LYP) =  -427.975018659     A.U. after   14 cycles
 Normal termination of Gaussian 16 at Tue Dec  8 10:44:27 2020.

 ----------------------------------------------------------------------
 # B3LYP/6-311++G(d,p) empiricaldispersion=gd3bj scf=xqc pop=npa geom=c
 heck
 ----------------------------------------------------------------------

 -----------------------------------
 CID_85742677_JID_350_Energie_kation
 -----------------------------------
 Structure from the checkpoint file:  "JID_350.chk"
 Charge =  1 Multiplicity = 2

 SCF Done:  E(UB3LYP) =  -427.647576233     A.U. after   33 cycles
 SCF Done:  E(UB3LYP) =  -427.647576545     a.u. after    3 cycles
 Normal termination of Gaussian 16 at Tue Dec  8 10:56:53 2020.
 Gaussian 16:  ES64L-G16RevA.03 25-Dec-2016

 ----------------------------------
 CID_85742677_JID_350_Energie_anion
 ----------------------------------
 Structure from the checkpoint file:  "JID_350.chk"
 Charge = -1 Multiplicity = 2

                         Standard orientation:
 ---------------------------------------------------------------------
 Center     Atomic      Atomic             Coordinates (Angstroms)
 Number     Number       Type             X           Y           Z
 ---------------------------------------------------------------------
      1          6           0        3.081781    1.123462   -1.123939
      2          6           0        2.953636   -0.179163   -0.327951
      3          6           0        2.222966   -0.026562    1.014917
      4          6           0        0.764971    0.430391    0.900801
      5          6           0       -0.156539   -0.628954    0.296127
      6          8           0        0.248270   -1.770112    0.111139
      7          6           0       -1.572162   -0.290825   -0.054110
      8          6           0       -2.065915    0.937482    0.192563
      9          6           0       -3.449746    1.446556   -0.070978
     10          6           0       -2.344152   -1.432248   -0.663171
     11          1           0        2.105179    1.511651   -1.436193
     12          1           0        3.674402    0.971779   -2.032998
     13          1           0        3.574607    1.904828   -0.531342
     14          1           0        2.440013   -0.936721   -0.929273
     15          1           0        3.958125   -0.574050   -0.127149
     16          1           0        2.247387   -0.984845    1.543987
     17          1           0        2.762268    0.700377    1.637285
     18          1           0        0.373011    0.679614    1.897139
     19          1           0        0.692972    1.355467    0.317863
     20          1           0       -1.403249    1.672962    0.643358
     21          1           0       -3.915147    1.787231    0.863759
     22          1           0       -3.414730    2.320606   -0.735169
     23          1           0       -4.106290    0.701706   -0.524429
     24          1           0       -1.843317   -1.790713   -1.568780
     25          1           0       -2.371672   -2.283690    0.025059
     26          1           0       -3.368757   -1.156143   -0.917771
 ---------------------------------------------------------------------

 SCF Done:  E(UB3LYP) =  -427.967822981     A.U. after   33 cycles
 SCF Done:  E(UB3LYP) =  -427.967822981     a.u. after    1 cycles

 The electronic state is 2-A.
 Alpha  occ. eigenvalues --  -18.93334 -10.07732 -10.04986 -10.04524 -10.04110
 Alpha  occ. eigenvalues --  -10.03889 -10.03205 -10.02977 -10.02566 -10.02397
 Alpha  occ. eigenvalues --   -0.87292  -0.67747  -0.66898  -0.61089  -0.59591
 Alpha  occ. eigenvalues --   -0.54912  -0.51652  -0.45926  -0.42472  -0.36312
 Alpha  occ. eigenvalues --   -0.35390  -0.34377  -0.32571  -0.29815  -0.29628
 Alpha  occ. eigenvalues --   -0.28407  -0.28235  -0.27028  -0.26894  -0.25871
 Alpha  occ. eigenvalues --   -0.24481  -0.23471  -0.22251  -0.21687  -0.20382
 Alpha  occ. eigenvalues --   -0.20006  -0.19502  -0.11563  -0.09192   0.05393
 Alpha virt. eigenvalues --    0.07561   0.07956   0.09224   0.09749   0.10335
 Alpha virt. eigenvalues --    0.10663   0.11313   0.12174   0.12760   0.13446
 Alpha virt. eigenvalues --    0.13711   0.14197   0.14564   0.14875   0.16274

  Beta  occ. eigenvalues --  -18.92978 -10.07465 -10.04977 -10.04522 -10.04113
  Beta  occ. eigenvalues --  -10.03878 -10.03222 -10.02972 -10.02554 -10.02084
  Beta  occ. eigenvalues --   -0.86628  -0.67659  -0.66586  -0.60987  -0.59415
  Beta  occ. eigenvalues --   -0.54751  -0.51539  -0.45689  -0.41984  -0.36124
  Beta  occ. eigenvalues --   -0.35226  -0.34250  -0.32478  -0.29494  -0.29307
  Beta  occ. eigenvalues --   -0.28321  -0.27903  -0.26965  -0.26799  -0.25812
  Beta  occ. eigenvalues --   -0.24332  -0.23283  -0.21789  -0.21446  -0.20260
  Beta  occ. eigenvalues --   -0.19914  -0.18543  -0.10225  -0.08887
  Beta virt. eigenvalues --    0.07548   0.08217   0.09427   0.09758   0.10370
  Beta virt. eigenvalues --    0.10949   0.11157   0.11443   0.12365   0.12780
  Beta virt. eigenvalues --    0.13445   0.13873   0.14160   0.14612   0.14895

 Mulliken charges and spin densities:
               1          2
     1  C   -0.179883  -0.482734
     2  C   -0.434689   0.344528
     3  C    0.378499  -0.580146
     4  C   -0.079334   0.235431
     5  C   -0.666038   0.105085
     6  O   -0.327935   0.136503
     7  C    0.936337   0.816934
     8  C   -1.181224   0.132770
     9  C    1.102403  -1.913046
    10  C   -0.475275  -0.012142
    11  H    0.096106   0.043849
    12  H    0.020912   0.088894
    13  H   -0.045766   0.164526
    14  H    0.151707   0.021439
    15  H    0.079645   0.032091
    16  H    0.146608   0.014659
    17  H   -0.242284   0.385262
    18  H   -0.300956   0.472974
    19  H    0.249931  -0.141903
    20  H   -0.091022   0.221019
    21  H   -0.041147   0.175915
    22  H   -0.319016   0.467882
    23  H   -0.017374   0.118465
    24  H    0.125368   0.020920
    25  H    0.083604   0.073130
    26  H    0.030820   0.057694
 Sum of Mulliken charges =  -1.00000   1.00000

 Dipole moment (field-independent basis, Debye):
    X=              1.8882    Y=             -0.5808    Z=             -1.6775  Tot=              2.5917
 Quadrupole moment (field-independent basis, Debye-Ang):
   XX=           -107.8599   YY=            -94.7552   ZZ=            -85.9929
   XY=              5.5534   XZ=             -3.1112   YZ=             -0.1217

 Summary of Natural Population Analysis:

                                       Natural Population
                Natural  -----------------------------------------------
    Atom  No    Charge         Core      Valence    Rydberg      Total
 -----------------------------------------------------------------------
      C    1   -0.28691      0.99967     2.28320    0.00404     3.28691
      C    2   -0.19211      0.99964     2.18536    0.00711     3.19211
      C    3   -0.18990      0.99963     2.17825    0.01201     3.18990
      C    4   -0.23798      0.99960     2.22956    0.00883     3.23798
      C    5    0.30165      0.99962     1.67607    0.02267     2.69835
      O    6   -0.27952      0.99988     3.27397    0.00567     4.27952
      C    7   -0.06895      0.99945     2.05849    0.01101     3.06895
      C    8   -0.01265      0.99949     2.00425    0.00891     3.01265
      C    9   -0.30266      0.99966     2.29831    0.00469     3.30266
      C   10   -0.29421      0.99963     2.28883    0.00574     3.29421
      H   11    0.09776      0.00000     0.40123    0.00101     0.40224
      H   12    0.09282      0.00000     0.40622    0.00096     0.40718
      H   13    0.09165      0.00000     0.40715    0.00120     0.40835
      H   14    0.10580      0.00000     0.39286    0.00134     0.39420
      H   15    0.08739      0.00000     0.41156    0.00106     0.41261
      H   16    0.10354      0.00000     0.39534    0.00111     0.39646
      H   17    0.08897      0.00000     0.40991    0.00111     0.41103
      H   18    0.11167      0.00000     0.38586    0.00247     0.38833
      H   19    0.10005      0.00000     0.39840    0.00155     0.39995
      H   20    0.08780      0.00000     0.41081    0.00139     0.41220
      H   21    0.09978      0.00000     0.39878    0.00144     0.40022
      H   22    0.10319      0.00000     0.39388    0.00293     0.39681
      H   23    0.09534      0.00000     0.40361    0.00105     0.40466
      H   24    0.10221      0.00000     0.39650    0.00129     0.39779
      H   25    0.10419      0.00000     0.39431    0.00151     0.39581
      H   26    0.09107      0.00000     0.40798    0.00096     0.40893
 =======================================================================
   * Total *    0.00000      9.99627    28.89067    0.11306    39.00000

 Normal termination of Gaussian 16 at Tue Dec  8 11:06:24 2020.
