 Gaussian 16, Revision A.03,

 -----------------------------------------------------------
 # opt freq B3LYP/6-31G(d) empiricaldispersion=gd3bj scf=xqc
 -----------------------------------------------------------

 ------------------------------
 CID_62168700_JID_8291_neutraal
 ------------------------------
 Symbolic Z-matrix:
 Charge =  0 Multiplicity = 1

 SCF Done:  E(RB3LYP) =  -815.333187270     A.U. after   15 cycles
 SCF Done:  E(RB3LYP) =  -815.339154353     A.U. after   13 cycles
 SCF Done:  E(RB3LYP) =  -815.340156444     A.U. after   14 cycles
 SCF Done:  E(RB3LYP) =  -815.342321834     A.U. after   12 cycles
 SCF Done:  E(RB3LYP) =  -815.343526848     A.U. after   12 cycles
 SCF Done:  E(RB3LYP) =  -815.344132004     A.U. after   13 cycles
 SCF Done:  E(RB3LYP) =  -815.344664620     A.U. after   12 cycles
 SCF Done:  E(RB3LYP) =  -815.344952058     A.U. after   11 cycles
 SCF Done:  E(RB3LYP) =  -815.345180119     A.U. after   12 cycles
 SCF Done:  E(RB3LYP) =  -815.345279289     A.U. after   11 cycles
 SCF Done:  E(RB3LYP) =  -815.345396722     A.U. after    7 cycles
 SCF Done:  E(RB3LYP) =  -815.345396743     A.U. after    6 cycles
 SCF Done:  E(RB3LYP) =  -815.345396760     A.U. after    7 cycles
 SCF Done:  E(RB3LYP) =  -815.345396774     A.U. after    7 cycles
 SCF Done:  E(RB3LYP) =  -815.345396783     A.U. after    6 cycles
 Optimization completed.
    -- Stationary point found.
 Normal termination of Gaussian 16 at Fri Dec 11 19:59:48 2020.

 --------------------------------------------------------------------
 #N Geom=AllCheck Guess=TCheck SCRF=Check GenChk RB3LYP/6-31G(d) Freq
 --------------------------------------------------------------------

 Structure from the checkpoint file:  "JID_8291.chk"
 ------------------------------
 CID_62168700_JID_8291_neutraal
 ------------------------------
 Charge =  0 Multiplicity = 1

 SCF Done:  E(RB3LYP) =  -815.345396783     A.U. after    1 cycles

  Exact polarizability: 180.357  18.946 181.019 -24.074   0.199 108.675
 Approx polarizability: 260.705  39.796 279.853 -49.669   2.821 189.235

                      1                      2                      3
                      A                      A                      A
 Frequencies --     19.0999                26.1246                34.5691
 Red. masses --      4.0126                 3.5299                 3.0304
 Frc consts  --      0.0009                 0.0014                 0.0021
 IR Inten    --      0.0897                 0.6644                 0.0080

                      4                      5                      6
                      A                      A                      A
 Frequencies --     50.4626                79.7488               103.4060
 Red. masses --      4.5111                 5.5082                 3.6504
 Frc consts  --      0.0068                 0.0206                 0.0230
 IR Inten    --      1.4882                 0.4460                 0.7982

                      7                      8                      9
                      A                      A                      A
 Frequencies --    114.0943               135.5602               151.2460
 Red. masses --      3.5509                 1.3351                 2.9670
 Frc consts  --      0.0272                 0.0145                 0.0400
 IR Inten    --      0.8493                 1.7888                 0.6823

                     10                     11                     12
                      A                      A                      A
 Frequencies --    169.7718               216.7271               227.3147
 Red. masses --      5.5906                 1.5076                 2.1169
 Frc consts  --      0.0949                 0.0417                 0.0644
 IR Inten    --      8.9819                 0.2551                 2.0123

                     13                     14                     15
                      A                      A                      A
 Frequencies --    248.7066               280.0059               316.2171
 Red. masses --      3.6446                 3.1832                 3.1640
 Frc consts  --      0.1328                 0.1470                 0.1864
 IR Inten    --      6.3110                 0.2798                 3.9558

                     16                     17                     18
                      A                      A                      A
 Frequencies --    338.4617               389.7944               414.3052
 Red. masses --      6.7011                 3.3243                 1.9201
 Frc consts  --      0.4523                 0.2976                 0.1942
 IR Inten    --      4.2370                37.4324                78.2196

                     19                     20                     21
                      A                      A                      A
 Frequencies --    431.1651               452.2850               469.1555
 Red. masses --      3.8000                 2.9448                 3.3140
 Frc consts  --      0.4162                 0.3549                 0.4298
 IR Inten    --     13.4498                 9.1737                17.7462

                     22                     23                     24
                      A                      A                      A
 Frequencies --    498.5744               547.3135               563.8321
 Red. masses --      5.1631                 2.2486                 2.7227
 Frc consts  --      0.7562                 0.3968                 0.5100
 IR Inten    --      5.2069                28.1204                27.8300

                     25                     26                     27
                      A                      A                      A
 Frequencies --    640.7901               651.1826               665.2005
 Red. masses --      3.2607                 3.2555                 3.8276
 Frc consts  --      0.7888                 0.8134                 0.9979
 IR Inten    --     22.7706                33.3711                 4.4119

                     28                     29                     30
                      A                      A                      A
 Frequencies --    677.1728               704.9976               745.8139
 Red. masses --      4.8180                 3.0800                 4.1130
 Frc consts  --      1.3017                 0.9019                 1.3480
 IR Inten    --     14.0596                15.2248                13.3078

                     31                     32                     33
                      A                      A                      A
 Frequencies --    757.1669               771.5648               782.9460
 Red. masses --      3.9491                 3.0026                 1.5730
 Frc consts  --      1.3339                 1.0532                 0.5681
 IR Inten    --      2.8996                47.9727                 3.4360

                     34                     35                     36
                      A                      A                      A
 Frequencies --    805.3807               845.8285               855.4628
 Red. masses --      1.1567                 2.0140                 1.6032
 Frc consts  --      0.4421                 0.8489                 0.6913
 IR Inten    --      0.9752                 3.4919                 5.6321

                     37                     38                     39
                      A                      A                      A
 Frequencies --    869.8126               881.1084               919.3808
 Red. masses --      1.6831                 1.9264                 4.4168
 Frc consts  --      0.7503                 0.8812                 2.1996
 IR Inten    --     10.8328                42.5013                 1.2243

                     40                     41                     42
                      A                      A                      A
 Frequencies --    969.9658               977.3528              1008.2195
 Red. masses --      2.6319                 1.3477                 6.8610
 Frc consts  --      1.4589                 0.7585                 4.1091
 IR Inten    --     17.0223                 0.0633                 3.0396

                     43                     44                     45
                      A                      A                      A
 Frequencies --   1012.6618              1059.6657              1103.2639
 Red. masses --      2.8601                 3.5680                 2.0374
 Frc consts  --      1.7281                 2.3605                 1.4612
 IR Inten    --     22.5555                 9.7122                15.7201

                     46                     47                     48
                      A                      A                      A
 Frequencies --   1108.4088              1123.5008              1133.8871
 Red. masses --      1.8799                 1.5978                 1.7462
 Frc consts  --      1.3608                 1.1883                 1.3227
 IR Inten    --     15.8697                 1.4992                 3.2946

                     49                     50                     51
                      A                      A                      A
 Frequencies --   1141.5523              1159.8903              1185.8508
 Red. masses --      2.2168                 1.3330                 1.5763
 Frc consts  --      1.7020                 1.0566                 1.3060
 IR Inten    --     20.5396                23.1489                 6.9944

                     52                     53                     54
                      A                      A                      A
 Frequencies --   1197.2556              1231.5526              1283.8626
 Red. masses --      1.8152                 1.6555                 1.7849
 Frc consts  --      1.5330                 1.4794                 1.7334
 IR Inten    --     15.4873                 0.3867                 0.7168

                     55                     56                     57
                      A                      A                      A
 Frequencies --   1287.2245              1340.8206              1358.8804
 Red. masses --      2.1738                 2.5995                 2.7036
 Frc consts  --      2.1222                 2.7534                 2.9415
 IR Inten    --     57.1092                12.4855                76.6496

                     58                     59                     60
                      A                      A                      A
 Frequencies --   1369.8213              1388.6826              1401.4772
 Red. masses --      2.1400                 3.4513                 1.7488
 Frc consts  --      2.3658                 3.9214                 2.0238
 IR Inten    --     60.1893               270.6412                 5.4084

                     61                     62                     63
                      A                      A                      A
 Frequencies --   1410.0862              1418.5778              1432.1564
 Red. masses --      1.6672                 2.1094                 4.8988
 Frc consts  --      1.9531                 2.5011                 5.9199
 IR Inten    --     18.5038                34.8973                52.9576

                     64                     65                     66
                      A                      A                      A
 Frequencies --   1436.5291              1464.2249              1477.1240
 Red. masses --      1.3474                 2.4652                 1.2256
 Frc consts  --      1.6383                 3.1141                 1.5755
 IR Inten    --      4.2750                 9.1593                27.5500

                     67                     68                     69
                      A                      A                      A
 Frequencies --   1501.3301              1506.2784              1514.7342
 Red. masses --      2.1136                 1.0939                 1.3397
 Frc consts  --      2.8069                 1.4624                 1.8111
 IR Inten    --     44.5690                42.8026                23.6210

                     70                     71                     72
                      A                      A                      A
 Frequencies --   1518.8875              1534.5075              1536.8779
 Red. masses --      1.0554                 1.2996                 1.0771
 Frc consts  --      1.4345                 1.8030                 1.4989
 IR Inten    --     10.6672                13.1372                 1.4680

                     73                     74                     75
                      A                      A                      A
 Frequencies --   1544.7101              1567.0928              1618.2830
 Red. masses --      2.0690                 1.7083                 6.2590
 Frc consts  --      2.9087                 2.4717                 9.6574
 IR Inten    --      8.8527               167.9588                78.3397

                     76                     77                     78
                      A                      A                      A
 Frequencies --   1629.9896              1666.8248              1774.3192
 Red. masses --      5.7650                 5.4413                 8.8416
 Frc consts  --      9.0245                 8.9071                16.4000
 IR Inten    --     15.3149               201.4098               345.8010

                     79                     80                     81
                      A                      A                      A
 Frequencies --   3027.2057              3059.1269              3085.2474
 Red. masses --      1.0506                 1.0355                 1.0602
 Frc consts  --      5.6727                 5.7097                 5.9461
 IR Inten    --     69.3561                16.0749                28.1194

                     82                     83                     84
                      A                      A                      A
 Frequencies --   3113.6297              3122.3796              3136.3796
 Red. masses --      1.0850                 1.1036                 1.1033
 Frc consts  --      6.1973                 6.3393                 6.3947
 IR Inten    --     37.8343                 9.7559                32.9932

                     85                     86                     87
                      A                      A                      A
 Frequencies --   3150.7293              3158.0629              3172.5351
 Red. masses --      1.1052                 1.1039                 1.0901
 Frc consts  --      6.4641                 6.4865                 6.4644
 IR Inten    --     20.8832                14.4150                36.7239

                     88                     89                     90
                      A                      A                      A
 Frequencies --   3217.1554              3242.4129              3269.3126
 Red. masses --      1.0907                 1.0930                 1.0970
 Frc consts  --      6.6514                 6.7700                 6.9083
 IR Inten    --      5.3306                 3.4858                 1.8022

                     91                     92                     93
                      A                      A                      A
 Frequencies --   3277.2970              3565.4797              3618.6499
 Red. masses --      1.0983                 1.0749                 1.0764
 Frc consts  --      6.9502                 8.0514                 8.3045
 IR Inten    --      0.2267                32.9640                15.1335

 - Thermochemistry -
 -------------------
 Temperature   298.150 Kelvin.  Pressure   1.00000 Atm.
 Atom     1 has atomic number  6 and mass  12.00000

 Molecular mass:   245.12766 amu.
 Principal axes and moments of inertia in atomic units:
                           1         2         3
     Eigenvalues --  3508.347375655.410928354.88082
           X            0.99990   0.00915  -0.01082
           Y           -0.00924   0.99992  -0.00825
           Z            0.01074   0.00835   0.99991
 This molecule is an asymmetric top.
 Rotational symmetry number  1.
 Warning -- assumption of classical behavior for rotation
           may cause significant error
 Rotational temperatures (Kelvin)      0.02469     0.01532     0.01037
 Rotational constants (GHZ):           0.51441     0.31912     0.21601
 Zero-point vibrational energy     708570.2 (Joules/Mol)
                                  169.35234 (Kcal/Mol)
 Warning -- explicit consideration of  24 degrees of freedom as
           vibrations may cause significant error
 Vibrational temperatures:     27.48    37.59    49.74    72.60   114.74
          (Kelvin)            148.78   164.16   195.04   217.61   244.26
                              311.82   327.06   357.83   402.87   454.97
                              486.97   560.83   596.09   620.35   650.74
                              675.01   717.34   787.46   811.23   921.95
                              936.91   957.08   974.30  1014.33  1073.06
                             1089.39  1110.11  1126.48  1158.76  1216.96
                             1230.82  1251.47  1267.72  1322.78  1395.56
                             1406.19  1450.60  1456.99  1524.62  1587.35
                             1594.75  1616.47  1631.41  1642.44  1668.82
                             1706.17  1722.58  1771.93  1847.19  1852.03
                             1929.14  1955.13  1970.87  1998.00  2016.41
                             2028.80  2041.02  2060.55  2066.85  2106.69
                             2125.25  2160.08  2167.20  2179.36  2185.34
                             2207.81  2211.22  2222.49  2254.70  2328.35
                             2345.19  2398.19  2552.85  4355.47  4401.40
                             4438.98  4479.82  4492.41  4512.55  4533.20
                             4543.75  4564.57  4628.77  4665.11  4703.81
                             4715.30  5129.93  5206.43

 Zero-point correction=                           0.269880 (Hartree/Particle)
 Thermal correction to Energy=                    0.286977
 Thermal correction to Enthalpy=                  0.287921
 Thermal correction to Gibbs Free Energy=         0.222275
 Sum of electronic and zero-point Energies=           -815.075517
 Sum of electronic and thermal Energies=              -815.058420
 Sum of electronic and thermal Enthalpies=            -815.057476
 Sum of electronic and thermal Free Energies=         -815.123122

                     E (Thermal)             CV                S
                      KCal/Mol        Cal/Mol-Kelvin    Cal/Mol-Kelvin
 Total                  180.081             63.092            138.164
 Electronic               0.000              0.000              0.000
 Translational            0.889              2.981             42.391
 Rotational               0.889              2.981             33.471
 Vibrational            178.303             57.131             62.302
 Vibration     1          0.593              1.986              6.726
 Vibration     2          0.593              1.985              6.104
 Vibration     3          0.594              1.983              5.548
 Vibration     4          0.595              1.977              4.799
 Vibration     5          0.600              1.963              3.897
 Vibration     6          0.605              1.946              3.389
 Vibration     7          0.607              1.938              3.198
 Vibration     8          0.613              1.918              2.866
 Vibration     9          0.619              1.901              2.656
 Vibration    10          0.625              1.880              2.438
 Vibration    11          0.646              1.816              1.986
 Vibration    12          0.651              1.799              1.900
 Vibration    13          0.662              1.765              1.740
 Vibration    14          0.680              1.711              1.534
 Vibration    15          0.703              1.643              1.330
 Vibration    16          0.719              1.599              1.219
 Vibration    17          0.758              1.492              1.001
 Vibration    18          0.778              1.439              0.912
 Vibration    19          0.792              1.402              0.855
 Vibration    20          0.811              1.356              0.789
 Vibration    21          0.826              1.318              0.740
 Vibration    22          0.854              1.253              0.662
 Vibration    23          0.903              1.146              0.550
 Vibration    24          0.920              1.110              0.516

 Optimization completed.
    -- Stationary point found.
 Normal termination of Gaussian 16 at Fri Dec 11 20:11:06 2020.

 ----------------------------------------------------------------------
 # B3LYP/6-311++G(d,p) empiricaldispersion=gd3bj scf=xqc pop=npa geom=c
 heck
 ----------------------------------------------------------------------

 --------------------------------------
 CID_62168700_JID_8291_Energie_neutraal
 --------------------------------------
 Structure from the checkpoint file:  "JID_8291.chk"
 Charge =  0 Multiplicity = 1

 SCF Done:  E(RB3LYP) =  -815.571142447     A.U. after   16 cycles
 Normal termination of Gaussian 16 at Fri Dec 11 20:16:02 2020.

 ----------------------------------------------------------------------
 # B3LYP/6-311++G(d,p) empiricaldispersion=gd3bj scf=xqc pop=npa geom=c
 heck
 ----------------------------------------------------------------------

 ------------------------------------
 CID_62168700_JID_8291_Energie_kation
 ------------------------------------
 Structure from the checkpoint file:  "JID_8291.chk"
 Charge =  1 Multiplicity = 2

 SCF Done:  E(UB3LYP) =  -815.291544407     A.U. after   25 cycles
 Normal termination of Gaussian 16 at Fri Dec 11 20:26:33 2020.
 Gaussian 16:  ES64L-G16RevA.03 25-Dec-2016

 ----------------------------------------------------------------------
 # B3LYP/6-311++G(d,p) empiricaldispersion=gd3bj scf=xqc pop=npa geom=c
 heck
 ----------------------------------------------------------------------

 -----------------------------------
 CID_62168700_JID_8291_Energie_anion
 -----------------------------------
 Structure from the checkpoint file:  "JID_8291.chk"
 Charge = -1 Multiplicity = 2

                         Standard orientation:
 ---------------------------------------------------------------------
 Center     Atomic      Atomic             Coordinates (Angstroms)
 Number     Number       Type             X           Y           Z
 ---------------------------------------------------------------------
      1          6           0        3.806426    2.199334   -0.285904
      2          6           0        4.215022    0.763381    0.039697
      3          7           0        3.060463   -0.098368    0.247865
      4          6           0        2.467699   -0.932469   -0.647027
      5          6           0        1.346079   -1.449869   -0.017206
      6          6           0        1.345083   -0.848136    1.264461
      7          7           0        2.375428   -0.017701    1.411141
      8          7           0        0.437173   -2.385961   -0.553197
      9          6           0       -0.940429   -2.383285   -0.444796
     10          8           0       -1.575499   -3.414778   -0.623285
     11          6           0       -1.633697   -1.087681   -0.136274
     12          6           0       -1.183991    0.143862   -0.588994
     13          6           0       -1.937507    1.297036   -0.275514
     14          7           0       -3.069212    1.248298    0.442067
     15          6           0       -3.496743    0.042951    0.845485
     16          6           0       -2.835332   -1.148747    0.588003
     17          7           0       -1.530021    2.531764   -0.732486
     18          6           0       -2.142820    3.749103   -0.229462
     19          1           0        3.224650    2.237162   -1.213326
     20          1           0        4.693515    2.829752   -0.408222
     21          1           0        3.196647    2.606374    0.525654
     22          1           0        4.806963    0.325086   -0.769413
     23          1           0        4.812088    0.727845    0.954710
     24          1           0        2.875662   -1.106156   -1.632212
     25          1           0        0.627566   -0.980926    2.062334
     26          1           0        0.789466   -3.311167   -0.774083
     27          1           0       -0.274095    0.230896   -1.171711
     28          1           0       -4.425110    0.042566    1.414018
     29          1           0       -3.221606   -2.103720    0.922270
     30          1           0       -0.552690    2.594594   -0.979395
     31          1           0       -1.996575    3.885545    0.851729
     32          1           0       -1.709916    4.600002   -0.762147
     33          1           0       -3.218125    3.721253   -0.416470
 ---------------------------------------------------------------------

 SCF Done:  E(UB3LYP) =  -815.575273153     A.U. after   33 cycles
 SCF Done:  E(UB3LYP) =  -815.575273152     a.u. after    1 cycles

 The electronic state is 2-A.
 Alpha  occ. eigenvalues --  -18.96069 -14.29234 -14.23238 -14.22826 -14.21827
 Alpha  occ. eigenvalues --  -14.16973 -10.14201 -10.12596 -10.11939 -10.10565
 Alpha  occ. eigenvalues --  -10.10449 -10.09992 -10.09029 -10.08086 -10.07704
 Alpha  occ. eigenvalues --  -10.05734 -10.04581 -10.04339  -0.95602  -0.91640
 Alpha  occ. eigenvalues --   -0.85200  -0.81513  -0.78599  -0.75278  -0.68939
 Alpha  occ. eigenvalues --   -0.68171  -0.64625  -0.63817  -0.58274  -0.55873
 Alpha  occ. eigenvalues --   -0.53690  -0.51798  -0.50769  -0.47635  -0.45849
 Alpha  occ. eigenvalues --   -0.44399  -0.41103  -0.39733  -0.39110  -0.38041
 Alpha  occ. eigenvalues --   -0.36463  -0.35376  -0.34569  -0.34539  -0.33477
 Alpha  occ. eigenvalues --   -0.32703  -0.32002  -0.30978  -0.30120  -0.29461
 Alpha  occ. eigenvalues --   -0.29053  -0.28902  -0.27917  -0.27349  -0.27021
 Alpha  occ. eigenvalues --   -0.24872  -0.20949  -0.19222  -0.18292  -0.16785
 Alpha  occ. eigenvalues --   -0.15822  -0.14393  -0.13481  -0.12366  -0.09864
 Alpha  occ. eigenvalues --    0.03621
 Alpha virt. eigenvalues --    0.05214   0.06811   0.07482   0.08196   0.09090
 Alpha virt. eigenvalues --    0.09117   0.09525   0.10141   0.10633   0.10894
 Alpha virt. eigenvalues --    0.11320   0.11980   0.12056   0.12606   0.12960

  Beta  occ. eigenvalues --  -18.95846 -14.29221 -14.23238 -14.22825 -14.21820
  Beta  occ. eigenvalues --  -14.16726 -10.14037 -10.12571 -10.11965 -10.10519
  Beta  occ. eigenvalues --  -10.10434 -10.09992 -10.09033 -10.08064 -10.07667
  Beta  occ. eigenvalues --  -10.05560 -10.04431 -10.04332  -0.95579  -0.91260
  Beta  occ. eigenvalues --   -0.85062  -0.81384  -0.78389  -0.75248  -0.68827
  Beta  occ. eigenvalues --   -0.67799  -0.64581  -0.63670  -0.58153  -0.55812
  Beta  occ. eigenvalues --   -0.53304  -0.51649  -0.50673  -0.47543  -0.45731
  Beta  occ. eigenvalues --   -0.44331  -0.41007  -0.39659  -0.39001  -0.37987
  Beta  occ. eigenvalues --   -0.36354  -0.35321  -0.34492  -0.34445  -0.33330
  Beta  occ. eigenvalues --   -0.32530  -0.31872  -0.30842  -0.30074  -0.29406
  Beta  occ. eigenvalues --   -0.28863  -0.28399  -0.27634  -0.27284  -0.26437
  Beta  occ. eigenvalues --   -0.24769  -0.20793  -0.18970  -0.17981  -0.16322
  Beta  occ. eigenvalues --   -0.15146  -0.14020  -0.13039  -0.12113  -0.09300
  Beta virt. eigenvalues --    0.06062   0.06974   0.07890   0.08167   0.08279
  Beta virt. eigenvalues --    0.09146   0.09410   0.09642   0.10237   0.10645
  Beta virt. eigenvalues --    0.11106   0.11442   0.11969   0.12171   0.12599

 Mulliken charges and spin densities:
               1          2
     1  C    0.287341  -0.802628
     2  C    0.085428  -0.233649
     3  N    0.261198   0.042265
     4  C   -0.411575   0.457835
     5  C    0.661463  -0.848527
     6  C   -0.061824  -0.329339
     7  N   -0.273088   0.070313
     8  N   -0.253379   0.056894
     9  C   -0.551847   0.068982
    10  O   -0.361620   0.080196
    11  C    0.176580   0.009856
    12  C    1.181579   0.162247
    13  C   -1.609854   0.030124
    14  N   -0.143064   0.112120
    15  C   -0.277249   0.031353
    16  C    0.165211   0.014215
    17  N   -0.049701   0.003674
    18  C   -0.365958  -0.006725
    19  H   -0.022289   0.167158
    20  H   -0.276579   0.408395
    21  H    0.161724   0.003652
    22  H   -0.474400   0.631410
    23  H   -0.035947   0.204803
    24  H   -0.454799   0.615589
    25  H    0.178496  -0.007027
    26  H    0.239837   0.061800
    27  H    0.217919  -0.001715
    28  H    0.135738  -0.004061
    29  H    0.192286  -0.000187
    30  H    0.262883  -0.013599
    31  H    0.153248  -0.000656
    32  H    0.089515   0.016174
    33  H    0.172728  -0.000944
 Sum of Mulliken charges =  -1.00000   1.00000

 Dipole moment (field-independent basis, Debye):
    X=             -0.4636    Y=              2.9311    Z=              1.5331  Tot=              3.3401
 Quadrupole moment (field-independent basis, Debye-Ang):
   XX=           -181.5988   YY=           -142.8962   ZZ=           -128.9576
   XY=            -12.1030   XZ=              3.6390   YZ=             -5.8517

 Summary of Natural Population Analysis:

                                       Natural Population
                Natural  -----------------------------------------------
    Atom  No    Charge         Core      Valence    Rydberg      Total
 -----------------------------------------------------------------------
      C    1   -0.29020      0.99966     2.28524    0.00530     3.29020
      C    2   -0.08139      0.99962     2.07020    0.01156     3.08139
      N    3   -0.10608      0.99966     2.59272    0.01370     3.60608
      C    4   -0.01058      0.99950     1.99946    0.01162     3.01058
      C    5    0.01999      0.99947     1.96827    0.01227     2.98001
      C    6   -0.01392      0.99958     2.00140    0.01295     3.01392
      N    7   -0.15651      0.99973     2.64545    0.01132     3.65651
      N    8   -0.32099      0.99964     2.81177    0.00957     3.82099
      C    9    0.35813      0.99963     1.61827    0.02397     2.64187
      O   10   -0.30080      0.99988     3.29571    0.00521     4.30080
      C   11   -0.01414      0.99941     2.00398    0.01075     3.01414
      C   12   -0.10568      0.99950     2.09597    0.01020     3.10568
      C   13    0.19422      0.99955     1.79252    0.01371     2.80578
      N   14   -0.23778      0.99967     2.72789    0.01022     3.73778
      C   15    0.03041      0.99960     1.95599    0.01399     2.96959
      C   16   -0.12922      0.99954     2.12165    0.00803     3.12922
      N   17   -0.31399      0.99967     2.80456    0.00975     3.81399
      C   18   -0.17784      0.99967     2.17052    0.00766     3.17784
      H   19    0.09863      0.00000     0.40031    0.00107     0.40137
      H   20    0.10117      0.00000     0.39756    0.00127     0.39883
      H   21    0.10433      0.00000     0.39466    0.00102     0.39567
      H   22    0.10126      0.00000     0.39614    0.00260     0.39874
      H   23    0.10126      0.00000     0.39733    0.00141     0.39874
      H   24    0.10670      0.00000     0.39187    0.00144     0.39330
      H   25    0.10338      0.00000     0.39587    0.00075     0.39662
      H   26    0.19433      0.00000     0.30323    0.00245     0.30567
      H   27    0.09965      0.00000     0.39822    0.00213     0.40035
      H   28    0.08108      0.00000     0.41774    0.00118     0.41892
      H   29    0.10741      0.00000     0.39165    0.00095     0.39259
      H   30    0.18243      0.00000     0.31474    0.00283     0.31757
      H   31    0.08574      0.00000     0.41237    0.00189     0.41426
      H   32    0.08762      0.00000     0.41159    0.00078     0.41238
      H   33    0.10140      0.00000     0.39750    0.00110     0.39860
 =======================================================================
   * Total *    0.00003     17.99299    46.78234    0.22465    64.99997

 Normal termination of Gaussian 16 at Fri Dec 11 20:40:39 2020.
