 Gaussian 16, Revision A.03,

 -----------------------------------------------------------
 # opt freq B3LYP/6-31G(d) empiricaldispersion=gd3bj scf=xqc
 -----------------------------------------------------------

 ------------------------------
 CID_65546080_JID_7558_neutraal
 ------------------------------
 Symbolic Z-matrix:
 Charge =  0 Multiplicity = 1

 SCF Done:  E(RB3LYP) =  -802.123409005     A.U. after   15 cycles
 SCF Done:  E(RB3LYP) =  -802.127570827     A.U. after   13 cycles
 SCF Done:  E(RB3LYP) =  -802.126831633     A.U. after   13 cycles
 SCF Done:  E(RB3LYP) =  -802.128089823     A.U. after   12 cycles
 SCF Done:  E(RB3LYP) =  -802.128480037     A.U. after   12 cycles
 SCF Done:  E(RB3LYP) =  -802.128519829     A.U. after   10 cycles
 SCF Done:  E(RB3LYP) =  -802.128527623     A.U. after   10 cycles
 SCF Done:  E(RB3LYP) =  -802.128529901     A.U. after    9 cycles
 SCF Done:  E(RB3LYP) =  -802.128530183     A.U. after    7 cycles
 SCF Done:  E(RB3LYP) =  -802.128530260     A.U. after    7 cycles
 Optimization completed.
    -- Stationary point found.
 Normal termination of Gaussian 16 at Mon Dec 14 16:37:05 2020.

 --------------------------------------------------------------------
 #N Geom=AllCheck Guess=TCheck SCRF=Check GenChk RB3LYP/6-31G(d) Freq
 --------------------------------------------------------------------

 Structure from the checkpoint file:  "JID_7558.chk"
 ------------------------------
 CID_65546080_JID_7558_neutraal
 ------------------------------
 Charge =  0 Multiplicity = 1

 SCF Done:  E(RB3LYP) =  -802.128530260     A.U. after    1 cycles

  Exact polarizability: 159.710 -12.938 124.494   8.242  15.482 126.836
 Approx polarizability: 223.244 -23.611 196.208  20.088  34.841 211.723

                      1                      2                      3
                      A                      A                      A
 Frequencies --     21.5130                45.8027                59.5164
 Red. masses --      4.6847                 8.9302                 6.8150
 Frc consts  --      0.0013                 0.0110                 0.0142
 IR Inten    --      0.2864                 1.6246                 1.3478

                      4                      5                      6
                      A                      A                      A
 Frequencies --     64.1342                97.2257               137.6080
 Red. masses --      4.3291                 4.7214                 4.9911
 Frc consts  --      0.0105                 0.0263                 0.0557
 IR Inten    --      0.1531                 0.2498                 0.1926

                      7                      8                      9
                      A                      A                      A
 Frequencies --    190.6866               210.8127               226.2336
 Red. masses --      4.0692                 3.4053                 3.6306
 Frc consts  --      0.0872                 0.0892                 0.1095
 IR Inten    --      0.7633                 0.5191                 0.2978

                     10                     11                     12
                      A                      A                      A
 Frequencies --    244.3836               248.1111               291.9159
 Red. masses --      1.4071                 2.1815                 2.8498
 Frc consts  --      0.0495                 0.0791                 0.1431
 IR Inten    --      0.3516                 1.2767                 0.6267

                     13                     14                     15
                      A                      A                      A
 Frequencies --    332.7966               361.4829               388.1105
 Red. masses --      2.7741                 4.4396                 2.6164
 Frc consts  --      0.1810                 0.3418                 0.2322
 IR Inten    --      2.4091                 7.3673                 0.0960

                     16                     17                     18
                      A                      A                      A
 Frequencies --    414.0406               430.4829               441.5480
 Red. masses --      4.4895                 2.5307                 4.5714
 Frc consts  --      0.4535                 0.2763                 0.5251
 IR Inten    --      2.3280                 6.5385                 3.0557

                     19                     20                     21
                      A                      A                      A
 Frequencies --    493.3721               553.7945               555.8756
 Red. masses --      3.1737                 3.6981                 3.7566
 Frc consts  --      0.4552                 0.6682                 0.6839
 IR Inten    --      3.1047                 8.0079                26.9699

                     22                     23                     24
                      A                      A                      A
 Frequencies --    578.0567               611.7207               650.7744
 Red. masses --      2.2602                 2.7651                 3.4327
 Frc consts  --      0.4450                 0.6096                 0.8565
 IR Inten    --     24.6011                52.2754                30.1999

                     25                     26                     27
                      A                      A                      A
 Frequencies --    687.2800               701.6946               744.3301
 Red. masses --      6.4009                 1.6652                 3.1893
 Frc consts  --      1.7814                 0.4831                 1.0411
 IR Inten    --      2.6483                83.0502                10.8565

                     28                     29                     30
                      A                      A                      A
 Frequencies --    766.0478               780.8163               816.0598
 Red. masses --      3.6505                 2.6604                 2.7677
 Frc consts  --      1.2621                 0.9557                 1.0859
 IR Inten    --     11.7073                 9.3586                 4.3543

                     31                     32                     33
                      A                      A                      A
 Frequencies --    845.3367               852.4400               871.4092
 Red. masses --      1.6576                 2.6225                 3.3463
 Frc consts  --      0.6979                 1.1228                 1.4971
 IR Inten    --     13.5692                 5.2001                11.6553

                     34                     35                     36
                      A                      A                      A
 Frequencies --    891.5165               923.6810               977.2561
 Red. masses --      1.2488                 2.4004                 1.5299
 Frc consts  --      0.5848                 1.2066                 0.8609
 IR Inten    --      0.3947                 5.5149                 6.7020

                     37                     38                     39
                      A                      A                      A
 Frequencies --    981.3417               992.9526              1005.3873
 Red. masses --      1.8970                 1.4592                 2.7003
 Frc consts  --      1.0763                 0.8477                 1.6081
 IR Inten    --     31.0009                 0.1148                 3.2125

                     40                     41                     42
                      A                      A                      A
 Frequencies --   1016.2383              1033.1312              1067.7307
 Red. masses --      7.0547                 2.1015                 1.7960
 Frc consts  --      4.2926                 1.3216                 1.2064
 IR Inten    --      3.9227                17.0548                 2.0940

                     43                     44                     45
                      A                      A                      A
 Frequencies --   1085.3343              1103.6967              1115.0871
 Red. masses --      2.3507                 2.0826                 1.8072
 Frc consts  --      1.6314                 1.4947                 1.3240
 IR Inten    --     19.6962                 6.2763                20.9282

                     46                     47                     48
                      A                      A                      A
 Frequencies --   1123.8614              1143.0800              1145.3232
 Red. masses --      1.9351                 3.0371                 2.6321
 Frc consts  --      1.4401                 2.3381                 2.0342
 IR Inten    --     20.1851                48.6624                40.4901

                     49                     50                     51
                      A                      A                      A
 Frequencies --   1171.0341              1203.7703              1218.5784
 Red. masses --      2.2206                 2.2515                 2.7911
 Frc consts  --      1.7942                 1.9223                 2.4419
 IR Inten    --     41.8671               194.9764                25.4383

                     52                     53                     54
                      A                      A                      A
 Frequencies --   1243.2072              1260.3574              1269.5143
 Red. masses --      2.7257                 1.2867                 1.3985
 Frc consts  --      2.4821                 1.2042                 1.3280
 IR Inten    --      4.9402                 6.9345                12.5570

                     55                     56                     57
                      A                      A                      A
 Frequencies --   1287.7136              1298.9079              1312.2397
 Red. masses --      1.4383                 4.0070                 1.3119
 Frc consts  --      1.4052                 3.9832                 1.3310
 IR Inten    --     21.9906                15.5054                 3.0232

                     58                     59                     60
                      A                      A                      A
 Frequencies --   1343.7376              1348.2840              1379.7335
 Red. masses --      1.2939                 1.5592                 1.7668
 Frc consts  --      1.3765                 1.6700                 1.9816
 IR Inten    --     16.7610                 3.2982                28.1888

                     61                     62                     63
                      A                      A                      A
 Frequencies --   1384.9250              1391.7021              1412.5413
 Red. masses --      1.2468                 1.3289                 1.4842
 Frc consts  --      1.4089                 1.5165                 1.7448
 IR Inten    --      4.2055                 5.2646                23.3686

                     64                     65                     66
                      A                      A                      A
 Frequencies --   1416.3555              1431.7259              1436.5647
 Red. masses --      1.3857                 1.4320                 1.2803
 Frc consts  --      1.6379                 1.7294                 1.5568
 IR Inten    --     26.1187                16.2383                 6.4783

                     67                     68                     69
                      A                      A                      A
 Frequencies --   1441.7600              1463.9388              1507.6939
 Red. masses --      1.3484                 2.0201                 1.0806
 Frc consts  --      1.6514                 2.5508                 1.4473
 IR Inten    --      1.9149                20.3614                 3.6859

                     70                     71                     72
                      A                      A                      A
 Frequencies --   1518.0375              1522.2560              1530.3398
 Red. masses --      1.0809                 1.0712                 1.1062
 Frc consts  --      1.4675                 1.4625                 1.5263
 IR Inten    --      2.0215                11.4677                 4.6500

                     73                     74                     75
                      A                      A                      A
 Frequencies --   1533.4359              1544.0137              1619.1416
 Red. masses --      1.0550                 2.0363                 6.4949
 Frc consts  --      1.4616                 2.8602                10.0322
 IR Inten    --      2.0327                 1.3618                16.0956

                     76                     77                     78
                      A                      A                      A
 Frequencies --   1653.1304              1837.2000              3023.9522
 Red. masses --      5.3143                 9.9353                 1.0677
 Frc consts  --      8.5567                19.7580                 5.7522
 IR Inten    --     53.4000               256.2153                15.8511

                     79                     80                     81
                      A                      A                      A
 Frequencies --   3028.1409              3048.2525              3053.2536
 Red. masses --      1.0688                 1.0841                 1.0676
 Frc consts  --      5.7742                 5.9352                 5.8637
 IR Inten    --     50.3685                13.0796                31.2672

                     82                     83                     84
                      A                      A                      A
 Frequencies --   3065.3775              3070.2078              3109.4033
 Red. masses --      1.0366                 1.0829                 1.0987
 Frc consts  --      5.7392                 6.0141                 6.2589
 IR Inten    --     14.8960                17.9239                48.3375

                     85                     86                     87
                      A                      A                      A
 Frequencies --   3124.6643              3133.1651              3147.4276
 Red. masses --      1.0984                 1.0984                 1.1034
 Frc consts  --      6.3184                 6.3531                 6.4402
 IR Inten    --     30.0203                23.1214                21.9504

                     88                     89                     90
                      A                      A                      A
 Frequencies --   3150.4314              3169.1595              3171.5313
 Red. masses --      1.0958                 1.0867                 1.0896
 Frc consts  --      6.4081                 6.4308                 6.4576
 IR Inten    --     15.0935                18.4850                26.9488

                     91                     92                     93
                      A                      A                      A
 Frequencies --   3189.7134              3209.7851              3677.4659
 Red. masses --      1.0946                 1.0923                 1.0638
 Frc consts  --      6.5618                 6.6303                 8.4767
 IR Inten    --     22.9464                14.4505                52.4823

 - Thermochemistry -
 -------------------
 Temperature   298.150 Kelvin.  Pressure   1.00000 Atm.
 Atom     1 has atomic number  6 and mass  12.00000

 Molecular mass:   236.11609 amu.
 Principal axes and moments of inertia in atomic units:
                           1         2         3
     Eigenvalues --  2107.271775601.638846028.65876
           X            1.00000   0.00030  -0.00095
           Y           -0.00025   0.99902   0.04424
           Z            0.00096  -0.04424   0.99902
 This molecule is an asymmetric top.
 Rotational symmetry number  1.
 Warning -- assumption of classical behavior for rotation
           may cause significant error
 Rotational temperatures (Kelvin)      0.04110     0.01546     0.01437
 Rotational constants (GHZ):           0.85643     0.32218     0.29936
 Zero-point vibrational energy     727776.9 (Joules/Mol)
                                  173.94286 (Kcal/Mol)
 Warning -- explicit consideration of  23 degrees of freedom as
           vibrations may cause significant error
 Vibrational temperatures:     30.95    65.90    85.63    92.27   139.89
          (Kelvin)            197.99   274.36   303.31   325.50   351.61
                              356.98   420.00   478.82   520.09   558.40
                              595.71   619.37   635.29   709.85   796.79
                              799.78   831.69   880.13   936.32   988.84
                             1009.58  1070.92  1102.17  1123.42  1174.13
                             1216.25  1226.47  1253.76  1282.69  1328.97
                             1406.05  1411.93  1428.64  1446.53  1462.14
                             1486.45  1536.23  1561.55  1587.97  1604.36
                             1616.99  1644.64  1647.86  1684.86  1731.96
                             1753.26  1788.70  1813.37  1826.55  1852.73
                             1868.84  1888.02  1933.34  1939.88  1985.13
                             1992.60  2002.35  2032.33  2037.82  2059.93
                             2066.90  2074.37  2106.28  2169.24  2184.12
                             2190.19  2201.82  2206.27  2221.49  2329.58
                             2378.49  2643.32  4350.79  4356.82  4385.76
                             4392.95  4410.39  4417.34  4473.74  4495.69
                             4507.93  4528.45  4532.77  4559.71  4563.13
                             4589.29  4618.16  5291.05

 Zero-point correction=                           0.277196 (Hartree/Particle)
 Thermal correction to Energy=                    0.292304
 Thermal correction to Enthalpy=                  0.293249
 Thermal correction to Gibbs Free Energy=         0.233600
 Sum of electronic and zero-point Energies=           -801.851335
 Sum of electronic and thermal Energies=              -801.836226
 Sum of electronic and thermal Enthalpies=            -801.835282
 Sum of electronic and thermal Free Energies=         -801.894930

                     E (Thermal)             CV                S
                      KCal/Mol        Cal/Mol-Kelvin    Cal/Mol-Kelvin
 Total                  183.424             58.379            125.540
 Electronic               0.000              0.000              0.000
 Translational            0.889              2.981             42.279
 Rotational               0.889              2.981             32.631
 Vibrational            181.646             52.417             50.630
 Vibration     1          0.593              1.985              6.489
 Vibration     2          0.595              1.979              4.991
 Vibration     3          0.597              1.974              4.473
 Vibration     4          0.597              1.971              4.326
 Vibration     5          0.603              1.951              3.509
 Vibration     6          0.614              1.916              2.837
 Vibration     7          0.634              1.853              2.221
 Vibration     8          0.643              1.824              2.037
 Vibration     9          0.650              1.801              1.909
 Vibration    10          0.660              1.772              1.771
 Vibration    11          0.662              1.766              1.744
 Vibration    12          0.687              1.689              1.463
 Vibration    13          0.715              1.610              1.246
 Vibration    14          0.736              1.552              1.116
 Vibration    15          0.756              1.496              1.007
 Vibration    16          0.778              1.440              0.912
 Vibration    17          0.792              1.404              0.857
 Vibration    18          0.801              1.380              0.822
 Vibration    19          0.849              1.265              0.675
 Vibration    20          0.909              1.131              0.536
 Vibration    21          0.911              1.127              0.532
 Vibration    22          0.935              1.079              0.489
 Vibration    23          0.971              1.007              0.430

                           ! Non-Optimized Parameters !
 Normal termination of Gaussian 16 at Mon Dec 14 16:51:15 2020.

 ----------------------------------------------------------------------
 # B3LYP/6-311++G(d,p) empiricaldispersion=gd3bj scf=xqc pop=npa geom=c
 heck
 ----------------------------------------------------------------------

 --------------------------------------
 CID_65546080_JID_7558_Energie_neutraal
 --------------------------------------
 Structure from the checkpoint file:  "JID_7558.chk"
 Charge =  0 Multiplicity = 1

 SCF Done:  E(RB3LYP) =  -802.358548495     A.U. after   16 cycles
 Normal termination of Gaussian 16 at Mon Dec 14 16:58:01 2020.

 ----------------------------------------------------------------------
 # B3LYP/6-311++G(d,p) empiricaldispersion=gd3bj scf=xqc pop=npa geom=c
 heck
 ----------------------------------------------------------------------

 ------------------------------------
 CID_65546080_JID_7558_Energie_kation
 ------------------------------------
 Structure from the checkpoint file:  "JID_7558.chk"
 Charge =  1 Multiplicity = 2

 SCF Done:  E(UB3LYP) =  -802.075269252     A.U. after   23 cycles
 Normal termination of Gaussian 16 at Mon Dec 14 17:12:59 2020.
 Gaussian 16:  ES64L-G16RevA.03 25-Dec-2016

 ----------------------------------------------------------------------
 # B3LYP/6-311++G(d,p) empiricaldispersion=gd3bj scf=xqc pop=npa geom=c
 heck
 ----------------------------------------------------------------------

 -----------------------------------
 CID_65546080_JID_7558_Energie_anion
 -----------------------------------
 Structure from the checkpoint file:  "JID_7558.chk"
 Charge = -1 Multiplicity = 2

                         Standard orientation:
 ---------------------------------------------------------------------
 Center     Atomic      Atomic             Coordinates (Angstroms)
 Number     Number       Type             X           Y           Z
 ---------------------------------------------------------------------
      1          6           0        0.548090    2.853923   -0.170242
      2          6           0        0.375165    1.391787   -0.594623
      3          6           0        1.658846    0.575205   -0.453548
      4          6           0        2.500171    0.666791    0.660472
      5          6           0        3.610434   -0.171962    0.749913
      6          7           0        3.944122   -1.074954   -0.180706
      7          6           0        3.148379   -1.148209   -1.254596
      8          6           0        2.015639   -0.355511   -1.434563
      9          7           0       -0.795201    0.792289    0.057627
     10          6           0       -0.802059    0.623783    1.512257
     11          6           0       -0.462007   -0.800167    1.956303
     12          8           0       -1.310154   -1.738157    1.299464
     13          6           0       -1.113726   -1.686305   -0.104312
     14          6           0       -1.470615   -0.286974   -0.643629
     15          6           0       -2.999084   -0.144241   -0.645012
     16          8           0       -3.737492   -0.979553   -1.119479
     17          8           0       -3.452870    1.001757   -0.094465
     18          1           0        0.787958    2.959041    0.892109
     19          1           0       -0.381731    3.396767   -0.359574
     20          1           0        1.360814    3.318851   -0.737768
     21          1           0        0.127235    1.401859   -1.662658
     22          1           0        2.303927    1.378507    1.455904
     23          1           0        4.269248   -0.113149    1.614722
     24          1           0        3.432868   -1.876720   -2.011966
     25          1           0        1.416361   -0.463773   -2.335248
     26          1           0       -1.806809    0.871067    1.877743
     27          1           0       -0.108134    1.336423    1.964659
     28          1           0        0.590716   -1.037981    1.743789
     29          1           0       -0.640600   -0.921584    3.029195
     30          1           0       -1.767589   -2.439712   -0.546412
     31          1           0       -0.066270   -1.912755   -0.352131
     32          1           0       -1.186345   -0.250210   -1.702040
     33          1           0       -4.425381    0.950931   -0.163444
 ---------------------------------------------------------------------

 SCF Done:  E(UB3LYP) =  -802.352310004     A.U. after   33 cycles
 SCF Done:  E(UB3LYP) =  -802.352310004     a.u. after    1 cycles

 The electronic state is 2-A.
 Alpha  occ. eigenvalues --  -19.06948 -19.02996 -19.01461 -14.20387 -14.17789
 Alpha  occ. eigenvalues --  -10.20457 -10.11856 -10.11835 -10.11655 -10.10476
 Alpha  occ. eigenvalues --  -10.09660 -10.08614 -10.08577 -10.06177 -10.06092
 Alpha  occ. eigenvalues --  -10.06076 -10.05921  -1.01128  -0.94685  -0.92117
 Alpha  occ. eigenvalues --   -0.83037  -0.81984  -0.70687  -0.68574  -0.65052
 Alpha  occ. eigenvalues --   -0.64296  -0.59379  -0.57806  -0.54442  -0.52210
 Alpha  occ. eigenvalues --   -0.51248  -0.48390  -0.46066  -0.42049  -0.40560
 Alpha  occ. eigenvalues --   -0.39619  -0.39089  -0.38389  -0.37490  -0.36704
 Alpha  occ. eigenvalues --   -0.35710  -0.35306  -0.33741  -0.32746  -0.31841
 Alpha  occ. eigenvalues --   -0.31131  -0.30619  -0.29408  -0.28563  -0.28180
 Alpha  occ. eigenvalues --   -0.27411  -0.26953  -0.26357  -0.25131  -0.23237
 Alpha  occ. eigenvalues --   -0.22447  -0.22202  -0.19198  -0.17679  -0.16951
 Alpha  occ. eigenvalues --   -0.15119  -0.14165  -0.10306   0.04530
 Alpha virt. eigenvalues --    0.06238   0.07191   0.07544   0.08541   0.08925
 Alpha virt. eigenvalues --    0.09257   0.09600   0.10065   0.10513   0.10776
 Alpha virt. eigenvalues --    0.11267   0.12031   0.12994   0.13159   0.13706

  Beta  occ. eigenvalues --  -19.06902 -19.02992 -19.01444 -14.20343 -14.17487
  Beta  occ. eigenvalues --  -10.20450 -10.11852 -10.11823 -10.11655 -10.10481
  Beta  occ. eigenvalues --  -10.09652 -10.08594 -10.08530 -10.06182 -10.06060
  Beta  occ. eigenvalues --  -10.05919 -10.05788  -1.01068  -0.94675  -0.92064
  Beta  occ. eigenvalues --   -0.82921  -0.81608  -0.70371  -0.68516  -0.64916
  Beta  occ. eigenvalues --   -0.64128  -0.59319  -0.57776  -0.54328  -0.52000
  Beta  occ. eigenvalues --   -0.51139  -0.48201  -0.45985  -0.41970  -0.40475
  Beta  occ. eigenvalues --   -0.39581  -0.39037  -0.38377  -0.37455  -0.36586
  Beta  occ. eigenvalues --   -0.35602  -0.35165  -0.33703  -0.32668  -0.31783
  Beta  occ. eigenvalues --   -0.31071  -0.30576  -0.29380  -0.28207  -0.27832
  Beta  occ. eigenvalues --   -0.27360  -0.26914  -0.26133  -0.24997  -0.23145
  Beta  occ. eigenvalues --   -0.22407  -0.22135  -0.19106  -0.17613  -0.15736
  Beta  occ. eigenvalues --   -0.14670  -0.13814  -0.10156
  Beta virt. eigenvalues --    0.06879   0.07784   0.07892   0.08449   0.08958
  Beta virt. eigenvalues --    0.09085   0.09446   0.09656   0.10295   0.10712
  Beta virt. eigenvalues --    0.10746   0.11459   0.12066   0.13228   0.13306

 Mulliken charges and spin densities:
               1          2
     1  C    0.252299  -0.834016
     2  C    0.141224  -0.618369
     3  C    0.124043   0.109101
     4  C   -0.269852   0.446073
     5  C   -0.283701  -0.254734
     6  N   -0.123307   0.134675
     7  C   -0.258867  -0.400727
     8  C    0.022424   0.438022
     9  N    0.686437  -0.199905
    10  C    0.246216  -0.371941
    11  C   -0.511491   0.055490
    12  O   -0.094005  -0.004851
    13  C   -0.144273  -0.236501
    14  C   -0.128414  -0.147716
    15  C   -0.275379   0.152055
    16  O   -0.251161   0.002533
    17  O   -0.179607   0.029217
    18  H    0.001154   0.144349
    19  H    0.028847   0.138258
    20  H    0.047239   0.093612
    21  H   -0.475455   0.681867
    22  H    0.021574   0.096288
    23  H    0.112363   0.020932
    24  H    0.086566   0.051582
    25  H   -0.223360   0.369885
    26  H    0.070930   0.116996
    27  H    0.122577  -0.033223
    28  H    0.220967   0.006531
    29  H    0.140425   0.019618
    30  H    0.244881  -0.019494
    31  H    0.204139  -0.022702
    32  H   -0.164983   0.357365
    33  H   -0.390451   0.679728
 Sum of Mulliken charges =  -1.00000   1.00000

 Dipole moment (field-independent basis, Debye):
    X=              1.2194    Y=             -0.4984    Z=              3.5380  Tot=              3.7752
 Quadrupole moment (field-independent basis, Debye-Ang):
   XX=           -185.0635   YY=           -132.1806   ZZ=           -124.5897
   XY=              6.7438   XZ=              0.3408   YZ=              5.3037

 Summary of Natural Population Analysis:

                                       Natural Population
                Natural  -----------------------------------------------
    Atom  No    Charge         Core      Valence    Rydberg      Total
 -----------------------------------------------------------------------
      C    1   -0.28355      0.99964     2.27783    0.00608     3.28355
      C    2   -0.00870      0.99954     1.99436    0.01480     3.00870
      C    3    0.03720      0.99947     1.95234    0.01098     2.96280
      C    4   -0.13500      0.99950     2.12665    0.00884     3.13500
      C    5    0.02988      0.99960     1.95483    0.01569     2.97012
      N    6   -0.20610      0.99972     2.69510    0.01129     3.70610
      C    7    0.02648      0.99959     1.95823    0.01570     2.97352
      C    8   -0.12773      0.99950     2.11837    0.00986     3.12773
      N    9   -0.27661      0.99969     2.75981    0.01711     3.77661
      C   10   -0.10109      0.99960     2.09086    0.01063     3.10109
      C   11   -0.02185      0.99958     2.01100    0.01128     3.02185
      O   12   -0.29965      0.99989     3.29180    0.00795     4.29965
      C   13   -0.01857      0.99956     2.00641    0.01260     3.01857
      C   14   -0.06234      0.99953     2.04872    0.01410     3.06234
      C   15    0.41062      0.99969     1.56314    0.02655     2.58938
      O   16   -0.31390      0.99987     3.30807    0.00596     4.31390
      O   17   -0.33488      0.99987     3.32775    0.00727     4.33488
      H   18    0.09325      0.00000     0.40584    0.00090     0.40675
      H   19    0.10473      0.00000     0.39422    0.00105     0.39527
      H   20    0.10209      0.00000     0.39711    0.00081     0.39791
      H   21    0.10067      0.00000     0.39661    0.00272     0.39933
      H   22    0.09792      0.00000     0.40097    0.00111     0.40208
      H   23    0.08291      0.00000     0.41599    0.00110     0.41709
      H   24    0.08435      0.00000     0.41445    0.00120     0.41565
      H   25    0.09983      0.00000     0.39863    0.00154     0.40017
      H   26    0.09850      0.00000     0.40000    0.00150     0.40150
      H   27    0.09924      0.00000     0.39965    0.00111     0.40076
      H   28    0.08691      0.00000     0.41192    0.00117     0.41309
      H   29    0.08670      0.00000     0.41239    0.00092     0.41330
      H   30    0.09991      0.00000     0.39899    0.00110     0.40009
      H   31    0.08819      0.00000     0.41069    0.00112     0.41181
      H   32    0.11912      0.00000     0.37939    0.00150     0.38088
      H   33    0.24151      0.00000     0.24518    0.01331     0.25849
 =======================================================================
   * Total *    0.00000     16.99386    45.76732    0.23883    63.00000

 Normal termination of Gaussian 16 at Mon Dec 14 17:35:12 2020.
