 Gaussian 16, Revision A.03,

 -----------------------------------------------------------
 # opt freq B3LYP/6-31G(d) empiricaldispersion=gd3bj scf=xqc
 -----------------------------------------------------------

 -------------------------------
 CID_127661214_JID_8983_neutraal
 -------------------------------
 Symbolic Z-matrix:
 Charge =  0 Multiplicity = 1

 SCF Done:  E(RB3LYP) =  -1215.19441714     A.U. after   15 cycles
 SCF Done:  E(RB3LYP) =  -1215.20308407     A.U. after   12 cycles
 SCF Done:  E(RB3LYP) =  -1215.20421270     A.U. after   12 cycles
 SCF Done:  E(RB3LYP) =  -1215.20441272     A.U. after   12 cycles
 SCF Done:  E(RB3LYP) =  -1215.20457475     A.U. after   12 cycles
 SCF Done:  E(RB3LYP) =  -1215.20468640     A.U. after   12 cycles
 SCF Done:  E(RB3LYP) =  -1215.20483358     A.U. after   12 cycles
 SCF Done:  E(RB3LYP) =  -1215.20488938     A.U. after   10 cycles
 SCF Done:  E(RB3LYP) =  -1215.20498853     A.U. after   11 cycles
 SCF Done:  E(RB3LYP) =  -1215.20510336     A.U. after   11 cycles
 SCF Done:  E(RB3LYP) =  -1215.20629082     A.U. after    8 cycles
 SCF Done:  E(RB3LYP) =  -1215.20629138     A.U. after    8 cycles
 SCF Done:  E(RB3LYP) =  -1215.20629162     A.U. after    8 cycles
 SCF Done:  E(RB3LYP) =  -1215.20629170     A.U. after    7 cycles
 SCF Done:  E(RB3LYP) =  -1215.20629173     A.U. after    7 cycles
 Optimization completed.
    -- Stationary point found.
 Normal termination of Gaussian 16 at Fri Dec 11 23:38:55 2020.

 --------------------------------------------------------------------
 #N Geom=AllCheck Guess=TCheck SCRF=Check GenChk RB3LYP/6-31G(d) Freq
 --------------------------------------------------------------------

 Structure from the checkpoint file:  "JID_8983.chk"
 -------------------------------
 CID_127661214_JID_8983_neutraal
 -------------------------------
 Charge =  0 Multiplicity = 1

 SCF Done:  E(RB3LYP) =  -1215.20629173     A.U. after    1 cycles

  Exact polarizability: 173.729  -1.277 142.016   9.488  -8.677 129.438
 Approx polarizability: 220.642   3.604 263.303  16.619 -35.013 209.103

                      1                      2                      3
                      A                      A                      A
 Frequencies --     19.4578                28.6393                35.4645
 Red. masses --      5.6269                 5.8659                 6.3126
 Frc consts  --      0.0013                 0.0028                 0.0047
 IR Inten    --      0.3929                 0.4700                 0.0075

                      4                      5                      6
                      A                      A                      A
 Frequencies --     59.4825                67.7849                71.7910
 Red. masses --      2.3962                 5.2969                 1.1419
 Frc consts  --      0.0050                 0.0143                 0.0035
 IR Inten    --      0.1966                 1.1455                 0.1958

                      7                      8                      9
                      A                      A                      A
 Frequencies --    109.6228               134.4632               165.0701
 Red. masses --      6.2727                 5.1446                 5.6411
 Frc consts  --      0.0444                 0.0548                 0.0906
 IR Inten    --      2.6379                 0.9004                 4.3975

                     10                     11                     12
                      A                      A                      A
 Frequencies --    185.2066               196.3632               260.7897
 Red. masses --      6.2633                 3.3961                 5.3076
 Frc consts  --      0.1266                 0.0772                 0.2127
 IR Inten    --      6.6154                 4.8864                 5.4380

                     13                     14                     15
                      A                      A                      A
 Frequencies --    294.7939               309.6495               335.7590
 Red. masses --      2.5306                 4.8091                 6.3016
 Frc consts  --      0.1296                 0.2717                 0.4186
 IR Inten    --      5.0037                 2.2112                16.9262

                     16                     17                     18
                      A                      A                      A
 Frequencies --    349.0783               357.8946               436.2006
 Red. masses --      2.7549                 2.6395                 1.6722
 Frc consts  --      0.1978                 0.1992                 0.1875
 IR Inten    --      5.1583                 0.3481                83.0065

                     19                     20                     21
                      A                      A                      A
 Frequencies --    450.9331               468.7831               513.3782
 Red. masses --      4.3197                 2.0367                 4.9359
 Frc consts  --      0.5175                 0.2637                 0.7665
 IR Inten    --     11.6668                26.2735                 9.5555

                     22                     23                     24
                      A                      A                      A
 Frequencies --    586.3889               614.9179               628.9807
 Red. masses --      7.0434                 4.6652                 3.7415
 Frc consts  --      1.4269                 1.0393                 0.8721
 IR Inten    --      2.1953                 2.8751                 3.7497

                     25                     26                     27
                      A                      A                      A
 Frequencies --    635.3273               644.8340               683.1421
 Red. masses --      5.1745                 7.9749                 5.0530
 Frc consts  --      1.2306                 1.9537                 1.3894
 IR Inten    --     25.5843                19.2665                11.8529

                     28                     29                     30
                      A                      A                      A
 Frequencies --    709.0961               725.3931               729.3633
 Red. masses --      5.9735                 6.3953                 7.8152
 Frc consts  --      1.7697                 1.9827                 2.4495
 IR Inten    --      7.1689                12.0880                13.0755

                     31                     32                     33
                      A                      A                      A
 Frequencies --    759.1809               782.4378               801.8524
 Red. masses --      8.3565                 6.5535                 5.1199
 Frc consts  --      2.8377                 2.3639                 1.9396
 IR Inten    --     16.9337                14.8473                 5.5177

                     34                     35                     36
                      A                      A                      A
 Frequencies --    829.8584               877.7626               899.9044
 Red. masses --      1.3155                 1.4681                 2.7803
 Frc consts  --      0.5338                 0.6664                 1.3266
 IR Inten    --      8.3141                 8.3008                 4.8227

                     37                     38                     39
                      A                      A                      A
 Frequencies --    943.8843               959.7010               983.3650
 Red. masses --      3.8152                 3.2070                 2.4896
 Frc consts  --      2.0027                 1.7403                 1.4184
 IR Inten    --     14.2271                20.9936                17.8398

                     40                     41                     42
                      A                      A                      A
 Frequencies --    995.5126               999.1757              1018.3318
 Red. masses --      1.7999                 2.2236                 1.8397
 Frc consts  --      1.0510                 1.3080                 1.1240
 IR Inten    --     32.8466                 7.3614                 7.6884

                     43                     44                     45
                      A                      A                      A
 Frequencies --   1064.2502              1095.2441              1122.8128
 Red. masses --      1.4157                 4.2162                 4.0551
 Frc consts  --      0.9447                 2.9798                 3.0121
 IR Inten    --      0.8316                29.3109                62.3482

                     46                     47                     48
                      A                      A                      A
 Frequencies --   1141.8313              1177.6459              1179.9659
 Red. masses --      3.3419                 2.2042                 3.8344
 Frc consts  --      2.5671                 1.8010                 3.1455
 IR Inten    --     40.2529                 4.8000                16.5585

                     49                     50                     51
                      A                      A                      A
 Frequencies --   1184.9904              1203.5483              1220.0414
 Red. masses --      2.6472                 2.7992                 2.9531
 Frc consts  --      2.1901                 2.3890                 2.5899
 IR Inten    --     55.4228                12.6937                 8.5734

                     52                     53                     54
                      A                      A                      A
 Frequencies --   1238.2474              1250.9311              1278.0066
 Red. masses --      1.8150                 1.2316                 1.3173
 Frc consts  --      1.6396                 1.1355                 1.2676
 IR Inten    --     17.5267                 9.8777                 2.1877

                     55                     56                     57
                      A                      A                      A
 Frequencies --   1312.6082              1319.1625              1335.7999
 Red. masses --      1.4381                 1.9355                 1.9552
 Frc consts  --      1.4598                 1.9845                 2.0555
 IR Inten    --     14.8206                 0.7413                37.1122

                     58                     59                     60
                      A                      A                      A
 Frequencies --   1361.9818              1385.2994              1391.5401
 Red. masses --      1.3816                 1.6370                 1.5415
 Frc consts  --      1.5100                 1.8509                 1.7587
 IR Inten    --     30.0339               155.3369                43.4820

                     61                     62                     63
                      A                      A                      A
 Frequencies --   1405.5815              1418.4850              1433.6826
 Red. masses --      1.3915                 2.0514                 1.2631
 Frc consts  --      1.6198                 2.4319                 1.5297
 IR Inten    --     34.5335                 5.2666                 1.1039

                     64                     65                     66
                      A                      A                      A
 Frequencies --   1452.2361              1493.3100              1502.6466
 Red. masses --      3.6725                 1.1520                 1.2516
 Frc consts  --      4.5634                 1.5135                 1.6651
 IR Inten    --    246.6021                70.0544                20.6087

                     67                     68                     69
                      A                      A                      A
 Frequencies --   1507.7409              1514.4289              1532.3670
 Red. masses --      1.0440                 1.0868                 1.0876
 Frc consts  --      1.3983                 1.4686                 1.5046
 IR Inten    --      9.1629                 5.8828                 1.1731

                     70                     71                     72
                      A                      A                      A
 Frequencies --   1550.0966              1554.6236              1601.4342
 Red. masses --      4.0175                 1.0992                 5.8013
 Frc consts  --      5.6876                 1.5652                 8.7658
 IR Inten    --     20.8755                 1.5714                12.8167

                     73                     74                     75
                      A                      A                      A
 Frequencies --   1818.4844              1874.6679              3015.1016
 Red. masses --     12.2531                11.1662                 1.0690
 Frc consts  --     23.8734                23.1209                 5.7258
 IR Inten    --    574.4460               187.9124                31.9696

                     76                     77                     78
                      A                      A                      A
 Frequencies --   3035.2498              3056.6941              3099.9011
 Red. masses --      1.0703                 1.0371                 1.0602
 Frc consts  --      5.8093                 5.7092                 6.0024
 IR Inten    --     70.4466                17.6599                 8.1350

                     79                     80                     81
                      A                      A                      A
 Frequencies --   3102.2452              3111.6299              3121.1335
 Red. masses --      1.0584                 1.1015                 1.0977
 Frc consts  --      6.0014                 6.2838                 6.3003
 IR Inten    --      9.5777                10.6071                24.3446

                     82                     83                     84
                      A                      A                      A
 Frequencies --   3140.4411              3154.5241              3155.0677
 Red. masses --      1.0970                 1.1074                 1.1072
 Frc consts  --      6.3744                 6.4927                 6.4940
 IR Inten    --     16.9550                 0.1892                11.6320

                     85                     86                     87
                      A                      A                      A
 Frequencies --   3159.3246              3230.0475              3646.0313
 Red. masses --      1.1009                 1.0939                 1.0787
 Frc consts  --      6.4743                 6.7242                 8.4489
 IR Inten    --      4.6304                 5.4165                58.1873

 - Thermochemistry -
 -------------------
 Temperature   298.150 Kelvin.  Pressure   1.00000 Atm.
 Atom     1 has atomic number  6 and mass  12.00000

 Molecular mass:   267.06776 amu.
 Principal axes and moments of inertia in atomic units:
                           1         2         3
     Eigenvalues --  2182.903448630.787298971.24051
           X            0.99999  -0.00229   0.00311
           Y            0.00193   0.99360   0.11294
           Z           -0.00335  -0.11294   0.99360
 This molecule is an asymmetric top.
 Rotational symmetry number  1.
 Warning -- assumption of classical behavior for rotation
           may cause significant error
 Rotational temperatures (Kelvin)      0.03968     0.01004     0.00965
 Rotational constants (GHZ):           0.82676     0.20911     0.20117
 Zero-point vibrational energy     637670.0 (Joules/Mol)
                                  152.40679 (Kcal/Mol)
 Warning -- explicit consideration of  23 degrees of freedom as
           vibrations may cause significant error
 Vibrational temperatures:     28.00    41.21    51.03    85.58    97.53
          (Kelvin)            103.29   157.72   193.46   237.50   266.47
                              282.52   375.22   424.14   445.52   483.08
                              502.25   514.93   627.60   648.79   674.47
                              738.64   843.68   884.73   904.96   914.09
                              927.77   982.89  1020.23  1043.68  1049.39
                             1092.29  1125.75  1153.69  1193.98  1262.90
                             1294.76  1358.04  1380.80  1414.84  1432.32
                             1437.59  1465.15  1531.22  1575.81  1615.48
                             1642.84  1694.37  1697.71  1704.94  1731.64
                             1755.37  1781.56  1799.81  1838.77  1888.55
                             1897.98  1921.92  1959.59  1993.14  2002.12
                             2022.32  2040.88  2062.75  2089.44  2148.54
                             2161.97  2169.30  2178.93  2204.73  2230.24
                             2236.76  2304.11  2616.39  2697.23  4338.06
                             4367.05  4397.90  4460.07  4463.44  4476.94
                             4490.61  4518.39  4538.66  4539.44  4545.56
                             4647.32  5245.83

 Zero-point correction=                           0.242876 (Hartree/Particle)
 Thermal correction to Energy=                    0.259505
 Thermal correction to Enthalpy=                  0.260449
 Thermal correction to Gibbs Free Energy=         0.195372
 Sum of electronic and zero-point Energies=          -1214.963416
 Sum of electronic and thermal Energies=             -1214.946787
 Sum of electronic and thermal Enthalpies=           -1214.945843
 Sum of electronic and thermal Free Energies=        -1215.010920

                     E (Thermal)             CV                S
                      KCal/Mol        Cal/Mol-Kelvin    Cal/Mol-Kelvin
 Total                  162.842             60.995            136.967
 Electronic               0.000              0.000              0.000
 Translational            0.889              2.981             42.646
 Rotational               0.889              2.981             33.491
 Vibrational            161.064             55.034             60.830
 Vibration     1          0.593              1.986              6.689
 Vibration     2          0.593              1.984              5.922
 Vibration     3          0.594              1.982              5.498
 Vibration     4          0.597              1.974              4.474
 Vibration     5          0.598              1.970              4.217
 Vibration     6          0.598              1.967              4.104
 Vibration     7          0.606              1.942              3.276
 Vibration     8          0.613              1.919              2.881
 Vibration     9          0.623              1.885              2.491
 Vibration    10          0.631              1.860              2.275
 Vibration    11          0.636              1.845              2.167
 Vibration    12          0.669              1.744              1.656
 Vibration    13          0.689              1.683              1.446
 Vibration    14          0.699              1.655              1.364
 Vibration    15          0.717              1.604              1.232
 Vibration    16          0.726              1.577              1.170
 Vibration    17          0.733              1.559              1.131
 Vibration    18          0.797              1.391              0.839
 Vibration    19          0.810              1.359              0.793
 Vibration    20          0.826              1.319              0.741
 Vibration    21          0.868              1.220              0.626
 Vibration    22          0.943              1.061              0.474
 Vibration    23          0.974              1.000              0.425

                           ! Non-Optimized Parameters !
 Normal termination of Gaussian 16 at Fri Dec 11 23:50:06 2020.

 ----------------------------------------------------------------------
 # B3LYP/6-311++G(d,p) empiricaldispersion=gd3bj scf=xqc pop=npa geom=c
 heck
 ----------------------------------------------------------------------

 ---------------------------------------
 CID_127661214_JID_8983_Energie_neutraal
 ---------------------------------------
 Structure from the checkpoint file:  "JID_8983.chk"
 Charge =  0 Multiplicity = 1

 SCF Done:  E(RB3LYP) =  -1215.46401445     A.U. after   15 cycles
 Normal termination of Gaussian 16 at Fri Dec 11 23:55:25 2020.

 ----------------------------------------------------------------------
 # B3LYP/6-311++G(d,p) empiricaldispersion=gd3bj scf=xqc pop=npa geom=c
 heck
 ----------------------------------------------------------------------

 -------------------------------------
 CID_127661214_JID_8983_Energie_kation
 -------------------------------------
 Structure from the checkpoint file:  "JID_8983.chk"
 Charge =  1 Multiplicity = 2

 SCF Done:  E(UB3LYP) =  -1215.15021652     A.U. after   27 cycles
 Normal termination of Gaussian 16 at Sat Dec 12 00:09:09 2020.
 Gaussian 16:  ES64L-G16RevA.03 25-Dec-2016

 ----------------------------------------------------------------------
 # B3LYP/6-311++G(d,p) empiricaldispersion=gd3bj scf=xqc pop=npa geom=c
 heck
 ----------------------------------------------------------------------

 ------------------------------------
 CID_127661214_JID_8983_Energie_anion
 ------------------------------------
 Structure from the checkpoint file:  "JID_8983.chk"
 Charge = -1 Multiplicity = 2

                         Standard orientation:
 ---------------------------------------------------------------------
 Center     Atomic      Atomic             Coordinates (Angstroms)
 Number     Number       Type             X           Y           Z
 ---------------------------------------------------------------------
      1          6           0       -4.887223   -0.717212   -1.647148
      2          6           0       -3.831731   -0.599120   -0.592637
      3          7           0       -3.573288   -1.520862    0.292186
      4          6           0       -2.554458   -1.132198    1.131744
      5          6           0       -2.018361    0.104081    0.909839
      6         16           0       -2.822521    0.840552   -0.455119
      7          6           0       -0.879294    0.752666    1.634157
      8          7           0        0.372190    0.666473    0.890031
      9          6           0        1.223871   -0.413106    0.928199
     10          8           0        1.128054   -1.392934    1.641570
     11          6           0        2.330977   -0.125222   -0.085961
     12          6           0        2.593788   -1.280014   -1.077621
     13          6           0        4.126689   -1.216715   -1.310010
     14          8           0        4.605915   -0.098302   -0.553276
     15          6           0        3.726074    0.035823    0.549098
     16          7           0        1.851433    1.099211   -0.712070
     17          6           0        0.743000    1.614082   -0.092273
     18          8           0        0.156037    2.655003   -0.310923
     19          1           0       -5.650667    0.061717   -1.539515
     20          1           0       -4.462206   -0.628873   -2.653350
     21          1           0       -5.364875   -1.694580   -1.549511
     22          1           0       -2.219297   -1.807111    1.911661
     23          1           0       -1.065883    1.812404    1.821156
     24          1           0       -0.720487    0.242656    2.586966
     25          1           0        2.297453   -2.224252   -0.613605
     26          1           0        2.010766   -1.139666   -1.990008
     27          1           0        4.404051   -1.046229   -2.353096
     28          1           0        4.612656   -2.139412   -0.964333
     29          1           0        3.882514    1.015239    1.006258
     30          1           0        3.879451   -0.755465    1.299584
     31          1           0        2.444466    1.692444   -1.274624
 ---------------------------------------------------------------------

 SCF Done:  E(UB3LYP) =  -1215.45704015     A.U. after   33 cycles
 SCF Done:  E(UB3LYP) =  -1215.45704015     a.u. after    1 cycles

 The electronic state is 2-A.
 Alpha  occ. eigenvalues --  -88.76065 -19.04295 -19.01315 -19.00848 -14.26806
 Alpha  occ. eigenvalues --  -14.25172 -14.19653 -10.21576 -10.18903 -10.14519
 Alpha  occ. eigenvalues --  -10.13579 -10.12886 -10.12744 -10.11606 -10.09005
 Alpha  occ. eigenvalues --  -10.08788 -10.08456 -10.08221  -7.84721  -5.80993
 Alpha  occ. eigenvalues --   -5.80650  -5.80331  -0.98539  -0.96235  -0.95496
 Alpha  occ. eigenvalues --   -0.88644  -0.84846  -0.82655  -0.70204  -0.69994
 Alpha  occ. eigenvalues --   -0.67007  -0.65854  -0.63794  -0.58393  -0.56243
 Alpha  occ. eigenvalues --   -0.52871  -0.52229  -0.49988  -0.45896  -0.43860
 Alpha  occ. eigenvalues --   -0.43723  -0.41831  -0.40548  -0.39223  -0.38881
 Alpha  occ. eigenvalues --   -0.37024  -0.36265  -0.35072  -0.34945  -0.34114
 Alpha  occ. eigenvalues --   -0.33680  -0.32729  -0.32063  -0.30864  -0.29555
 Alpha  occ. eigenvalues --   -0.29429  -0.28211  -0.27883  -0.27641  -0.27257
 Alpha  occ. eigenvalues --   -0.24511  -0.24261  -0.20517  -0.19780  -0.18557
 Alpha  occ. eigenvalues --   -0.17498  -0.17119  -0.16641  -0.16138  -0.13381
 Alpha  occ. eigenvalues --    0.04305
 Alpha virt. eigenvalues --    0.05875   0.06909   0.07204   0.07576   0.07865
 Alpha virt. eigenvalues --    0.08769   0.09801   0.10102   0.10194   0.10387
 Alpha virt. eigenvalues --    0.10958   0.11223   0.11746   0.12798   0.13093

  Beta  occ. eigenvalues --  -88.76041 -19.04289 -19.01236 -19.00847 -14.26787
  Beta  occ. eigenvalues --  -14.25153 -14.19665 -10.21558 -10.18820 -10.14526
  Beta  occ. eigenvalues --  -10.13537 -10.12847 -10.12747 -10.11337 -10.08995
  Beta  occ. eigenvalues --  -10.08628 -10.08410 -10.08239  -7.84699  -5.80986
  Beta  occ. eigenvalues --   -5.80644  -5.80243  -0.98483  -0.96223  -0.95394
  Beta  occ. eigenvalues --   -0.88603  -0.84666  -0.82603  -0.70004  -0.69943
  Beta  occ. eigenvalues --   -0.66784  -0.65779  -0.63710  -0.58277  -0.56155
  Beta  occ. eigenvalues --   -0.52789  -0.52146  -0.49895  -0.45700  -0.43742
  Beta  occ. eigenvalues --   -0.43577  -0.41745  -0.40432  -0.39160  -0.38776
  Beta  occ. eigenvalues --   -0.36950  -0.36168  -0.35040  -0.34858  -0.33753
  Beta  occ. eigenvalues --   -0.33590  -0.32629  -0.31972  -0.30635  -0.29456
  Beta  occ. eigenvalues --   -0.29356  -0.28148  -0.27831  -0.27264  -0.27144
  Beta  occ. eigenvalues --   -0.24368  -0.24192  -0.20459  -0.19750  -0.18420
  Beta  occ. eigenvalues --   -0.17437  -0.16804  -0.16500  -0.16072  -0.12433
  Beta virt. eigenvalues --    0.06643   0.06993   0.07539   0.07995   0.08254
  Beta virt. eigenvalues --    0.08428   0.09086   0.10120   0.10225   0.10391
  Beta virt. eigenvalues --    0.10541   0.11116   0.11434   0.11766   0.12793

 Mulliken charges and spin densities:
               1          2
     1  C   -0.262854  -0.191271
     2  C   -0.228720   0.186603
     3  N   -0.040902  -0.002491
     4  C   -0.352318   0.155986
     5  C    0.419650   0.397248
     6  S   -0.079388   0.075987
     7  C   -0.327554  -0.746601
     8  N    0.279190  -0.025037
     9  C   -1.121263   0.511967
    10  O   -0.307844   0.019481
    11  C   -0.290260   0.995115
    12  C   -0.328241   0.096524
    13  C    1.144190  -1.449635
    14  O   -0.176139   0.093667
    15  C    0.904194  -1.425595
    16  N   -0.091465  -0.079848
    17  C    0.239571  -0.121286
    18  O   -0.354352   0.010095
    19  H    0.021220   0.137481
    20  H    0.152469   0.001309
    21  H    0.138918   0.007707
    22  H    0.100337   0.063993
    23  H    0.039451   0.191503
    24  H    0.145770   0.043294
    25  H    0.116498   0.091348
    26  H    0.148970   0.012681
    27  H   -0.595875   0.774608
    28  H   -0.177095   0.326547
    29  H   -0.263346   0.466719
    30  H    0.030318   0.155210
    31  H    0.116868   0.226692
 Sum of Mulliken charges =  -1.00000   1.00000

 Dipole moment (field-independent basis, Debye):
    X=             -2.9017    Y=              0.3743    Z=              0.6727  Tot=              3.0020
 Quadrupole moment (field-independent basis, Debye-Ang):
   XX=           -198.8591   YY=           -150.2111   ZZ=           -137.3032
   XY=              0.7486   XZ=             11.7606   YZ=              3.9161

 Summary of Natural Population Analysis:

                                       Natural Population
                Natural  -----------------------------------------------
    Atom  No    Charge         Core      Valence    Rydberg      Total
 -----------------------------------------------------------------------
      C    1   -0.30816      0.99961     2.30304    0.00551     3.30816
      C    2    0.07781      0.99964     1.90585    0.01670     2.92219
      N    3   -0.25877      0.99965     2.74641    0.01271     3.75877
      C    4   -0.00793      0.99945     1.99468    0.01380     3.00793
      C    5   -0.10321      0.99948     2.09209    0.01164     3.10321
      S    6    0.18950      4.99940     2.79244    0.01866     7.81050
      C    7   -0.10385      0.99956     2.09161    0.01268     3.10385
      N    8   -0.25806      0.99959     2.74833    0.01013     3.75806
      C    9    0.36577      0.99958     1.61048    0.02417     2.63423
      O   10   -0.29825      0.99987     3.29333    0.00504     4.29825
      C   11    0.01218      0.99953     1.97321    0.01508     2.98782
      C   12   -0.20378      0.99960     2.19577    0.00841     3.20378
      C   13   -0.01212      0.99961     2.00034    0.01217     3.01212
      O   14   -0.29861      0.99990     3.28877    0.00994     4.29861
      C   15   -0.00643      0.99953     1.99374    0.01316     3.00643
      N   16   -0.32687      0.99965     2.81711    0.01012     3.82687
      C   17    0.41667      0.99968     1.55995    0.02370     2.58333
      O   18   -0.31667      0.99987     3.31165    0.00515     4.31667
      H   19    0.10531      0.00000     0.39324    0.00145     0.39469
      H   20    0.10471      0.00000     0.39439    0.00090     0.39529
      H   21    0.11004      0.00000     0.38851    0.00145     0.38996
      H   22    0.09878      0.00000     0.39988    0.00134     0.40122
      H   23    0.11485      0.00000     0.38398    0.00117     0.38515
      H   24    0.11457      0.00000     0.38415    0.00128     0.38543
      H   25    0.11323      0.00000     0.38556    0.00121     0.38677
      H   26    0.10979      0.00000     0.38909    0.00112     0.39021
      H   27    0.09424      0.00000     0.40300    0.00275     0.40576
      H   28    0.08311      0.00000     0.41507    0.00182     0.41689
      H   29    0.09823      0.00000     0.40011    0.00165     0.40177
      H   30    0.08884      0.00000     0.40974    0.00142     0.41116
      H   31    0.20505      0.00000     0.29235    0.00260     0.29495
 =======================================================================
   * Total *   -0.00000     21.99321    47.75787    0.24891    70.00000

 Normal termination of Gaussian 16 at Sat Dec 12 00:25:47 2020.
