 Gaussian 16, Revision A.03,

 -----------------------------------------------------------
 # opt freq B3LYP/6-31G(d) empiricaldispersion=gd3bj scf=xqc
 -----------------------------------------------------------

 ------------------------------
 CID_60680310_JID_6414_neutraal
 ------------------------------
 Symbolic Z-matrix:
 Charge =  0 Multiplicity = 1

 SCF Done:  E(RB3LYP) =  -1072.16208202     A.U. after   15 cycles
 SCF Done:  E(RB3LYP) =  -1072.16641176     A.U. after   12 cycles
 SCF Done:  E(RB3LYP) =  -1072.16735123     A.U. after   13 cycles
 SCF Done:  E(RB3LYP) =  -1072.16739532     A.U. after   12 cycles
 SCF Done:  E(RB3LYP) =  -1072.16788937     A.U. after   13 cycles
 SCF Done:  E(RB3LYP) =  -1072.16835629     A.U. after   12 cycles
 SCF Done:  E(RB3LYP) =  -1072.16883834     A.U. after   15 cycles
 SCF Done:  E(RB3LYP) =  -1072.16925358     A.U. after   12 cycles
 SCF Done:  E(RB3LYP) =  -1072.16995935     A.U. after   13 cycles
 SCF Done:  E(RB3LYP) =  -1072.17043612     A.U. after   15 cycles
 SCF Done:  E(RB3LYP) =  -1072.17273490     A.U. after   11 cycles
 SCF Done:  E(RB3LYP) =  -1072.17273639     A.U. after   11 cycles
 SCF Done:  E(RB3LYP) =  -1072.17273700     A.U. after    9 cycles
 SCF Done:  E(RB3LYP) =  -1072.17273703     A.U. after    9 cycles
 SCF Done:  E(RB3LYP) =  -1072.17273704     A.U. after    8 cycles
 Optimization completed on the basis of negligible forces.
    -- Stationary point found.
 Normal termination of Gaussian 16 at Thu Dec 10 22:58:43 2020.

 --------------------------------------------------------------------
 #N Geom=AllCheck Guess=TCheck SCRF=Check GenChk RB3LYP/6-31G(d) Freq
 --------------------------------------------------------------------

 Structure from the checkpoint file:  "JID_6414.chk"
 ------------------------------
 CID_60680310_JID_6414_neutraal
 ------------------------------
 Charge =  0 Multiplicity = 1

 SCF Done:  E(RB3LYP) =  -1072.17273704     A.U. after    1 cycles

  Exact polarizability: 172.152  -5.880 155.084 -19.428  -9.332 117.299
 Approx polarizability: 231.669 -10.953 238.080 -42.571 -22.812 195.615

                      1                      2                      3
                      A                      A                      A
 Frequencies --      6.4197                20.5389                33.5128
 Red. masses --      5.4071                 4.7394                 3.7045
 Frc consts  --      0.0001                 0.0012                 0.0025
 IR Inten    --      0.1713                 0.4324                 0.1410

                      4                      5                      6
                      A                      A                      A
 Frequencies --     62.5053                87.4315                96.7960
 Red. masses --      5.5165                 4.6034                 4.1249
 Frc consts  --      0.0127                 0.0207                 0.0228
 IR Inten    --      0.7811                 0.9781                 2.0944

                      7                      8                      9
                      A                      A                      A
 Frequencies --    119.7967               144.1938               174.5780
 Red. masses --      3.7928                 3.4551                 3.0067
 Frc consts  --      0.0321                 0.0423                 0.0540
 IR Inten    --      0.4597                 0.9521                 2.8554

                     10                     11                     12
                      A                      A                      A
 Frequencies --    209.1389               230.9418               254.2649
 Red. masses --      1.0858                 2.9811                 1.0654
 Frc consts  --      0.0280                 0.0937                 0.0406
 IR Inten    --      0.0259                 8.7566                 0.3263

                     13                     14                     15
                      A                      A                      A
 Frequencies --    272.8500               276.0042               298.2526
 Red. masses --      1.0731                 3.6621                 3.2341
 Frc consts  --      0.0471                 0.1644                 0.1695
 IR Inten    --      0.0346                 0.8498                 0.9279

                     16                     17                     18
                      A                      A                      A
 Frequencies --    323.0616               328.1927               350.7752
 Red. masses --      2.2921                 3.1703                 2.4862
 Frc consts  --      0.1409                 0.2012                 0.1802
 IR Inten    --      0.4138                11.9239                 1.0137

                     19                     20                     21
                      A                      A                      A
 Frequencies --    371.2391               429.8357               454.6694
 Red. masses --      3.3091                 2.6797                 2.8329
 Frc consts  --      0.2687                 0.2917                 0.3450
 IR Inten    --      3.9021                 2.8678                 1.7277

                     22                     23                     24
                      A                      A                      A
 Frequencies --    464.7332               481.8244               513.6060
 Red. masses --      3.3863                 2.5856                 4.4928
 Frc consts  --      0.4309                 0.3537                 0.6983
 IR Inten    --      5.1672                 1.1757                 3.2534

                     25                     26                     27
                      A                      A                      A
 Frequencies --    567.8795               596.8668               613.4840
 Red. masses --      3.4868                 3.1538                 3.4224
 Frc consts  --      0.6625                 0.6620                 0.7589
 IR Inten    --      0.3120                 9.3551                 3.0255

                     28                     29                     30
                      A                      A                      A
 Frequencies --    682.5409               701.9091               725.4033
 Red. masses --      3.2686                 1.2788                 3.2136
 Frc consts  --      0.8972                 0.3712                 0.9963
 IR Inten    --      2.3128                65.5670                19.1462

                     31                     32                     33
                      A                      A                      A
 Frequencies --    745.8035               752.1427               782.3751
 Red. masses --      4.2354                 3.5231                 1.9958
 Frc consts  --      1.3880                 1.1743                 0.7198
 IR Inten    --     17.6873                41.7816                42.4591

                     34                     35                     36
                      A                      A                      A
 Frequencies --    827.3222               849.7720               863.8721
 Red. masses --      1.4482                 2.1333                 3.6925
 Frc consts  --      0.5840                 0.9076                 1.6236
 IR Inten    --     20.0581                 5.2406                 3.6959

                     37                     38                     39
                      A                      A                      A
 Frequencies --    877.5240               907.2005               919.7894
 Red. masses --      2.9060                 1.3259                 2.8351
 Frc consts  --      1.3184                 0.6429                 1.4132
 IR Inten    --     32.6154                 0.6423                19.3380

                     40                     41                     42
                      A                      A                      A
 Frequencies --    938.7425               939.7337               964.3781
 Red. masses --      1.6317                 1.6235                 3.7730
 Frc consts  --      0.8472                 0.8447                 2.0674
 IR Inten    --      0.0067                 1.0801                11.5715

                     43                     44                     45
                      A                      A                      A
 Frequencies --    983.1670              1018.3529              1030.8514
 Red. masses --      1.1982                 2.1185                 2.0204
 Frc consts  --      0.6824                 1.2944                 1.2649
 IR Inten    --      0.2240                 8.3035                 4.2849

                     46                     47                     48
                      A                      A                      A
 Frequencies --   1067.5253              1072.1513              1075.1279
 Red. masses --      1.4040                 1.5745                 1.4646
 Frc consts  --      0.9427                 1.0664                 0.9975
 IR Inten    --      0.3640                 1.4963                 1.2143

                     49                     50                     51
                      A                      A                      A
 Frequencies --   1111.8418              1129.4433              1151.2530
 Red. masses --      1.2711                 2.0245                 2.3811
 Frc consts  --      0.9258                 1.5216                 1.8594
 IR Inten    --      5.2601                 6.0836                 5.6552

                     52                     53                     54
                      A                      A                      A
 Frequencies --   1191.8434              1211.0668              1225.9092
 Red. masses --      2.7775                 2.2582                 1.3634
 Frc consts  --      2.3246                 1.9514                 1.2072
 IR Inten    --     12.5600               420.7671                26.2081

                     55                     56                     57
                      A                      A                      A
 Frequencies --   1243.1101              1278.1886              1287.7426
 Red. masses --      1.4830                 2.0568                 2.6625
 Frc consts  --      1.3502                 1.9799                 2.6014
 IR Inten    --     12.5632               216.3045                14.9088

                     58                     59                     60
                      A                      A                      A
 Frequencies --   1289.1503              1301.4251              1309.0963
 Red. masses --      1.4225                 2.6524                 1.5042
 Frc consts  --      1.3928                 2.6468                 1.5188
 IR Inten    --     21.2975                 8.9684                31.2830

                     61                     62                     63
                      A                      A                      A
 Frequencies --   1370.8107              1399.2200              1410.5291
 Red. masses --      1.4450                 1.6441                 1.5939
 Frc consts  --      1.5998                 1.8965                 1.8684
 IR Inten    --     30.2740                 4.9930                 2.4684

                     64                     65                     66
                      A                      A                      A
 Frequencies --   1415.1212              1424.8416              1428.8363
 Red. masses --      1.5654                 1.2793                 1.3083
 Frc consts  --      1.8470                 1.5303                 1.5737
 IR Inten    --     80.2453                16.5140                20.8582

                     67                     68                     69
                      A                      A                      A
 Frequencies --   1453.3604              1500.1564              1500.3300
 Red. masses --      1.2354                 1.0491                 4.4254
 Frc consts  --      1.5375                 1.3910                 5.8692
 IR Inten    --     16.4223                 0.4115                 7.0570

                     70                     71                     72
                      A                      A                      A
 Frequencies --   1507.0563              1514.8610              1519.5849
 Red. masses --      1.1169                 1.1479                 1.0531
 Frc consts  --      1.4946                 1.5521                 1.4328
 IR Inten    --      4.1106                 4.1307                 0.0304

                     73                     74                     75
                      A                      A                      A
 Frequencies --   1520.2487              1520.4091              1525.5445
 Red. masses --      1.1491                 1.0563                 1.0652
 Frc consts  --      1.5647                 1.4386                 1.4605
 IR Inten    --     11.2613                 1.0460                12.1205

                     76                     77                     78
                      A                      A                      A
 Frequencies --   1534.5411              1537.8823              1556.2717
 Red. masses --      1.0532                 1.1907                 1.0551
 Frc consts  --      1.4612                 1.6591                 1.5056
 IR Inten    --      1.4385                18.6839                11.8614

                     79                     80                     81
                      A                      A                      A
 Frequencies --   1603.1961              1811.2123              2943.8030
 Red. masses --      5.2829                10.8535                 1.0730
 Frc consts  --      8.0002                20.9777                 5.4787
 IR Inten    --      1.0943               179.4129                39.1446

                     82                     83                     84
                      A                      A                      A
 Frequencies --   3038.8204              3054.2592              3058.9636
 Red. masses --      1.0627                 1.0606                 1.0355
 Frc consts  --      5.7818                 5.8293                 5.7088
 IR Inten    --     42.8502                43.6592                 8.1056

                     85                     86                     87
                      A                      A                      A
 Frequencies --   3060.5148              3063.0010              3067.5319
 Red. masses --      1.0383                 1.0844                 1.0383
 Frc consts  --      5.7302                 5.9943                 5.7562
 IR Inten    --     21.0451                38.3145                20.6430

                     88                     89                     90
                      A                      A                      A
 Frequencies --   3082.2694              3099.9857              3122.9770
 Red. masses --      1.1037                 1.1027                 1.1026
 Frc consts  --      6.1779                 6.2433                 6.3358
 IR Inten    --     10.0550                45.3966                 7.6415

                     91                     92                     93
                      A                      A                      A
 Frequencies --   3124.6972              3136.3636              3137.7831
 Red. masses --      1.1024                 1.1033                 1.1025
 Frc consts  --      6.3416                 6.3942                 6.3956
 IR Inten    --     16.1950                29.6063                45.2469

                     94                     95                     96
                      A                      A                      A
 Frequencies --   3172.4460              3175.7803              3207.8073
 Red. masses --      1.0998                 1.0992                 1.0897
 Frc consts  --      6.5213                 6.5319                 6.6063
 IR Inten    --      1.5405                13.0856                 7.9829

                     97                     98                     99
                      A                      A                      A
 Frequencies --   3226.3631              3273.6351              3517.7472
 Red. masses --      1.0942                 1.0969                 1.0735
 Frc consts  --      6.7106                 6.9257                 7.8265
 IR Inten    --      9.8041                 1.3313                10.1290

 - Thermochemistry -
 -------------------
 Temperature   298.150 Kelvin.  Pressure   1.00000 Atm.
 Atom     1 has atomic number  6 and mass  12.00000

 Molecular mass:   241.11365 amu.
 Principal axes and moments of inertia in atomic units:
                           1         2         3
     Eigenvalues --  2078.173197266.241378306.61600
           X            0.99984  -0.01736  -0.00477
           Y            0.01724   0.99960  -0.02231
           Z            0.00516   0.02222   0.99974
 This molecule is an asymmetric top.
 Rotational symmetry number  1.
 Warning -- assumption of classical behavior for rotation
           may cause significant error
 Rotational temperatures (Kelvin)      0.04168     0.01192     0.01043
 Rotational constants (GHZ):           0.86843     0.24837     0.21727
 Zero-point vibrational energy     782704.1 (Joules/Mol)
                                  187.07077 (Kcal/Mol)
 Warning -- explicit consideration of  27 degrees of freedom as
           vibrations may cause significant error
 Vibrational temperatures:      9.24    29.55    48.22    89.93   125.79
          (Kelvin)            139.27   172.36   207.46   251.18   300.90
                              332.27   365.83   392.57   397.11   429.12
                              464.81   472.20   504.69   534.13   618.44
                              654.17   668.65   693.24   738.96   817.05
                              858.76   882.67   982.02  1009.89  1043.69
                             1073.04  1082.17  1125.66  1190.33  1222.63
                             1242.92  1262.56  1305.26  1323.37  1350.64
                             1352.07  1387.52  1414.56  1465.18  1483.17
                             1535.93  1542.59  1546.87  1599.69  1625.02
                             1656.40  1714.80  1742.45  1763.81  1788.56
                             1839.03  1852.77  1854.80  1872.46  1883.50
                             1972.29  2013.17  2029.44  2036.04  2050.03
                             2055.78  2091.06  2158.39  2158.64  2168.32
                             2179.55  2186.34  2187.30  2187.53  2194.92
                             2207.86  2212.67  2239.13  2306.64  2605.93
                             4235.48  4372.18  4394.40  4401.17  4403.40
                             4406.98  4413.49  4434.70  4460.19  4493.27
                             4495.74  4512.53  4514.57  4564.44  4569.24
                             4615.32  4642.02  4710.03  5061.25

 Zero-point correction=                           0.298116 (Hartree/Particle)
 Thermal correction to Energy=                    0.315574
 Thermal correction to Enthalpy=                  0.316518
 Thermal correction to Gibbs Free Energy=         0.249679
 Sum of electronic and zero-point Energies=          -1071.874621
 Sum of electronic and thermal Energies=             -1071.857163
 Sum of electronic and thermal Enthalpies=           -1071.856219
 Sum of electronic and thermal Free Energies=        -1071.923058

                     E (Thermal)             CV                S
                      KCal/Mol        Cal/Mol-Kelvin    Cal/Mol-Kelvin
 Total                  198.025             65.128            140.674
 Electronic               0.000              0.000              0.000
 Translational            0.889              2.981             42.341
 Rotational               0.889              2.981             33.194
 Vibrational            196.248             59.166             65.139
 Vibration     1          0.593              1.987              8.892
 Vibration     2          0.593              1.986              6.581
 Vibration     3          0.594              1.983              5.610
 Vibration     4          0.597              1.972              4.376
 Vibration     5          0.601              1.958              3.717
 Vibration     6          0.603              1.951              3.518
 Vibration     7          0.609              1.933              3.104
 Vibration     8          0.616              1.909              2.747
 Vibration     9          0.627              1.874              2.386
 Vibration    10          0.642              1.827              2.051
 Vibration    11          0.653              1.794              1.872
 Vibration    12          0.665              1.756              1.701
 Vibration    13          0.676              1.723              1.578
 Vibration    14          0.678              1.718              1.558
 Vibration    15          0.691              1.677              1.427
 Vibration    16          0.708              1.629              1.295
 Vibration    17          0.711              1.619              1.269
 Vibration    18          0.728              1.574              1.163
 Vibration    19          0.743              1.531              1.075
 Vibration    20          0.791              1.405              0.859
 Vibration    21          0.813              1.351              0.782
 Vibration    22          0.822              1.328              0.752
 Vibration    23          0.838              1.290              0.705
 Vibration    24          0.869              1.220              0.625
 Vibration    25          0.924              1.101              0.508
 Vibration    26          0.955              1.038              0.455
 Vibration    27          0.973              1.003              0.427

 Optimization completed on the basis of negligible forces.
    -- Stationary point found.
 Normal termination of Gaussian 16 at Thu Dec 10 23:10:10 2020.

 ----------------------------------------------------------------------
 # B3LYP/6-311++G(d,p) empiricaldispersion=gd3bj scf=xqc pop=npa geom=c
 heck
 ----------------------------------------------------------------------

 --------------------------------------
 CID_60680310_JID_6414_Energie_neutraal
 --------------------------------------
 Structure from the checkpoint file:  "JID_6414.chk"
 Charge =  0 Multiplicity = 1

 SCF Done:  E(RB3LYP) =  -1072.39386887     A.U. after   16 cycles
 Normal termination of Gaussian 16 at Thu Dec 10 23:16:41 2020.

 ----------------------------------------------------------------------
 # B3LYP/6-311++G(d,p) empiricaldispersion=gd3bj scf=xqc pop=npa geom=c
 heck
 ----------------------------------------------------------------------

 ------------------------------------
 CID_60680310_JID_6414_Energie_kation
 ------------------------------------
 Structure from the checkpoint file:  "JID_6414.chk"
 Charge =  1 Multiplicity = 2

 SCF Done:  E(UB3LYP) =  -1072.10555141     A.U. after   25 cycles
 Normal termination of Gaussian 16 at Thu Dec 10 23:31:04 2020.
 Gaussian 16:  ES64L-G16RevA.03 25-Dec-2016

 ----------------------------------------------------------------------
 # B3LYP/6-311++G(d,p) empiricaldispersion=gd3bj scf=xqc pop=npa geom=c
 heck
 ----------------------------------------------------------------------

 -----------------------------------
 CID_60680310_JID_6414_Energie_anion
 -----------------------------------
 Structure from the checkpoint file:  "JID_6414.chk"
 Charge = -1 Multiplicity = 2

                         Standard orientation:
 ---------------------------------------------------------------------
 Center     Atomic      Atomic             Coordinates (Angstroms)
 Number     Number       Type             X           Y           Z
 ---------------------------------------------------------------------
      1          6           0        4.576507   -0.019413   -1.151542
      2          6           0        3.529835   -0.378688   -0.098194
      3          6           0        2.992715   -1.793482   -0.322891
      4          6           0        4.085897   -0.183026    1.313246
      5          8           0        2.462582    0.605994   -0.356580
      6          6           0        1.327894    0.606122    0.358904
      7          8           0        1.066761   -0.127715    1.290081
      8          6           0        0.359331    1.636553   -0.196163
      9          7           0       -0.716381    1.863530    0.745298
     10          6           0       -1.937247    2.416266    0.187272
     11          6           0       -2.665662    1.561323   -0.888484
     12          6           0       -2.946218    0.165371   -0.417264
     13          6           0       -3.955933   -0.274470    0.399856
     14          6           0       -3.862929   -1.661666    0.728477
     15          6           0       -2.776481   -2.268320    0.162305
     16         16           0       -1.852011   -1.146896   -0.784679
     17          1           0        5.438975   -0.688155   -1.065847
     18          1           0        4.919943    1.011018   -1.017021
     19          1           0        4.158924   -0.116466   -2.158579
     20          1           0        3.818126   -2.510762   -0.258282
     21          1           0        2.241410   -2.053253    0.423823
     22          1           0        2.546676   -1.875216   -1.319845
     23          1           0        4.403500    0.855438    1.454366
     24          1           0        3.338996   -0.430816    2.068246
     25          1           0        4.959357   -0.829280    1.453298
     26          1           0        0.902649    2.566424   -0.406334
     27          1           0        0.041694    1.241107   -1.179806
     28          1           0       -0.899397    0.996876    1.246427
     29          1           0       -2.629304    2.580248    1.020978
     30          1           0       -1.714054    3.402082   -0.242441
     31          1           0       -3.611032    2.058946   -1.137951
     32          1           0       -2.079542    1.537946   -1.814153
     33          1           0       -4.746675    0.378462    0.755525
     34          1           0       -4.577116   -2.183047    1.356365
     35          1           0       -2.467290   -3.301573    0.237868
 ---------------------------------------------------------------------

 SCF Done:  E(UB3LYP) =  -1072.38149775     A.U. after   33 cycles
 SCF Done:  E(UB3LYP) =  -1072.38149775     a.u. after    1 cycles

 The electronic state is 2-A.
 Alpha  occ. eigenvalues --  -88.77556 -19.07108 -19.01887 -14.20138 -10.21013
 Alpha  occ. eigenvalues --  -10.15435 -10.11118 -10.10456 -10.10153 -10.09950
 Alpha  occ. eigenvalues --  -10.08335 -10.08279 -10.07588 -10.07135 -10.07041
 Alpha  occ. eigenvalues --  -10.06852  -7.86193  -5.82471  -5.82107  -5.81804
 Alpha  occ. eigenvalues --   -1.01172  -0.93056  -0.81780  -0.78379  -0.72776
 Alpha  occ. eigenvalues --   -0.68344  -0.63841  -0.63342  -0.60682  -0.60588
 Alpha  occ. eigenvalues --   -0.59489  -0.53810  -0.50924  -0.46788  -0.43982
 Alpha  occ. eigenvalues --   -0.43753  -0.42117  -0.40960  -0.39567  -0.38833
 Alpha  occ. eigenvalues --   -0.37120  -0.36689  -0.34795  -0.34170  -0.33551
 Alpha  occ. eigenvalues --   -0.32683  -0.31829  -0.31213  -0.30716  -0.29863
 Alpha  occ. eigenvalues --   -0.29280  -0.28562  -0.27967  -0.27198  -0.26966
 Alpha  occ. eigenvalues --   -0.26188  -0.26002  -0.25238  -0.24501  -0.24313
 Alpha  occ. eigenvalues --   -0.21452  -0.18557  -0.15888  -0.14390  -0.12841
 Alpha  occ. eigenvalues --    0.04105
 Alpha virt. eigenvalues --    0.05511   0.06726   0.07243   0.07626   0.07951
 Alpha virt. eigenvalues --    0.08186   0.08770   0.09037   0.09330   0.09560
 Alpha virt. eigenvalues --    0.10324   0.10856   0.11229   0.11336   0.11917

  Beta  occ. eigenvalues --  -88.77545 -19.07101 -19.01882 -14.20137 -10.21009
  Beta  occ. eigenvalues --  -10.15433 -10.11102 -10.10394 -10.10132 -10.09889
  Beta  occ. eigenvalues --  -10.08316 -10.08281 -10.07568 -10.07101 -10.07019
  Beta  occ. eigenvalues --  -10.06827  -7.86182  -5.82466  -5.82102  -5.81772
  Beta  occ. eigenvalues --   -1.01162  -0.93045  -0.81768  -0.78309  -0.72758
  Beta  occ. eigenvalues --   -0.68269  -0.63789  -0.63281  -0.60635  -0.60541
  Beta  occ. eigenvalues --   -0.59424  -0.53765  -0.50870  -0.46718  -0.43927
  Beta  occ. eigenvalues --   -0.43686  -0.42091  -0.40905  -0.39540  -0.38815
  Beta  occ. eigenvalues --   -0.37085  -0.36659  -0.34760  -0.34135  -0.33478
  Beta  occ. eigenvalues --   -0.32655  -0.31775  -0.31176  -0.30676  -0.29820
  Beta  occ. eigenvalues --   -0.29245  -0.28513  -0.27929  -0.27086  -0.26929
  Beta  occ. eigenvalues --   -0.26144  -0.25969  -0.25202  -0.24464  -0.24268
  Beta  occ. eigenvalues --   -0.21435  -0.18545  -0.15743  -0.14184  -0.12723
  Beta virt. eigenvalues --    0.06172   0.06608   0.06943   0.07713   0.08220
  Beta virt. eigenvalues --    0.08339   0.08488   0.09061   0.09446   0.09661
  Beta virt. eigenvalues --    0.09762   0.10577   0.11198   0.11325   0.11544

 Mulliken charges and spin densities:
               1          2
     1  C    0.270457  -0.642071
     2  C   -1.323653   1.238966
     3  C    0.603269  -1.031286
     4  C    0.433826  -0.824265
     5  O    0.120033   0.009455
     6  C   -0.097706   0.045579
     7  O   -0.223157   0.001201
     8  C    0.219408  -0.765542
     9  N   -0.141012   0.043183
    10  C    0.220910  -0.598141
    11  C    0.949112  -1.298987
    12  C   -0.690309   0.821321
    13  C   -0.002699   0.073751
    14  C    0.116025  -0.669155
    15  C   -0.165463   0.144482
    16  S   -0.023784  -0.047189
    17  H   -0.205798   0.358796
    18  H   -0.138863   0.290640
    19  H   -0.207730   0.363534
    20  H   -0.240541   0.406355
    21  H    0.049403   0.125871
    22  H    0.051057   0.091976
    23  H    0.068604   0.067088
    24  H    0.116031   0.076771
    25  H   -0.235033   0.407013
    26  H    0.010063   0.204087
    27  H    0.204808  -0.061001
    28  H    0.307805  -0.067079
    29  H   -0.001033   0.169827
    30  H   -0.191717   0.335680
    31  H   -0.431041   0.620606
    32  H   -0.263124   0.437254
    33  H   -0.313687   0.468656
    34  H    0.037161   0.092443
    35  H    0.118379   0.110180
 Sum of Mulliken charges =  -1.00000   1.00000

 Dipole moment (field-independent basis, Debye):
    X=             -1.7387    Y=             -1.7256    Z=              1.7158  Tot=              2.9908
 Quadrupole moment (field-independent basis, Debye-Ang):
   XX=           -204.6640   YY=           -147.2258   ZZ=           -139.3650
   XY=             17.6639   XZ=             -2.1753   YZ=              2.5061

 Summary of Natural Population Analysis:

                                       Natural Population
                Natural  -----------------------------------------------
    Atom  No    Charge         Core      Valence    Rydberg      Total
 -----------------------------------------------------------------------
      C    1   -0.28942      0.99960     2.28276    0.00706     3.28942
      C    2    0.13322      0.99954     1.85316    0.01408     2.86678
      C    3   -0.30216      0.99960     2.29595    0.00661     3.30216
      C    4   -0.30157      0.99960     2.29541    0.00655     3.30157
      O    5   -0.29231      0.99985     3.28208    0.01038     4.29231
      C    6    0.41257      0.99969     1.56209    0.02564     2.58743
      O    7   -0.31067      0.99987     3.30577    0.00504     4.31067
      C    8   -0.13386      0.99959     2.12320    0.01108     3.13386
      N    9   -0.34188      0.99974     2.83098    0.01116     3.84188
      C   10   -0.07926      0.99963     2.06706    0.01257     3.07926
      C   11   -0.22013      0.99957     2.20938    0.01118     3.22013
      C   12   -0.09012      0.99950     2.07563    0.01499     3.09012
      C   13   -0.13429      0.99945     2.12407    0.01077     3.13429
      C   14   -0.12922      0.99953     2.11990    0.00978     3.12922
      C   15   -0.19138      0.99954     2.18057    0.01127     3.19138
      S   16    0.21082      4.99939     2.76945    0.02034     7.78918
      H   17    0.10407      0.00000     0.39442    0.00151     0.39593
      H   18    0.10325      0.00000     0.39562    0.00113     0.39675
      H   19    0.10460      0.00000     0.39424    0.00116     0.39540
      H   20    0.10455      0.00000     0.39433    0.00112     0.39545
      H   21    0.11326      0.00000     0.38559    0.00115     0.38674
      H   22    0.10340      0.00000     0.39555    0.00106     0.39660
      H   23    0.10184      0.00000     0.39729    0.00087     0.39816
      H   24    0.11344      0.00000     0.38563    0.00093     0.38656
      H   25    0.10431      0.00000     0.39471    0.00098     0.39569
      H   26    0.10409      0.00000     0.39450    0.00141     0.39591
      H   27    0.09684      0.00000     0.40138    0.00178     0.40316
      H   28    0.18626      0.00000     0.31007    0.00367     0.31374
      H   29    0.09390      0.00000     0.40493    0.00117     0.40610
      H   30    0.09230      0.00000     0.40637    0.00134     0.40770
      H   31    0.11230      0.00000     0.38503    0.00266     0.38770
      H   32    0.10395      0.00000     0.39445    0.00160     0.39605
      H   33    0.10636      0.00000     0.39256    0.00108     0.39364
      H   34    0.10339      0.00000     0.39581    0.00079     0.39661
      H   35    0.10754      0.00000     0.39168    0.00078     0.39246
 =======================================================================
   * Total *   -0.00000     19.99368    44.79163    0.21469    65.00000

 Normal termination of Gaussian 16 at Thu Dec 10 23:50:03 2020.
