 Gaussian 16, Revision A.03,

 -----------------------------------------------------------
 # opt freq B3LYP/6-31G(d) empiricaldispersion=gd3bj scf=xqc
 -----------------------------------------------------------

 ------------------------------
 CID_63137302_JID_7226_neutraal
 ------------------------------
 Symbolic Z-matrix:
 Charge =  0 Multiplicity = 1

 SCF Done:  E(RB3LYP) =  -790.924551997     A.U. after   14 cycles
 SCF Done:  E(RB3LYP) =  -790.928138301     A.U. after   11 cycles
 SCF Done:  E(RB3LYP) =  -790.928095166     A.U. after   12 cycles
 SCF Done:  E(RB3LYP) =  -790.928650904     A.U. after   12 cycles
 SCF Done:  E(RB3LYP) =  -790.929238380     A.U. after   12 cycles
 SCF Done:  E(RB3LYP) =  -790.929406139     A.U. after   11 cycles
 SCF Done:  E(RB3LYP) =  -790.929410463     A.U. after   11 cycles
 SCF Done:  E(RB3LYP) =  -790.929451250     A.U. after    9 cycles
 SCF Done:  E(RB3LYP) =  -790.929463122     A.U. after   10 cycles
 SCF Done:  E(RB3LYP) =  -790.929471887     A.U. after   10 cycles
 SCF Done:  E(RB3LYP) =  -790.929473896     A.U. after    9 cycles
 SCF Done:  E(RB3LYP) =  -790.929474301     A.U. after    8 cycles
 SCF Done:  E(RB3LYP) =  -790.929474382     A.U. after    7 cycles
 Optimization completed.
    -- Stationary point found.
 Normal termination of Gaussian 16 at Mon Dec 14 16:42:04 2020.

 --------------------------------------------------------------------
 #N Geom=AllCheck Guess=TCheck SCRF=Check GenChk RB3LYP/6-31G(d) Freq
 --------------------------------------------------------------------

 Structure from the checkpoint file:  "JID_7226.chk"
 ------------------------------
 CID_63137302_JID_7226_neutraal
 ------------------------------
 Charge =  0 Multiplicity = 1

 SCF Done:  E(RB3LYP) =  -790.929474382     A.U. after    1 cycles

  Exact polarizability: 161.397  -1.634 147.483  -4.006   2.540 136.584
 Approx polarizability: 204.922  -6.344 209.188  -9.187   5.982 208.984

                      1                      2                      3
                      A                      A                      A
 Frequencies --     27.0817                33.4800                44.3563
 Red. masses --      4.0403                11.1333                 4.5042
 Frc consts  --      0.0017                 0.0074                 0.0052
 IR Inten    --      0.4997                 0.6438                 0.2789

                      4                      5                      6
                      A                      A                      A
 Frequencies --     49.9985                68.9256                86.0511
 Red. masses --      3.9633                 4.0143                 2.1971
 Frc consts  --      0.0058                 0.0112                 0.0096
 IR Inten    --      0.6266                 0.7388                 0.2629

                      7                      8                      9
                      A                      A                      A
 Frequencies --    116.9593               128.5009               147.3624
 Red. masses --      3.1295                 2.9157                 3.3602
 Frc consts  --      0.0252                 0.0284                 0.0430
 IR Inten    --      2.5649                 0.2290                 0.3985

                     10                     11                     12
                      A                      A                      A
 Frequencies --    193.2253               215.5853               230.0139
 Red. masses --      2.7601                 3.1489                 2.3020
 Frc consts  --      0.0607                 0.0862                 0.0718
 IR Inten    --      3.3850                 0.3412                 7.2880

                     13                     14                     15
                      A                      A                      A
 Frequencies --    252.3864               283.0701               290.1605
 Red. masses --      1.5631                 1.5677                 2.6737
 Frc consts  --      0.0587                 0.0740                 0.1326
 IR Inten    --     14.3077                11.0440                 0.1659

                     16                     17                     18
                      A                      A                      A
 Frequencies --    302.7147               318.7365               331.6466
 Red. masses --      2.1655                 1.3459                 2.6169
 Frc consts  --      0.1169                 0.0806                 0.1696
 IR Inten    --      6.2992                83.2668                 0.4690

                     19                     20                     21
                      A                      A                      A
 Frequencies --    363.4080               372.5570               389.1161
 Red. masses --      3.0495                 2.8281                 2.5264
 Frc consts  --      0.2373                 0.2313                 0.2254
 IR Inten    --      0.6308                 4.9573                 2.1857

                     22                     23                     24
                      A                      A                      A
 Frequencies --    403.8316               413.2019               435.6827
 Red. masses --      2.1126                 2.1668                 2.1206
 Frc consts  --      0.2030                 0.2180                 0.2372
 IR Inten    --      2.2602                 8.9278                 2.5562

                     25                     26                     27
                      A                      A                      A
 Frequencies --    487.8623               509.1365               533.3825
 Red. masses --      2.6388                 2.6334                 2.2531
 Frc consts  --      0.3700                 0.4022                 0.3777
 IR Inten    --      2.0388                 5.0449                 1.7855

                     28                     29                     30
                      A                      A                      A
 Frequencies --    593.8698               610.3716               669.8342
 Red. masses --      2.6534                 1.2720                 3.4768
 Frc consts  --      0.5514                 0.2792                 0.9191
 IR Inten    --     10.4529                76.5725                47.9441

                     31                     32                     33
                      A                      A                      A
 Frequencies --    711.9961               725.9737               760.1450
 Red. masses --      2.1357                 1.6065                 3.8991
 Frc consts  --      0.6379                 0.4989                 1.3274
 IR Inten    --     12.9269                 2.7649                17.3405

                     34                     35                     36
                      A                      A                      A
 Frequencies --    785.1900               795.3746               811.3730
 Red. masses --      2.3094                 1.2567                 2.6370
 Frc consts  --      0.8389                 0.4684                 1.0228
 IR Inten    --      8.7182                 5.0335                 4.9574

                     37                     38                     39
                      A                      A                      A
 Frequencies --    870.0465               876.1703               891.4697
 Red. masses --      1.9344                 2.1118                 2.0246
 Frc consts  --      0.8628                 0.9552                 0.9480
 IR Inten    --      2.2311                 9.6075                 7.0301

                     40                     41                     42
                      A                      A                      A
 Frequencies --    894.5302               925.4214               953.4632
 Red. masses --      2.0537                 2.3616                 1.9715
 Frc consts  --      0.9682                 1.1916                 1.0560
 IR Inten    --      0.8559                10.0066                 7.2008

                     43                     44                     45
                      A                      A                      A
 Frequencies --    985.4439               996.6350              1006.4736
 Red. masses --      1.8918                 2.5280                 2.0225
 Frc consts  --      1.0824                 1.4795                 1.2071
 IR Inten    --     34.7637                 5.3167                12.1871

                     46                     47                     48
                      A                      A                      A
 Frequencies --   1011.7200              1037.9246              1043.2970
 Red. masses --      1.6417                 1.7859                 1.9994
 Frc consts  --      0.9901                 1.1335                 1.2822
 IR Inten    --     13.1166                 4.5822                 3.3649

                     49                     50                     51
                      A                      A                      A
 Frequencies --   1074.4559              1081.3793              1095.5300
 Red. masses --      1.9251                 2.1288                 2.5930
 Frc consts  --      1.3094                 1.4667                 1.8336
 IR Inten    --      2.6393                 1.6439                71.3418

                     52                     53                     54
                      A                      A                      A
 Frequencies --   1108.7612              1121.3331              1139.7485
 Red. masses --      1.9612                 2.7678                 2.6965
 Frc consts  --      1.4205                 2.0505                 2.0638
 IR Inten    --     24.4148                 5.3118                78.0371

                     55                     56                     57
                      A                      A                      A
 Frequencies --   1147.2150              1163.1972              1180.4810
 Red. masses --      2.0042                 1.5159                 1.8655
 Frc consts  --      1.5541                 1.2085                 1.5317
 IR Inten    --     19.2481                12.5779               112.9727

                     58                     59                     60
                      A                      A                      A
 Frequencies --   1190.0325              1199.9093              1229.1472
 Red. masses --      1.8567                 1.6015                 1.3923
 Frc consts  --      1.5492                 1.3586                 1.2394
 IR Inten    --     30.8475                27.1448                 9.2724

                     61                     62                     63
                      A                      A                      A
 Frequencies --   1240.1379              1248.1052              1260.9808
 Red. masses --      2.2075                 1.3728                 1.3580
 Frc consts  --      2.0003                 1.2600                 1.2722
 IR Inten    --     38.3777                 3.8327                17.0685

                     64                     65                     66
                      A                      A                      A
 Frequencies --   1293.1048              1335.5248              1343.7171
 Red. masses --      1.3603                 1.3405                 1.2429
 Frc consts  --      1.3402                 1.4087                 1.3222
 IR Inten    --      5.1959                 2.7687                 2.3763

                     67                     68                     69
                      A                      A                      A
 Frequencies --   1355.2840              1358.4671              1368.0911
 Red. masses --      1.4713                 1.7416                 1.3450
 Frc consts  --      1.5922                 1.8936                 1.4833
 IR Inten    --      5.7018                13.3008                 9.1008

                     70                     71                     72
                      A                      A                      A
 Frequencies --   1370.9672              1387.0621              1391.6179
 Red. masses --      1.3987                 1.3563                 1.4019
 Frc consts  --      1.5489                 1.5374                 1.5996
 IR Inten    --      9.6567                22.7888                 3.3870

                     73                     74                     75
                      A                      A                      A
 Frequencies --   1392.6283              1401.4257              1408.3220
 Red. masses --      1.3138                 1.3942                 1.2345
 Frc consts  --      1.5013                 1.6132                 1.4427
 IR Inten    --      3.0487                11.1493                35.2323

                     76                     77                     78
                      A                      A                      A
 Frequencies --   1410.6823              1421.5049              1424.5883
 Red. masses --      1.3440                 1.4175                 1.3342
 Frc consts  --      1.5759                 1.6877                 1.5953
 IR Inten    --      7.9806                 6.7383                 4.5117

                     79                     80                     81
                      A                      A                      A
 Frequencies --   1432.6594              1440.2601              1443.0693
 Red. masses --      1.3926                 1.2627                 1.3095
 Frc consts  --      1.6841                 1.5432                 1.6067
 IR Inten    --      4.2400                11.0198                40.4898

                     82                     83                     84
                      A                      A                      A
 Frequencies --   1453.2230              1501.2506              1506.5390
 Red. masses --      1.3388                 1.0856                 1.0746
 Frc consts  --      1.6659                 1.4415                 1.4370
 IR Inten    --      0.5854                 2.0267                 0.9768

                     85                     86                     87
                      A                      A                      A
 Frequencies --   1514.0512              1516.3329              1516.8184
 Red. masses --      1.0867                 1.0845                 1.0866
 Frc consts  --      1.4677                 1.4692                 1.4729
 IR Inten    --      1.4464                 4.3429                 9.8996

                     88                     89                     90
                      A                      A                      A
 Frequencies --   1524.5306              1527.0561              1529.7876
 Red. masses --      1.0929                 1.0745                 1.0594
 Frc consts  --      1.4966                 1.4763                 1.4608
 IR Inten    --      6.2368                 2.7439                 7.3896

                     91                     92                     93
                      A                      A                      A
 Frequencies --   1536.6701              1541.0203              1543.3308
 Red. masses --      1.0861                 1.0877                 1.1038
 Frc consts  --      1.5111                 1.5219                 1.5490
 IR Inten    --      4.3814                 4.7895                 9.7303

                     94                     95                     96
                      A                      A                      A
 Frequencies --   1554.5112              1831.9280              2916.0798
 Red. masses --      1.0598                 9.9883                 1.0728
 Frc consts  --      1.5090                19.7497                 5.3748
 IR Inten    --      4.9959               270.8668                68.7619

                     97                     98                     99
                      A                      A                      A
 Frequencies --   2994.6492              2998.5109              3015.2923
 Red. masses --      1.0670                 1.0719                 1.0681
 Frc consts  --      5.6379                 5.6781                 5.7218
 IR Inten    --     33.3762                73.2196                 5.3137

                    100                    101                    102
                      A                      A                      A
 Frequencies --   3028.7304              3035.8977              3050.5858
 Red. masses --      1.0680                 1.0710                 1.0616
 Frc consts  --      5.7720                 5.8157                 5.8205
 IR Inten    --     71.5155                46.6000                 9.3802

                    103                    104                    105
                      A                      A                      A
 Frequencies --   3050.8509              3052.7491              3056.5684
 Red. masses --      1.0627                 1.0630                 1.0426
 Frc consts  --      5.8277                 5.8366                 5.7392
 IR Inten    --      5.2438                26.7230                31.5431

                    106                    107                    108
                      A                      A                      A
 Frequencies --   3062.0701              3063.0752              3074.7932
 Red. masses --      1.0693                 1.0918                 1.0885
 Frc consts  --      5.9072                 6.0354                 6.0635
 IR Inten    --     57.1640                 6.0509                34.6964

                    109                    110                    111
                      A                      A                      A
 Frequencies --   3078.8829              3083.8727              3088.3026
 Red. masses --      1.0922                 1.0962                 1.1000
 Frc consts  --      6.1001                 6.1423                 6.1811
 IR Inten    --      3.6257                53.8052                19.7855

                    112                    113                    114
                      A                      A                      A
 Frequencies --   3093.4171              3094.6813              3097.1698
 Red. masses --      1.0963                 1.0957                 1.1008
 Frc consts  --      6.1812                 6.1828                 6.2212
 IR Inten    --     69.6535                69.8150                 8.6194

                    115                    116                    117
                      A                      A                      A
 Frequencies --   3103.5646              3111.9115              3136.1538
 Red. masses --      1.0940                 1.1005                 1.0935
 Frc consts  --      6.2083                 6.2792                 6.3367
 IR Inten    --     37.4729                67.3188                25.8167

                    118                    119                    120
                      A                      A                      A
 Frequencies --   3158.7133              3685.8448              3753.1770
 Red. masses --      1.1001                 1.0641                 1.0660
 Frc consts  --      6.4670                 8.5175                 8.8470
 IR Inten    --     17.2995                50.2954                 6.4554

 - Thermochemistry -
 -------------------
 Temperature   298.150 Kelvin.  Pressure   1.00000 Atm.
 Atom     1 has atomic number  6 and mass  12.00000

 Molecular mass:   243.18344 amu.
 Principal axes and moments of inertia in atomic units:
                           1         2         3
     Eigenvalues --  2674.501577199.055458136.18570
           X            0.99986   0.01636  -0.00392
           Y           -0.01636   0.99987   0.00003
           Z            0.00392   0.00004   0.99999
 This molecule is an asymmetric top.
 Rotational symmetry number  1.
 Warning -- assumption of classical behavior for rotation
           may cause significant error
 Rotational temperatures (Kelvin)      0.03239     0.01203     0.01065
 Rotational constants (GHZ):           0.67480     0.25069     0.22182
 Zero-point vibrational energy     998446.0 (Joules/Mol)
                                  238.63433 (Kcal/Mol)
 Warning -- explicit consideration of  29 degrees of freedom as
           vibrations may cause significant error
 Vibrational temperatures:     38.96    48.17    63.82    71.94    99.17
          (Kelvin)            123.81   168.28   184.88   212.02   278.01
                              310.18   330.94   363.13   407.27   417.48
                              435.54   458.59   477.17   522.86   536.03
                              559.85   581.02   594.51   626.85   701.92
                              732.53   767.42   854.45   878.19   963.74
                             1024.40  1044.51  1093.68  1129.71  1144.37
                             1167.38  1251.80  1260.61  1282.63  1287.03
                             1331.47  1371.82  1417.83  1433.94  1448.09
                             1455.64  1493.34  1501.07  1545.90  1555.86
                             1576.22  1595.26  1613.35  1639.84  1650.59
                             1673.58  1698.45  1712.19  1726.40  1768.47
                             1784.28  1795.75  1814.27  1860.49  1921.52
                             1933.31  1949.95  1954.53  1968.38  1972.52
                             1995.67  2002.23  2003.68  2016.34  2026.26
                             2029.66  2045.23  2049.66  2061.28  2072.21
                             2076.25  2090.86  2159.96  2167.57  2178.38
                             2181.66  2182.36  2193.46  2197.09  2201.02
                             2210.93  2217.18  2220.51  2236.59  2635.74
                             4195.59  4308.63  4314.19  4338.33  4357.67
                             4367.98  4389.11  4389.49  4392.23  4397.72
                             4405.64  4407.08  4423.94  4429.83  4437.01
                             4443.38  4450.74  4452.56  4456.14  4465.34
                             4477.35  4512.23  4544.68  5303.11  5399.98

 Zero-point correction=                           0.380288 (Hartree/Particle)
 Thermal correction to Energy=                    0.398872
 Thermal correction to Enthalpy=                  0.399816
 Thermal correction to Gibbs Free Energy=         0.332414
 Sum of electronic and zero-point Energies=           -790.549186
 Sum of electronic and thermal Energies=              -790.530603
 Sum of electronic and thermal Enthalpies=            -790.529659
 Sum of electronic and thermal Free Energies=         -790.597061

                     E (Thermal)             CV                S
                      KCal/Mol        Cal/Mol-Kelvin    Cal/Mol-Kelvin
 Total                  250.296             70.470            141.860
 Electronic               0.000              0.000              0.000
 Translational            0.889              2.981             42.367
 Rotational               0.889              2.981             33.415
 Vibrational            248.518             64.508             66.078
 Vibration     1          0.593              1.984              6.032
 Vibration     2          0.594              1.983              5.612
 Vibration     3          0.595              1.980              5.054
 Vibration     4          0.595              1.978              4.817
 Vibration     5          0.598              1.969              4.184
 Vibration     6          0.601              1.959              3.748
 Vibration     7          0.608              1.935              3.150
 Vibration     8          0.611              1.925              2.968
 Vibration     9          0.617              1.906              2.706
 Vibration    10          0.635              1.849              2.197
 Vibration    11          0.645              1.817              1.996
 Vibration    12          0.652              1.795              1.879
 Vibration    13          0.664              1.759              1.714
 Vibration    14          0.682              1.705              1.515
 Vibration    15          0.686              1.692              1.473
 Vibration    16          0.694              1.669              1.402
 Vibration    17          0.705              1.638              1.317
 Vibration    18          0.714              1.612              1.252
 Vibration    19          0.737              1.548              1.107
 Vibration    20          0.744              1.528              1.069
 Vibration    21          0.757              1.493              1.004
 Vibration    22          0.769              1.462              0.949
 Vibration    23          0.777              1.442              0.915
 Vibration    24          0.796              1.392              0.840
 Vibration    25          0.844              1.277              0.689
 Vibration    26          0.864              1.230              0.636
 Vibration    27          0.888              1.176              0.580
 Vibration    28          0.951              1.045              0.460
 Vibration    29          0.969              1.010              0.432

                           ! Non-Optimized Parameters !
 Normal termination of Gaussian 16 at Mon Dec 14 17:02:31 2020.

 ----------------------------------------------------------------------
 # B3LYP/6-311++G(d,p) empiricaldispersion=gd3bj scf=xqc pop=npa geom=c
 heck
 ----------------------------------------------------------------------

 --------------------------------------
 CID_63137302_JID_7226_Energie_neutraal
 --------------------------------------
 Structure from the checkpoint file:  "JID_7226.chk"
 Charge =  0 Multiplicity = 1

 SCF Done:  E(RB3LYP) =  -791.171770244     A.U. after   14 cycles
 Normal termination of Gaussian 16 at Mon Dec 14 17:11:54 2020.

 ----------------------------------------------------------------------
 # B3LYP/6-311++G(d,p) empiricaldispersion=gd3bj scf=xqc pop=npa geom=c
 heck
 ----------------------------------------------------------------------

 ------------------------------------
 CID_63137302_JID_7226_Energie_kation
 ------------------------------------
 Structure from the checkpoint file:  "JID_7226.chk"
 Charge =  1 Multiplicity = 2

 SCF Done:  E(UB3LYP) =  -790.887879536     A.U. after   23 cycles
 Normal termination of Gaussian 16 at Mon Dec 14 17:35:25 2020.
 Gaussian 16:  ES64L-G16RevA.03 25-Dec-2016

 ----------------------------------------------------------------------
 # B3LYP/6-311++G(d,p) empiricaldispersion=gd3bj scf=xqc pop=npa geom=c
 heck
 ----------------------------------------------------------------------

 -----------------------------------
 CID_63137302_JID_7226_Energie_anion
 -----------------------------------
 Structure from the checkpoint file:  "JID_7226.chk"
 Charge = -1 Multiplicity = 2

                         Standard orientation:
 ---------------------------------------------------------------------
 Center     Atomic      Atomic             Coordinates (Angstroms)
 Number     Number       Type             X           Y           Z
 ---------------------------------------------------------------------
      1          6           0       -2.633647   -1.385620    2.032721
      2          6           0       -2.685482    0.043156    1.484374
      3          6           0       -2.038955    0.330750    0.106768
      4          6           0       -2.614710   -0.528097   -1.057831
      5          6           0       -2.016522   -1.938636   -1.153697
      6          6           0       -0.490238   -1.904182   -1.076715
      7          7           0       -0.073502   -1.209577    0.132140
      8          6           0       -0.489333    0.184727    0.128791
      9          6           0        1.297393   -1.477379    0.558218
     10          6           0        2.437096   -1.290766   -0.465111
     11          6           0        2.693088    0.134054   -0.982597
     12          6           0        2.999652    1.187899    0.092582
     13          6           0        4.196760    0.842632    0.981661
     14          8           0        5.402779    0.654579    0.247583
     15          6           0       -2.341651    1.802383   -0.205320
     16          8           0       -2.971018    2.567933    0.491776
     17          8           0       -1.814195    2.210222   -1.392937
     18          1           0       -3.275288   -2.064660    1.462089
     19          1           0       -3.001656   -1.389193    3.065307
     20          1           0       -1.619197   -1.788723    2.018278
     21          1           0       -3.730298    0.368705    1.431241
     22          1           0       -2.211826    0.718893    2.206737
     23          1           0       -3.705929   -0.581359   -0.959229
     24          1           0       -2.406910   -0.007966   -1.998829
     25          1           0       -2.390695   -2.579183   -0.352307
     26          1           0       -2.326458   -2.392615   -2.103134
     27          1           0       -0.094037   -2.925752   -1.045570
     28          1           0       -0.083925   -1.425809   -1.990855
     29          1           0       -0.080006    0.737351   -0.731613
     30          1           0       -0.106780    0.662558    1.037596
     31          1           0        1.487936   -0.866458    1.448297
     32          1           0        1.331692   -2.524169    0.891606
     33          1           0        3.350323   -1.683165    0.006625
     34          1           0        2.251861   -1.945715   -1.325776
     35          1           0        3.537327    0.099985   -1.685324
     36          1           0        1.836501    0.469818   -1.576714
     37          1           0        3.199551    2.145548   -0.403381
     38          1           0        2.124800    1.344393    0.736280
     39          1           0        4.398789    1.670819    1.668033
     40          1           0        3.973846   -0.040781    1.601224
     41          1           0        5.299998   -0.151435   -0.280412
     42          1           0       -2.066341    3.148556   -1.479583
 ---------------------------------------------------------------------

 SCF Done:  E(UB3LYP) =  -791.162636798     A.U. after   31 cycles

 The electronic state is 2-A.
 Alpha  occ. eigenvalues --  -19.07703 -19.03119 -19.02673 -14.20869 -10.21412
 Alpha  occ. eigenvalues --  -10.12438 -10.10882 -10.10495 -10.10009 -10.09707
 Alpha  occ. eigenvalues --  -10.08140 -10.07664 -10.07472 -10.07406 -10.07317
 Alpha  occ. eigenvalues --  -10.07093 -10.06543  -1.01977  -0.93168  -0.92978
 Alpha  occ. eigenvalues --   -0.83867  -0.73742  -0.70591  -0.68201  -0.65165
 Alpha  occ. eigenvalues --   -0.64416  -0.59857  -0.57754  -0.55135  -0.53882
 Alpha  occ. eigenvalues --   -0.52458  -0.48924  -0.46367  -0.44864  -0.42121
 Alpha  occ. eigenvalues --   -0.41419  -0.40197  -0.39288  -0.38522  -0.38056
 Alpha  occ. eigenvalues --   -0.37092  -0.36230  -0.35515  -0.34614  -0.33486
 Alpha  occ. eigenvalues --   -0.32725  -0.32159  -0.31414  -0.30934  -0.30146
 Alpha  occ. eigenvalues --   -0.29771  -0.29366  -0.27942  -0.27356  -0.26432
 Alpha  occ. eigenvalues --   -0.25480  -0.25240  -0.24709  -0.24350  -0.23841
 Alpha  occ. eigenvalues --   -0.23447  -0.22688  -0.22496  -0.21932  -0.18860
 Alpha  occ. eigenvalues --   -0.18539  -0.11638   0.03901
 Alpha virt. eigenvalues --    0.05680   0.06428   0.06773   0.07773   0.07959
 Alpha virt. eigenvalues --    0.08358   0.08476   0.09055   0.09764   0.10138
 Alpha virt. eigenvalues --    0.10342   0.10970   0.11443   0.11668   0.11978

  Beta  occ. eigenvalues --  -19.07660 -19.03091 -19.02662 -14.20870 -10.21405
  Beta  occ. eigenvalues --  -10.12425 -10.10877 -10.10481 -10.09995 -10.09684
  Beta  occ. eigenvalues --  -10.08127 -10.07658 -10.07464 -10.07392 -10.07300
  Beta  occ. eigenvalues --  -10.07064 -10.06533  -1.01923  -0.93107  -0.92931
  Beta  occ. eigenvalues --   -0.83855  -0.73717  -0.70557  -0.68173  -0.65138
  Beta  occ. eigenvalues --   -0.64378  -0.59814  -0.57709  -0.55089  -0.53824
  Beta  occ. eigenvalues --   -0.52416  -0.48872  -0.46310  -0.44822  -0.42072
  Beta  occ. eigenvalues --   -0.41375  -0.40174  -0.39261  -0.38494  -0.38023
  Beta  occ. eigenvalues --   -0.37069  -0.36191  -0.35480  -0.34580  -0.33459
  Beta  occ. eigenvalues --   -0.32692  -0.32131  -0.31393  -0.30906  -0.30117
  Beta  occ. eigenvalues --   -0.29745  -0.29335  -0.27916  -0.27335  -0.26410
  Beta  occ. eigenvalues --   -0.25450  -0.25214  -0.24675  -0.24321  -0.23815
  Beta  occ. eigenvalues --   -0.23413  -0.22661  -0.22466  -0.21911  -0.18823
  Beta  occ. eigenvalues --   -0.18505  -0.11623
  Beta virt. eigenvalues --    0.05972   0.06810   0.06976   0.07102   0.08002
  Beta virt. eigenvalues --    0.08297   0.08590   0.08783   0.09192   0.10024
  Beta virt. eigenvalues --    0.10409   0.10417   0.11184   0.11712   0.11849

 Mulliken charges and spin densities:
               1          2
     1  C    0.043712  -0.679612
     2  C   -0.950225   0.572574
     3  C    1.596149  -0.964503
     4  C    0.258244  -0.839633
     5  C    0.102804  -0.486772
     6  C   -0.010023  -0.348547
     7  N    0.184823   0.052689
     8  C   -1.118156   0.226314
     9  C   -0.370087   0.277874
    10  C    0.775028  -1.092697
    11  C   -0.123895  -0.161363
    12  C   -0.064068  -0.020064
    13  C    0.192468  -0.754335
    14  O   -0.244333   0.012890
    15  C   -0.357736   0.401040
    16  O   -0.251816   0.008991
    17  O   -0.152828   0.022991
    18  H    0.021513   0.107477
    19  H    0.088798   0.045228
    20  H    0.046101   0.127513
    21  H    0.130349   0.054340
    22  H    0.064221   0.105123
    23  H    0.017813   0.161574
    24  H    0.086296   0.092983
    25  H    0.217578  -0.109345
    26  H   -0.362381   0.556391
    27  H   -0.305420   0.489811
    28  H    0.182320  -0.047999
    29  H    0.477788  -0.294514
    30  H    0.274532  -0.146810
    31  H    0.027348   0.125457
    32  H   -0.122411   0.307262
    33  H   -0.476293   0.641556
    34  H   -0.239585   0.398006
    35  H   -0.130635   0.330098
    36  H   -0.320709   0.455720
    37  H    0.072478   0.098897
    38  H   -0.089278   0.214826
    39  H    0.103378   0.067514
    40  H   -0.015617   0.173824
    41  H    0.060445   0.189577
    42  H   -0.318688   0.627654
 Sum of Mulliken charges =  -1.00000   1.00000

 Dipole moment (field-independent basis, Debye):
    X=             -2.9682    Y=             -0.1690    Z=              2.9972  Tot=              4.2216
 Quadrupole moment (field-independent basis, Debye-Ang):
   XX=           -195.2873   YY=           -163.1151   ZZ=           -144.4343
   XY=             11.8428   XZ=              0.3078   YZ=              0.6126

 Summary of Natural Population Analysis:

                                       Natural Population
                Natural  -----------------------------------------------
    Atom  No    Charge         Core      Valence    Rydberg      Total
 -----------------------------------------------------------------------
      C    1   -0.28799      0.99966     2.28373    0.00460     3.28799
      C    2   -0.18705      0.99960     2.17819    0.00926     3.18705
      C    3   -0.07769      0.99951     2.06466    0.01352     3.07769
      C    4   -0.18928      0.99959     2.17983    0.00986     3.18928
      C    5   -0.19167      0.99962     2.18346    0.00860     3.19167
      C    6   -0.08259      0.99961     2.07162    0.01136     3.08259
      N    7   -0.29130      0.99971     2.77883    0.01275     3.79130
      C    8   -0.08065      0.99956     2.06870    0.01239     3.08065
      C    9   -0.07798      0.99960     2.06585    0.01253     3.07798
      C   10   -0.20352      0.99962     2.19364    0.01027     3.20352
      C   11   -0.19865      0.99962     2.18913    0.00991     3.19865
      C   12   -0.20407      0.99962     2.19740    0.00705     3.20407
      C   13   -0.00998      0.99960     1.99861    0.01177     3.00998
      O   14   -0.37056      0.99990     3.36398    0.00668     4.37056
      C   15    0.41778      0.99964     1.55529    0.02730     2.58222
      O   16   -0.30758      0.99987     3.30183    0.00587     4.30758
      O   17   -0.34747      0.99988     3.34047    0.00712     4.34747
      H   18    0.09303      0.00000     0.40584    0.00113     0.40697
      H   19    0.09450      0.00000     0.40466    0.00083     0.40550
      H   20    0.10860      0.00000     0.38993    0.00147     0.39140
      H   21    0.10222      0.00000     0.39674    0.00104     0.39778
      H   22    0.09954      0.00000     0.39946    0.00100     0.40046
      H   23    0.10081      0.00000     0.39819    0.00100     0.39919
      H   24    0.10852      0.00000     0.38969    0.00179     0.39148
      H   25    0.09696      0.00000     0.40146    0.00158     0.40304
      H   26    0.09999      0.00000     0.39904    0.00097     0.40001
      H   27    0.09976      0.00000     0.39898    0.00126     0.40024
      H   28    0.08209      0.00000     0.41621    0.00171     0.41791
      H   29    0.09355      0.00000     0.40390    0.00254     0.40645
      H   30    0.09739      0.00000     0.40108    0.00153     0.40261
      H   31    0.09152      0.00000     0.40720    0.00128     0.40848
      H   32    0.09582      0.00000     0.40301    0.00117     0.40418
      H   33    0.09542      0.00000     0.40259    0.00199     0.40458
      H   34    0.10212      0.00000     0.39640    0.00148     0.39788
      H   35    0.09760      0.00000     0.40109    0.00131     0.40240
      H   36    0.10122      0.00000     0.39701    0.00177     0.39878
      H   37    0.09977      0.00000     0.39911    0.00112     0.40023
      H   38    0.09747      0.00000     0.40121    0.00131     0.40253
      H   39    0.08428      0.00000     0.41451    0.00120     0.41572
      H   40    0.07522      0.00000     0.42342    0.00136     0.42478
      H   41    0.22944      0.00000     0.26718    0.00339     0.27056
      H   42    0.24341      0.00000     0.24676    0.00982     0.25659
 =======================================================================
   * Total *    0.00000     16.99419    49.77992    0.22589    67.00000

 Normal termination of Gaussian 16 at Mon Dec 14 18:04:59 2020.
