 Gaussian 16, Revision A.03,

 -----------------------------------------------------------
 # opt freq B3LYP/6-31G(d) empiricaldispersion=gd3bj scf=xqc
 -----------------------------------------------------------

 -------------------------------
 CID_130689204_JID_5393_neutraal
 -------------------------------
 Symbolic Z-matrix:
 Charge =  0 Multiplicity = 1

 SCF Done:  E(RB3LYP) =  -652.897022551     A.U. after   15 cycles
 SCF Done:  E(RB3LYP) =  -652.900464106     A.U. after   12 cycles
 SCF Done:  E(RB3LYP) =  -652.901550611     A.U. after   12 cycles
 SCF Done:  E(RB3LYP) =  -652.901754466     A.U. after   12 cycles
 SCF Done:  E(RB3LYP) =  -652.901823834     A.U. after   12 cycles
 SCF Done:  E(RB3LYP) =  -652.902055707     A.U. after   12 cycles
 SCF Done:  E(RB3LYP) =  -652.902584846     A.U. after   12 cycles
 SCF Done:  E(RB3LYP) =  -652.902703620     A.U. after   11 cycles
 SCF Done:  E(RB3LYP) =  -652.902774261     A.U. after   11 cycles
 SCF Done:  E(RB3LYP) =  -652.902828469     A.U. after   10 cycles
 SCF Done:  E(RB3LYP) =  -652.902901337     A.U. after    7 cycles
 SCF Done:  E(RB3LYP) =  -652.902901581     A.U. after    8 cycles
 SCF Done:  E(RB3LYP) =  -652.902901661     A.U. after    7 cycles
 SCF Done:  E(RB3LYP) =  -652.902901677     A.U. after    6 cycles
 Optimization completed.
    -- Stationary point found.
 Normal termination of Gaussian 16 at Thu Dec 10 15:54:58 2020.

 --------------------------------------------------------------------
 #N Geom=AllCheck Guess=TCheck SCRF=Check GenChk RB3LYP/6-31G(d) Freq
 --------------------------------------------------------------------

 Structure from the checkpoint file:  "JID_5393.chk"
 -------------------------------
 CID_130689204_JID_5393_neutraal
 -------------------------------
 Charge =  0 Multiplicity = 1

 SCF Done:  E(RB3LYP) =  -652.902901677     A.U. after    1 cycles

  Exact polarizability: 170.240   3.074 135.746  -9.208   3.179 100.306
 Approx polarizability: 220.241   4.081 224.641 -20.192  14.412 161.885

                      1                      2                      3
                      A                      A                      A
 Frequencies --     30.3604                36.7105                60.2555
 Red. masses --      3.8313                 4.1305                 4.7845
 Frc consts  --      0.0021                 0.0033                 0.0102
 IR Inten    --      1.1574                 0.6332                 1.5431

                      4                      5                      6
                      A                      A                      A
 Frequencies --     80.5901               128.9902               176.1564
 Red. masses --      4.0039                 3.5104                 3.4260
 Frc consts  --      0.0153                 0.0344                 0.0626
 IR Inten    --      0.2663                 2.3616                 2.4634

                      7                      8                      9
                      A                      A                      A
 Frequencies --    191.1492               201.3299               216.3435
 Red. masses --      1.9271                 1.6762                 1.2934
 Frc consts  --      0.0415                 0.0400                 0.0357
 IR Inten    --      0.5249                 0.4030                 0.1325

                     10                     11                     12
                      A                      A                      A
 Frequencies --    242.6351               261.9155               276.6299
 Red. masses --      3.1249                 3.4756                 1.0880
 Frc consts  --      0.1084                 0.1405                 0.0491
 IR Inten    --      0.8538                 2.2448                 0.3578

                     13                     14                     15
                      A                      A                      A
 Frequencies --    301.9343               318.7410               336.1762
 Red. masses --      1.9470                 1.8379                 3.0094
 Frc consts  --      0.1046                 0.1100                 0.2004
 IR Inten    --      1.3366                 1.2192                 0.1598

                     16                     17                     18
                      A                      A                      A
 Frequencies --    393.4064               418.0053               445.2046
 Red. masses --      2.5811                 3.0047                 3.4399
 Frc consts  --      0.2354                 0.3093                 0.4017
 IR Inten    --      6.0597                 0.8497                 8.3763

                     19                     20                     21
                      A                      A                      A
 Frequencies --    473.6283               496.5658               551.4904
 Red. masses --      2.9655                 4.6727                 4.1052
 Frc consts  --      0.3919                 0.6788                 0.7356
 IR Inten    --      4.9760                 1.7370                12.2425

                     22                     23                     24
                      A                      A                      A
 Frequencies --    573.6775               597.8091               619.6924
 Red. masses --      1.3844                 2.4795                 3.4532
 Frc consts  --      0.2684                 0.5221                 0.7813
 IR Inten    --     43.7658                39.5967                11.8827

                     25                     26                     27
                      A                      A                      A
 Frequencies --    636.5990               681.6320               711.4236
 Red. masses --      6.3774                 3.9370                 2.6645
 Frc consts  --      1.5227                 1.0778                 0.7946
 IR Inten    --      0.2333                19.2860                10.8371

                     28                     29                     30
                      A                      A                      A
 Frequencies --    736.2605               750.7958               766.8603
 Red. masses --      1.3625                 1.8941                 3.8035
 Frc consts  --      0.4352                 0.6291                 1.3179
 IR Inten    --     64.1439                21.6878                70.2284

                     31                     32                     33
                      A                      A                      A
 Frequencies --    818.3358               849.9330               866.7837
 Red. masses --      3.3652                 2.2861                 1.2674
 Frc consts  --      1.3278                 0.9730                 0.5610
 IR Inten    --     22.9039                 2.9923                 1.0160

                     34                     35                     36
                      A                      A                      A
 Frequencies --    909.5516               936.9438               961.7110
 Red. masses --      1.4000                 1.5695                 1.7835
 Frc consts  --      0.6824                 0.8118                 0.9719
 IR Inten    --      0.7636                 0.3418                10.8995

                     37                     38                     39
                      A                      A                      A
 Frequencies --    972.5554               998.3738              1021.0646
 Red. masses --      1.3592                 1.2747                 5.8333
 Frc consts  --      0.7575                 0.7486                 3.5832
 IR Inten    --      3.7807                 4.3568                 0.5326

                     40                     41                     42
                      A                      A                      A
 Frequencies --   1032.3806              1061.0112              1061.9812
 Red. masses --      1.3054                 1.9667                 2.1391
 Frc consts  --      0.8198                 1.3045                 1.4214
 IR Inten    --      0.3169                20.4811                19.6786

                     43                     44                     45
                      A                      A                      A
 Frequencies --   1066.6478              1114.2893              1157.5329
 Red. masses --      1.8898                 1.6991                 1.3003
 Frc consts  --      1.2668                 1.2430                 1.0265
 IR Inten    --     21.2702                 7.3704                 4.3542

                     46                     47                     48
                      A                      A                      A
 Frequencies --   1163.0443              1182.0229              1193.0074
 Red. masses --      2.8404                 3.0305                 1.0978
 Frc consts  --      2.2637                 2.4947                 0.9206
 IR Inten    --      4.3573                 9.6810                 0.1548

                     49                     50                     51
                      A                      A                      A
 Frequencies --   1207.3383              1214.5491              1219.2235
 Red. masses --      1.9339                 2.6673                 1.2309
 Frc consts  --      1.6609                 2.3182                 1.0781
 IR Inten    --      7.2471                 1.9985                 4.5064

                     52                     53                     54
                      A                      A                      A
 Frequencies --   1233.1979              1244.4220              1319.1605
 Red. masses --      1.9928                 2.7244                 1.6843
 Frc consts  --      1.7856                 2.4857                 1.7268
 IR Inten    --      0.7729               119.7968                11.2538

                     55                     56                     57
                      A                      A                      A
 Frequencies --   1338.8185              1371.5918              1387.6050
 Red. masses --      1.7665                 1.9361                 2.1181
 Frc consts  --      1.8656                 2.1459                 2.4029
 IR Inten    --     19.6518                 9.7302               135.5137

                     58                     59                     60
                      A                      A                      A
 Frequencies --   1400.8524              1425.9970              1451.3125
 Red. masses --      1.4750                 1.2142                 1.2658
 Frc consts  --      1.7054                 1.4547                 1.5709
 IR Inten    --     64.4715                 6.1867                 9.1750

                     61                     62                     63
                      A                      A                      A
 Frequencies --   1491.8423              1498.7911              1501.6596
 Red. masses --      1.5397                 1.1618                 1.8736
 Frc consts  --      2.0190                 1.5376                 2.4892
 IR Inten    --      7.5507                 6.8076                 7.1351

                     64                     65                     66
                      A                      A                      A
 Frequencies --   1502.2855              1509.3861              1520.3651
 Red. masses --      1.2227                 1.0727                 1.0883
 Frc consts  --      1.6258                 1.4399                 1.4821
 IR Inten    --     12.3680                 7.6037                 4.0354

                     67                     68                     69
                      A                      A                      A
 Frequencies --   1520.8822              1523.5066              1536.3095
 Red. masses --      1.1341                 1.1046                 1.0539
 Frc consts  --      1.5456                 1.5106                 1.4656
 IR Inten    --     91.4272                22.9522                 9.2229

                     70                     71                     72
                      A                      A                      A
 Frequencies --   1546.9926              1551.6854              1555.9521
 Red. masses --      1.5674                 1.5203                 1.0688
 Frc consts  --      2.2100                 2.1566                 1.5246
 IR Inten    --     10.9851                 3.7919                27.1724

                     73                     74                     75
                      A                      A                      A
 Frequencies --   1647.6743              1667.1649              1750.0313
 Red. masses --      5.4603                 5.4076                 6.4499
 Frc consts  --      8.7339                 8.8555                11.6384
 IR Inten    --      1.5024                 4.5329               266.4001

                     76                     77                     78
                      A                      A                      A
 Frequencies --   3017.6195              3056.6731              3061.2013
 Red. masses --      1.0667                 1.0388                 1.0939
 Frc consts  --      5.7230                 5.7185                 6.0395
 IR Inten    --     43.5140                31.8809                14.1654

                     79                     80                     81
                      A                      A                      A
 Frequencies --   3065.6094              3070.5438              3123.0824
 Red. masses --      1.0362                 1.0394                 1.0986
 Frc consts  --      5.7374                 5.7740                 6.3132
 IR Inten    --     18.3863                37.1406                16.9022

                     82                     83                     84
                      A                      A                      A
 Frequencies --   3127.8196              3131.2295              3147.4984
 Red. masses --      1.1007                 1.1010                 1.1043
 Frc consts  --      6.3449                 6.3600                 6.4459
 IR Inten    --      9.1874                74.5834                22.7060

                     85                     86                     87
                      A                      A                      A
 Frequencies --   3156.7457              3162.1590              3164.6976
 Red. masses --      1.1008                 1.1011                 1.0871
 Frc consts  --      6.4633                 6.4872                 6.4147
 IR Inten    --     25.3029                15.3096                13.9083

                     88                     89                     90
                      A                      A                      A
 Frequencies --   3180.4338              3189.4191              3198.8492
 Red. masses --      1.0858                 1.0903                 1.0928
 Frc consts  --      6.4712                 6.5343                 6.5887
 IR Inten    --      0.1976                21.1778                26.9351

                     91                     92                     93
                      A                      A                      A
 Frequencies --   3207.9989              3532.1103              3599.9116
 Red. masses --      1.0977                 1.0735                 1.0758
 Frc consts  --      6.6560                 7.8908                 8.2140
 IR Inten    --     25.5878                46.2566                27.4325

 - Thermochemistry -
 -------------------
 Temperature   298.150 Kelvin.  Pressure   1.00000 Atm.
 Atom     1 has atomic number  6 and mass  12.00000

 Molecular mass:   206.14191 amu.
 Principal axes and moments of inertia in atomic units:
                           1         2         3
     Eigenvalues --  1421.140095669.433076061.50605
           X            0.99993   0.00779   0.00932
           Y           -0.00765   0.99986  -0.01467
           Z           -0.00944   0.01460   0.99985
 This molecule is an asymmetric top.
 Rotational symmetry number  1.
 Warning -- assumption of classical behavior for rotation
           may cause significant error
 Rotational temperatures (Kelvin)      0.06095     0.01528     0.01429
 Rotational constants (GHZ):           1.26992     0.31833     0.29774
 Zero-point vibrational energy     756113.7 (Joules/Mol)
                                  180.71551 (Kcal/Mol)
 Warning -- explicit consideration of  24 degrees of freedom as
           vibrations may cause significant error
 Vibrational temperatures:     43.68    52.82    86.69   115.95   185.59
          (Kelvin)            253.45   275.02   289.67   311.27   349.10
                              376.84   398.01   434.42   458.60   483.68
                              566.02   601.42   640.55   681.45   714.45
                              793.47   825.39   860.11   891.60   915.92
                              980.72  1023.58  1059.31  1080.23  1103.34
                             1177.40  1222.86  1247.11  1308.64  1348.05
                             1383.69  1399.29  1436.44  1469.08  1485.37
                             1526.56  1527.95  1534.67  1603.21  1665.43
                             1673.36  1700.67  1716.47  1737.09  1747.47
                             1754.19  1774.30  1790.45  1897.98  1926.26
                             1973.41  1996.45  2015.51  2051.69  2088.11
                             2146.43  2156.43  2160.55  2161.45  2171.67
                             2187.47  2188.21  2191.99  2210.41  2225.78
                             2232.53  2238.67  2370.64  2398.68  2517.90
                             4341.68  4397.87  4404.39  4410.73  4417.83
                             4493.42  4500.23  4505.14  4528.55  4541.85
                             4549.64  4553.29  4575.93  4588.86  4602.43
                             4615.59  5081.92  5179.47

 Zero-point correction=                           0.287988 (Hartree/Particle)
 Thermal correction to Energy=                    0.303240
 Thermal correction to Enthalpy=                  0.304184
 Thermal correction to Gibbs Free Energy=         0.245156
 Sum of electronic and zero-point Energies=           -652.614913
 Sum of electronic and thermal Energies=              -652.599662
 Sum of electronic and thermal Enthalpies=            -652.598718
 Sum of electronic and thermal Free Energies=         -652.657746

                     E (Thermal)             CV                S
                      KCal/Mol        Cal/Mol-Kelvin    Cal/Mol-Kelvin
 Total                  190.286             58.619            124.236
 Electronic               0.000              0.000              0.000
 Translational            0.889              2.981             41.874
 Rotational               0.889              2.981             32.257
 Vibrational            188.508             52.657             50.105
 Vibration     1          0.594              1.984              5.806
 Vibration     2          0.594              1.982              5.429
 Vibration     3          0.597              1.973              4.449
 Vibration     4          0.600              1.962              3.876
 Vibration     5          0.611              1.924              2.961
 Vibration     6          0.628              1.872              2.369
 Vibration     7          0.634              1.852              2.217
 Vibration     8          0.638              1.838              2.121
 Vibration     9          0.645              1.816              1.989
 Vibration    10          0.659              1.775              1.783
 Vibration    11          0.669              1.743              1.649
 Vibration    12          0.678              1.717              1.554
 Vibration    13          0.694              1.670              1.406
 Vibration    14          0.705              1.638              1.317
 Vibration    15          0.717              1.603              1.230
 Vibration    16          0.761              1.484              0.987
 Vibration    17          0.781              1.431              0.899
 Vibration    18          0.805              1.371              0.810
 Vibration    19          0.830              1.309              0.727
 Vibration    20          0.852              1.258              0.667
 Vibration    21          0.907              1.136              0.541
 Vibration    22          0.930              1.088              0.497
 Vibration    23          0.956              1.036              0.453
 Vibration    24          0.980              0.990              0.417

 Optimization completed.
    -- Stationary point found.
 Normal termination of Gaussian 16 at Thu Dec 10 16:05:37 2020.

 ----------------------------------------------------------------------
 # B3LYP/6-311++G(d,p) empiricaldispersion=gd3bj scf=xqc pop=npa geom=c
 heck
 ----------------------------------------------------------------------

 ---------------------------------------
 CID_130689204_JID_5393_Energie_neutraal
 ---------------------------------------
 Structure from the checkpoint file:  "JID_5393.chk"
 Charge =  0 Multiplicity = 1

 SCF Done:  E(RB3LYP) =  -653.090004033     A.U. after   15 cycles
 Normal termination of Gaussian 16 at Thu Dec 10 16:10:08 2020.

 ----------------------------------------------------------------------
 # B3LYP/6-311++G(d,p) empiricaldispersion=gd3bj scf=xqc pop=npa geom=c
 heck
 ----------------------------------------------------------------------

 -------------------------------------
 CID_130689204_JID_5393_Energie_kation
 -------------------------------------
 Structure from the checkpoint file:  "JID_5393.chk"
 Charge =  1 Multiplicity = 2

 SCF Done:  E(UB3LYP) =  -652.798822975     A.U. after   33 cycles
 SCF Done:  E(UB3LYP) =  -652.800026211     a.u. after   14 cycles
 Normal termination of Gaussian 16 at Thu Dec 10 18:18:31 2020.
 Gaussian 16:  ES64L-G16RevA.03 25-Dec-2016

 ----------------------------------------------------------------------
 # B3LYP/6-311++G(d,p) empiricaldispersion=gd3bj scf=xqc pop=npa geom=c
 heck
 ----------------------------------------------------------------------

 ------------------------------------
 CID_130689204_JID_5393_Energie_anion
 ------------------------------------
 Structure from the checkpoint file:  "JID_5393.chk"
 Charge = -1 Multiplicity = 2

                         Standard orientation:
 ---------------------------------------------------------------------
 Center     Atomic      Atomic             Coordinates (Angstroms)
 Number     Number       Type             X           Y           Z
 ---------------------------------------------------------------------
      1          6           0       -2.242947   -1.822197    0.002232
      2          6           0       -1.392651   -0.538078    0.084560
      3          6           0       -0.704315   -0.267292   -1.277572
      4          6           0       -2.207231    0.738293    0.428930
      5          8           0       -1.773847    1.546230    1.251964
      6          7           0       -3.373804    1.027616   -0.218221
      7          6           0       -4.162395    0.294738   -1.194933
      8          7           0       -0.479750   -0.710912    1.222281
      9          6           0        0.812048   -1.333826    1.019650
     10          6           0        1.931231   -0.497022    0.401625
     11          6           0        1.945317    0.898238    0.500213
     12          6           0        3.003446    1.638042   -0.029429
     13          6           0        4.066249    0.993554   -0.663551
     14          6           0        4.061448   -0.398366   -0.766606
     15          6           0        3.000696   -1.133448   -0.237868
     16          1           0       -2.848785   -1.891854   -0.903738
     17          1           0       -2.889764   -1.912455    0.879916
     18          1           0       -1.563719   -2.680995    0.005641
     19          1           0       -1.441714   -0.179748   -2.081744
     20          1           0       -0.114308    0.650670   -1.247423
     21          1           0       -0.032264   -1.091229   -1.535581
     22          1           0       -3.758029    1.903937    0.111626
     23          1           0       -4.712136   -0.543508   -0.752140
     24          1           0       -4.887816    0.990141   -1.624407
     25          1           0       -3.544886   -0.083998   -2.012449
     26          1           0       -0.419571    0.166922    1.729415
     27          1           0        1.157948   -1.679281    2.004880
     28          1           0        0.680467   -2.247796    0.426589
     29          1           0        1.111113    1.414172    0.967323
     30          1           0        2.994468    2.721784    0.051616
     31          1           0        4.888540    1.570376   -1.077670
     32          1           0        4.880174   -0.911220   -1.264617
     33          1           0        3.000563   -2.218487   -0.324864
 ---------------------------------------------------------------------

 SCF Done:  E(UB3LYP) =  -653.078993130     A.U. after   33 cycles
 SCF Done:  E(UB3LYP) =  -653.078993130     a.u. after    1 cycles

 The electronic state is 2-A.
 Alpha  occ. eigenvalues --  -18.99728 -14.24467 -14.19529 -10.18094 -10.12796
 Alpha  occ. eigenvalues --  -10.10966 -10.10655 -10.09256 -10.08988 -10.08955
 Alpha  occ. eigenvalues --  -10.08798 -10.08600 -10.08356 -10.06835 -10.06586
 Alpha  occ. eigenvalues --   -0.95035  -0.82635  -0.81840  -0.76913  -0.69499
 Alpha  occ. eigenvalues --   -0.66301  -0.65901  -0.61695  -0.59891  -0.58594
 Alpha  occ. eigenvalues --   -0.53221  -0.51959  -0.49829  -0.46076  -0.43655
 Alpha  occ. eigenvalues --   -0.41611  -0.39668  -0.37902  -0.37215  -0.36457
 Alpha  occ. eigenvalues --   -0.36158  -0.34740  -0.33991  -0.33541  -0.33010
 Alpha  occ. eigenvalues --   -0.32045  -0.31436  -0.30921  -0.29511  -0.28116
 Alpha  occ. eigenvalues --   -0.27828  -0.26890  -0.26459  -0.25999  -0.25044
 Alpha  occ. eigenvalues --   -0.24780  -0.17213  -0.16882  -0.16416  -0.15963
 Alpha  occ. eigenvalues --   -0.12872   0.04024
 Alpha virt. eigenvalues --    0.05373   0.06637   0.06814   0.07040   0.07511
 Alpha virt. eigenvalues --    0.08014   0.08466   0.09404   0.09607   0.09754
 Alpha virt. eigenvalues --    0.10368   0.11093   0.11529   0.12336   0.12638

  Beta  occ. eigenvalues --  -18.99726 -14.24450 -14.19529 -10.18095 -10.12792
  Beta  occ. eigenvalues --  -10.10956 -10.10582 -10.09255 -10.08982 -10.08943
  Beta  occ. eigenvalues --  -10.08790 -10.08588 -10.08352 -10.06815 -10.06561
  Beta  occ. eigenvalues --   -0.95027  -0.82601  -0.81832  -0.76896  -0.69480
  Beta  occ. eigenvalues --   -0.66282  -0.65880  -0.61590  -0.59850  -0.58567
  Beta  occ. eigenvalues --   -0.53185  -0.51931  -0.49803  -0.46043  -0.43624
  Beta  occ. eigenvalues --   -0.41567  -0.39583  -0.37879  -0.37187  -0.36433
  Beta  occ. eigenvalues --   -0.36123  -0.34708  -0.33968  -0.33518  -0.32987
  Beta  occ. eigenvalues --   -0.32016  -0.31391  -0.30881  -0.29485  -0.28096
  Beta  occ. eigenvalues --   -0.27804  -0.26860  -0.26436  -0.25978  -0.25024
  Beta  occ. eigenvalues --   -0.24761  -0.17198  -0.16867  -0.16391  -0.15946
  Beta  occ. eigenvalues --   -0.12868
  Beta virt. eigenvalues --    0.05911   0.06785   0.06875   0.07024   0.07257
  Beta virt. eigenvalues --    0.08123   0.08551   0.08935   0.09589   0.09934
  Beta virt. eigenvalues --    0.10206   0.10652   0.11397   0.11974   0.12709

 Mulliken charges and spin densities:
               1          2
     1  C    0.540914  -1.035774
     2  C   -0.309426   0.295431
     3  C    0.142963  -0.627517
     4  C   -0.645325   0.587892
     5  O   -0.355351   0.010796
     6  N   -0.535247   0.263872
     7  C    1.839343  -2.202288
     8  N   -0.013601   0.034348
     9  C    0.449276  -1.266341
    10  C    0.930061   0.287157
    11  C   -0.307253   0.139567
    12  C   -0.690035   0.252382
    13  C    0.356661  -0.723772
    14  C    0.189238  -0.472528
    15  C   -0.714368   0.392207
    16  H   -0.001455   0.137047
    17  H   -0.017982   0.206979
    18  H   -0.095654   0.214212
    19  H   -0.050041   0.187746
    20  H    0.128659   0.061743
    21  H   -0.011799   0.162101
    22  H    0.017023   0.310017
    23  H   -0.470228   0.645506
    24  H   -1.016793   1.186975
    25  H   -0.233073   0.398648
    26  H    0.227962   0.036981
    27  H    0.169280   0.015225
    28  H    0.168571   0.010099
    29  H    0.138446   0.009814
    30  H    0.033439   0.140922
    31  H   -0.117107   0.258156
    32  H   -0.423710   0.601407
    33  H   -0.323389   0.480989
 Sum of Mulliken charges =  -1.00000   1.00000

 Dipole moment (field-independent basis, Debye):
    X=              6.1275    Y=             -0.4095    Z=              3.4152  Tot=              7.0269
 Quadrupole moment (field-independent basis, Debye-Ang):
   XX=           -203.9179   YY=           -128.4519   ZZ=           -130.2403
   XY=             10.0372   XZ=             -9.5604   YZ=             -0.8321

 Summary of Natural Population Analysis:

                                       Natural Population
                Natural  -----------------------------------------------
    Atom  No    Charge         Core      Valence    Rydberg      Total
 -----------------------------------------------------------------------
      C    1   -0.28748      0.99962     2.27967    0.00819     3.28748
      C    2    0.02907      0.99956     1.95816    0.01322     2.97093
      C    3   -0.29358      0.99962     2.28695    0.00701     3.29358
      C    4    0.35099      0.99960     1.62568    0.02374     2.64901
      O    5   -0.33720      0.99988     3.33176    0.00557     4.33720
      N    6   -0.31252      0.99967     2.80110    0.01175     3.81252
      C    7   -0.17936      0.99964     2.17124    0.00849     3.17936
      N    8   -0.35185      0.99971     2.84057    0.01157     3.85185
      C    9   -0.09695      0.99958     2.08526    0.01210     3.09695
      C   10   -0.01874      0.99950     2.00951    0.00973     3.01874
      C   11   -0.10937      0.99950     2.10164    0.00822     3.10937
      C   12   -0.09767      0.99956     2.08902    0.00909     3.09767
      C   13   -0.10968      0.99956     2.09970    0.01042     3.10968
      C   14   -0.09818      0.99956     2.08856    0.01006     3.09818
      C   15   -0.10297      0.99951     2.09374    0.00973     3.10297
      H   16    0.10010      0.00000     0.39865    0.00125     0.39990
      H   17    0.10436      0.00000     0.39426    0.00138     0.39564
      H   18    0.10115      0.00000     0.39783    0.00102     0.39885
      H   19    0.10288      0.00000     0.39604    0.00108     0.39712
      H   20    0.10770      0.00000     0.39094    0.00135     0.39230
      H   21    0.10302      0.00000     0.39579    0.00119     0.39698
      H   22    0.19636      0.00000     0.30128    0.00236     0.30364
      H   23    0.09613      0.00000     0.40162    0.00225     0.40387
      H   24    0.10703      0.00000     0.38782    0.00516     0.39297
      H   25    0.09671      0.00000     0.40118    0.00211     0.40329
      H   26    0.19340      0.00000     0.30403    0.00257     0.30660
      H   27    0.10121      0.00000     0.39789    0.00091     0.39879
      H   28    0.09683      0.00000     0.40196    0.00121     0.40317
      H   29    0.10782      0.00000     0.39046    0.00172     0.39218
      H   30    0.09976      0.00000     0.39950    0.00074     0.40024
      H   31    0.10019      0.00000     0.39898    0.00083     0.39981
      H   32    0.10138      0.00000     0.39740    0.00122     0.39862
      H   33    0.09947      0.00000     0.39885    0.00168     0.40053
 =======================================================================
   * Total *   -0.00000     14.99408    40.81702    0.18890    56.00000

 Normal termination of Gaussian 16 at Thu Dec 10 18:30:40 2020.
