 Gaussian 16, Revision A.03,

 -----------------------------------------------------------
 # opt freq B3LYP/6-31G(d) empiricaldispersion=gd3bj scf=xqc
 -----------------------------------------------------------

 -------------------------------
 CID_119083226_JID_3371_neutraal
 -------------------------------
 Symbolic Z-matrix:
 Charge =  0 Multiplicity = 1

 SCF Done:  E(RB3LYP) =  -910.812950587     A.U. after   15 cycles
 SCF Done:  E(RB3LYP) =  -910.822161797     A.U. after   13 cycles
 SCF Done:  E(RB3LYP) =  -910.824204519     A.U. after   13 cycles
 SCF Done:  E(RB3LYP) =  -910.825384920     A.U. after   12 cycles
 SCF Done:  E(RB3LYP) =  -910.827771462     A.U. after   15 cycles
 SCF Done:  E(RB3LYP) =  -910.829453441     A.U. after   12 cycles
 SCF Done:  E(RB3LYP) =  -910.830453578     A.U. after   13 cycles
 SCF Done:  E(RB3LYP) =  -910.831794977     A.U. after   12 cycles
 SCF Done:  E(RB3LYP) =  -910.831928556     A.U. after   11 cycles
 SCF Done:  E(RB3LYP) =  -910.831969876     A.U. after   10 cycles
 SCF Done:  E(RB3LYP) =  -910.831973243     A.U. after    9 cycles
 SCF Done:  E(RB3LYP) =  -910.831974057     A.U. after    8 cycles
 SCF Done:  E(RB3LYP) =  -910.831974279     A.U. after    8 cycles
 Optimization completed.
    -- Stationary point found.
 Normal termination of Gaussian 16 at Wed Dec  9 23:03:51 2020.

 --------------------------------------------------------------------
 #N Geom=AllCheck Guess=TCheck SCRF=Check GenChk RB3LYP/6-31G(d) Freq
 --------------------------------------------------------------------

 Structure from the checkpoint file:  "JID_3371.chk"
 -------------------------------
 CID_119083226_JID_3371_neutraal
 -------------------------------
 Charge =  0 Multiplicity = 1

 SCF Done:  E(RB3LYP) =  -910.831974279     A.U. after    1 cycles

  Exact polarizability: 254.240  -7.686 128.671   0.273   1.424  54.359
 Approx polarizability: 387.063 -27.308 244.362   4.737   2.993  85.508

                      1                      2                      3
                      A                      A                      A
 Frequencies --     63.3719                64.3818               101.4365
 Red. masses --      3.2461                 4.7056                 4.6967
 Frc consts  --      0.0077                 0.0115                 0.0285
 IR Inten    --      1.4017                 1.2754                 2.8268

                      4                      5                      6
                      A                      A                      A
 Frequencies --    182.5207               201.9172               240.4826
 Red. masses --      3.3952                 4.5461                 4.0125
 Frc consts  --      0.0666                 0.1092                 0.1367
 IR Inten    --      2.0151                 1.2687                 0.9536

                      7                      8                      9
                      A                      A                      A
 Frequencies --    271.8852               295.4111               329.3634
 Red. masses --      1.2630                 8.2421                 2.9747
 Frc consts  --      0.0550                 0.4238                 0.1901
 IR Inten    --      1.5529                 7.3144                25.3672

                     10                     11                     12
                      A                      A                      A
 Frequencies --    376.8435               409.6544               442.6196
 Red. masses --      4.4611                 5.2654                 3.2417
 Frc consts  --      0.3733                 0.5206                 0.3742
 IR Inten    --      4.8112                 8.2746                 2.6713

                     13                     14                     15
                      A                      A                      A
 Frequencies --    492.0279               531.9571               539.6523
 Red. masses --      3.9206                 5.9283                 3.4673
 Frc consts  --      0.5592                 0.9884                 0.5949
 IR Inten    --     26.1408                 9.3361                90.7165

                     16                     17                     18
                      A                      A                      A
 Frequencies --    577.1048               630.6208               642.9785
 Red. masses --      2.8458                 3.5503                 3.2678
 Frc consts  --      0.5584                 0.8319                 0.7960
 IR Inten    --    178.5016                 5.3233                56.3652

                     19                     20                     21
                      A                      A                      A
 Frequencies --    678.2500               748.8112               755.6765
 Red. masses --      5.4578                 4.1258                 6.0181
 Frc consts  --      1.4793                 1.3630                 2.0248
 IR Inten    --     17.6273                 0.1342                 5.9363

                     22                     23                     24
                      A                      A                      A
 Frequencies --    804.4112               818.0842               858.9634
 Red. masses --      5.5168                 1.2931                 1.5011
 Frc consts  --      2.1033                 0.5099                 0.6526
 IR Inten    --     30.7346                 6.9767                33.4112

                     25                     26                     27
                      A                      A                      A
 Frequencies --    865.3723               869.3507               933.4500
 Red. masses --      4.4961                 1.3634                 1.5692
 Frc consts  --      1.9838                 0.6071                 0.8056
 IR Inten    --     11.8890                 0.8322                21.9676

                     28                     29                     30
                      A                      A                      A
 Frequencies --    939.0721               984.7486               986.0280
 Red. masses --      3.9892                 1.8323                 1.6529
 Frc consts  --      2.0727                 1.0469                 0.9468
 IR Inten    --     16.9867                 3.2234                 2.7300

                     31                     32                     33
                      A                      A                      A
 Frequencies --   1067.3819              1146.9321              1156.1991
 Red. masses --      2.9212                 1.3096                 1.3341
 Frc consts  --      1.9609                 1.0150                 1.0508
 IR Inten    --      5.2568                29.3088                 1.6143

                     34                     35                     36
                      A                      A                      A
 Frequencies --   1191.9128              1208.5034              1235.2239
 Red. masses --      4.6148                 1.8436                 1.7209
 Frc consts  --      3.8627                 1.5864                 1.5470
 IR Inten    --    117.9722                 1.0717                 2.8724

                     37                     38                     39
                      A                      A                      A
 Frequencies --   1278.4447              1313.5328              1335.6393
 Red. masses --      1.9215                 1.6270                 1.8905
 Frc consts  --      1.8504                 1.6540                 1.9870
 IR Inten    --     18.0668                10.6954                 4.7460

                     40                     41                     42
                      A                      A                      A
 Frequencies --   1362.6644              1410.0214              1453.6338
 Red. masses --      8.3840                 1.7145                 2.7414
 Frc consts  --      9.1723                 2.0084                 3.4129
 IR Inten    --      4.3386                54.3685                29.4200

                     43                     44                     45
                      A                      A                      A
 Frequencies --   1475.7072              1496.3875              1504.5795
 Red. masses --      1.3642                 2.4271                 1.1621
 Frc consts  --      1.7504                 3.2021                 1.5500
 IR Inten    --      3.1037                12.5525                 6.3858

                     46                     47                     48
                      A                      A                      A
 Frequencies --   1537.1900              1546.9562              1548.7140
 Red. masses --      1.4444                 3.3167                 1.1548
 Frc consts  --      2.0109                 4.6764                 1.6319
 IR Inten    --     11.9533                29.6486                70.8947

                     49                     50                     51
                      A                      A                      A
 Frequencies --   1598.5972              1659.2430              1687.2952
 Red. masses --      5.9035                 6.1002                 5.0331
 Frc consts  --      8.8887                 9.8949                 8.4425
 IR Inten    --     11.5543                36.8472                59.1609

                     52                     53                     54
                      A                      A                      A
 Frequencies --   2997.6347              3082.9430              3107.8847
 Red. masses --      1.0518                 1.0873                 1.0847
 Frc consts  --      5.5683                 6.0890                 6.1728
 IR Inten    --     58.6753                27.5009                55.8963

                     55                     56                     57
                      A                      A                      A
 Frequencies --   3148.4723              3193.5056              3213.6661
 Red. masses --      1.0996                 1.0905                 1.0889
 Frc consts  --      6.4225                 6.5527                 6.6257
 IR Inten    --     16.1259                 9.5580                 3.7451

                     58                     59                     60
                      A                      A                      A
 Frequencies --   3232.6803              3239.7898              3603.0435
 Red. masses --      1.0936                 1.0941                 1.0775
 Frc consts  --      6.7333                 6.7662                 8.2411
 IR Inten    --      4.4706                 1.1399                26.4544

 - Thermochemistry -
 -------------------
 Temperature   298.150 Kelvin.  Pressure   1.00000 Atm.
 Atom     1 has atomic number  6 and mass  12.00000

 Molecular mass:   191.05172 amu.
 Principal axes and moments of inertia in atomic units:
                           1         2         3
     Eigenvalues --   819.290475724.040606524.82177
           X            0.99989   0.01455  -0.00239
           Y           -0.01455   0.99989  -0.00030
           Z            0.00239   0.00034   1.00000
 This molecule is an asymmetric top.
 Rotational symmetry number  1.
 Warning -- assumption of classical behavior for rotation
           may cause significant error
 Rotational temperatures (Kelvin)      0.10572     0.01513     0.01327
 Rotational constants (GHZ):           2.20281     0.31529     0.27660
 Zero-point vibrational energy     446630.7 (Joules/Mol)
                                  106.74731 (Kcal/Mol)
 Warning -- explicit consideration of  16 degrees of freedom as
           vibrations may cause significant error
 Vibrational temperatures:     91.18    92.63   145.94   262.61   290.51
          (Kelvin)            346.00   391.18   425.03   473.88   542.19
                              589.40   636.83   707.92   765.37   776.44
                              830.33   907.32   925.10   975.85  1077.37
                             1087.25  1157.37  1177.04  1235.86  1245.08
                             1250.80  1343.03  1351.12  1416.83  1418.67
                             1535.72  1650.18  1663.51  1714.90  1738.77
                             1777.21  1839.40  1889.88  1921.69  1960.57
                             2028.71  2091.45  2123.21  2152.97  2164.75
                             2211.67  2225.72  2228.25  2300.02  2387.28
                             2427.64  4312.93  4435.67  4471.55  4529.95
                             4594.74  4623.75  4651.11  4661.33  5183.98

 Zero-point correction=                           0.170113 (Hartree/Particle)
 Thermal correction to Energy=                    0.181211
 Thermal correction to Enthalpy=                  0.182155
 Thermal correction to Gibbs Free Energy=         0.132457
 Sum of electronic and zero-point Energies=           -910.661862
 Sum of electronic and thermal Energies=              -910.650763
 Sum of electronic and thermal Enthalpies=            -910.649819
 Sum of electronic and thermal Free Energies=         -910.699517

                     E (Thermal)             CV                S
                      KCal/Mol        Cal/Mol-Kelvin    Cal/Mol-Kelvin
 Total                  113.712             42.926            104.598
 Electronic               0.000              0.000              0.000
 Translational            0.889              2.981             41.648
 Rotational               0.889              2.981             31.793
 Vibrational            111.934             36.964             31.158
 Vibration     1          0.597              1.972              4.349
 Vibration     2          0.597              1.971              4.318
 Vibration     3          0.604              1.948              3.427
 Vibration     4          0.630              1.864              2.302
 Vibration     5          0.639              1.837              2.116
 Vibration     6          0.658              1.778              1.799
 Vibration     7          0.675              1.725              1.584
 Vibration     8          0.690              1.682              1.443
 Vibration     9          0.712              1.617              1.263
 Vibration    10          0.747              1.519              1.052
 Vibration    11          0.774              1.449              0.928
 Vibration    12          0.802              1.377              0.818
 Vibration    13          0.848              1.268              0.678
 Vibration    14          0.887              1.179              0.583
 Vibration    15          0.895              1.162              0.566
 Vibration    16          0.934              1.081              0.491

                           ! Non-Optimized Parameters !
 Normal termination of Gaussian 16 at Wed Dec  9 23:08:24 2020.

 ----------------------------------------------------------------------
 # B3LYP/6-311++G(d,p) empiricaldispersion=gd3bj scf=xqc pop=npa geom=c
 heck
 ----------------------------------------------------------------------

 ---------------------------------------
 CID_119083226_JID_3371_Energie_neutraal
 ---------------------------------------
 Structure from the checkpoint file:  "JID_3371.chk"
 Charge =  0 Multiplicity = 1

 SCF Done:  E(RB3LYP) =  -910.993559098     A.U. after   16 cycles
 Normal termination of Gaussian 16 at Wed Dec  9 23:10:31 2020.

 ----------------------------------------------------------------------
 # B3LYP/6-311++G(d,p) empiricaldispersion=gd3bj scf=xqc pop=npa geom=c
 heck
 ----------------------------------------------------------------------

 -------------------------------------
 CID_119083226_JID_3371_Energie_kation
 -------------------------------------
 Structure from the checkpoint file:  "JID_3371.chk"
 Charge =  1 Multiplicity = 2

 SCF Done:  E(UB3LYP) =  -910.719868120     A.U. after   25 cycles
 Normal termination of Gaussian 16 at Wed Dec  9 23:15:15 2020.
 Gaussian 16:  ES64L-G16RevA.03 25-Dec-2016

 ----------------------------------------------------------------------
 # B3LYP/6-311++G(d,p) empiricaldispersion=gd3bj scf=xqc pop=npa geom=c
 heck
 ----------------------------------------------------------------------

 ------------------------------------
 CID_119083226_JID_3371_Energie_anion
 ------------------------------------
 Structure from the checkpoint file:  "JID_3371.chk"
 Charge = -1 Multiplicity = 2

                         Standard orientation:
 ---------------------------------------------------------------------
 Center     Atomic      Atomic             Coordinates (Angstroms)
 Number     Number       Type             X           Y           Z
 ---------------------------------------------------------------------
      1          6           0       -4.876444   -1.094081    0.158991
      2          7           0       -4.449841    0.262705   -0.137360
      3          7           0       -3.152049    0.641358   -0.050478
      4          6           0       -2.214875   -0.243259   -0.076103
      5          6           0       -0.806338    0.153242   -0.045351
      6          6           0        0.175460   -0.844146   -0.051360
      7          6           0        1.516911   -0.467792   -0.016470
      8          6           0        1.902946    0.893585    0.024062
      9          6           0        0.909788    1.887025    0.028345
     10          6           0       -0.421408    1.516282   -0.006252
     11          7           0        3.270962    1.123029    0.055466
     12          6           0        3.919883    0.006148    0.040497
     13         16           0        2.952837   -1.474904   -0.014042
     14          1           0       -4.567386   -1.778879   -0.638943
     15          1           0       -5.967591   -1.104071    0.209533
     16          1           0       -4.464335   -1.466349    1.111320
     17          1           0       -5.043859    0.992045    0.232640
     18          1           0       -2.413701   -1.316859   -0.129796
     19          1           0       -0.111823   -1.891317   -0.082607
     20          1           0        1.206855    2.930336    0.057499
     21          1           0       -1.204253    2.266126   -0.005773
     22          1           0        5.001661   -0.064230    0.059242
 ---------------------------------------------------------------------

 SCF Done:  E(UB3LYP) =  -910.996500840     A.U. after   33 cycles
 SCF Done:  E(UB3LYP) =  -910.996500840     a.u. after    1 cycles

 The electronic state is 2-A.
 Alpha  occ. eigenvalues --  -88.74199 -14.22560 -14.19282 -14.17977 -10.09054
 Alpha  occ. eigenvalues --  -10.08796 -10.07168 -10.06323 -10.05813 -10.04277
 Alpha  occ. eigenvalues --  -10.04170 -10.03903 -10.03617  -7.82880  -5.79164
 Alpha  occ. eigenvalues --   -5.78845  -5.78452  -0.87604  -0.82729  -0.72631
 Alpha  occ. eigenvalues --   -0.69681  -0.66515  -0.62121  -0.59593  -0.57965
 Alpha  occ. eigenvalues --   -0.50311  -0.47956  -0.44877  -0.42826  -0.40208
 Alpha  occ. eigenvalues --   -0.37667  -0.35302  -0.34489  -0.33970  -0.32725
 Alpha  occ. eigenvalues --   -0.30430  -0.29063  -0.28985  -0.27244  -0.26215
 Alpha  occ. eigenvalues --   -0.25073  -0.24019  -0.21204  -0.20801  -0.17381
 Alpha  occ. eigenvalues --   -0.14713  -0.14320  -0.13829  -0.10962  -0.07871
 Alpha  occ. eigenvalues --    0.04378
 Alpha virt. eigenvalues --    0.06170   0.08812   0.08877   0.09861   0.10608
 Alpha virt. eigenvalues --    0.10873   0.10965   0.11586   0.11946   0.12791
 Alpha virt. eigenvalues --    0.14207   0.14563   0.14624   0.15027   0.15536

  Beta  occ. eigenvalues --  -88.74165 -14.22486 -14.18867 -14.18005 -10.09022
  Beta  occ. eigenvalues --  -10.08407 -10.07142 -10.06187 -10.05831 -10.04201
  Beta  occ. eigenvalues --  -10.04138 -10.03708 -10.03626  -7.82849  -5.79151
  Beta  occ. eigenvalues --   -5.78833  -5.78336  -0.87170  -0.82476  -0.72369
  Beta  occ. eigenvalues --   -0.69406  -0.66337  -0.61803  -0.59329  -0.57803
  Beta  occ. eigenvalues --   -0.49826  -0.47833  -0.44583  -0.42639  -0.40038
  Beta  occ. eigenvalues --   -0.37513  -0.35117  -0.34326  -0.33692  -0.32600
  Beta  occ. eigenvalues --   -0.30347  -0.28935  -0.28287  -0.27090  -0.26080
  Beta  occ. eigenvalues --   -0.24111  -0.23770  -0.20711  -0.20245  -0.16872
  Beta  occ. eigenvalues --   -0.14691  -0.13854  -0.12858  -0.10358  -0.06738
  Beta virt. eigenvalues --    0.06835   0.08828   0.08858   0.09235   0.09885
  Beta virt. eigenvalues --    0.10805   0.10891   0.11275   0.11737   0.12770
  Beta virt. eigenvalues --    0.13323   0.14162   0.14500   0.14705   0.15068

 Mulliken charges and spin densities:
               1          2
     1  C    0.393134  -0.793804
     2  N   -0.190657   0.160799
     3  N   -0.000700   0.159808
     4  C    0.192328   0.037948
     5  C    0.679253  -0.109735
     6  C   -1.128051  -0.042022
     7  C    1.396482   0.177642
     8  C   -1.417161   0.048136
     9  C   -0.881070   0.028203
    10  C    0.115184   0.036709
    11  N    0.000653  -0.028615
    12  C    0.134381   0.284643
    13  S   -0.677205   0.028672
    14  H   -0.019940   0.167397
    15  H   -0.540888   0.685157
    16  H   -0.076272   0.206405
    17  H    0.203602   0.029116
    18  H    0.218977  -0.095060
    19  H    0.080848   0.032608
    20  H    0.139486  -0.001543
    21  H    0.161315   0.006792
    22  H    0.216300  -0.019255
 Sum of Mulliken charges =  -1.00000   1.00000

 Dipole moment (field-independent basis, Debye):
    X=              2.1146    Y=             -1.1039    Z=              0.2465  Tot=              2.3981
 Quadrupole moment (field-independent basis, Debye-Ang):
   XX=           -155.1386   YY=            -99.1437   ZZ=            -97.7555
   XY=             -9.8379   XZ=             -1.6031   YZ=              1.6026

 Summary of Natural Population Analysis:

                                       Natural Population
                Natural  -----------------------------------------------
    Atom  No    Charge         Core      Valence    Rydberg      Total
 -----------------------------------------------------------------------
      C    1   -0.19577      0.99966     2.18764    0.00846     3.19577
      N    2   -0.21379      0.99974     2.69839    0.01566     3.71379
      N    3   -0.07472      0.99966     2.56097    0.01408     3.57472
      C    4   -0.01573      0.99960     2.00265    0.01348     3.01573
      C    5   -0.00796      0.99951     1.99870    0.00974     3.00796
      C    6   -0.09534      0.99948     2.08674    0.00911     3.09534
      C    7   -0.09743      0.99940     2.08856    0.00946     3.09743
      C    8    0.06720      0.99942     1.92046    0.01291     2.93280
      C    9   -0.09420      0.99953     2.08568    0.00899     3.09420
      C   10   -0.09969      0.99955     2.09180    0.00834     3.09969
      N   11   -0.25045      0.99967     2.73810    0.01269     3.75045
      C   12    0.02778      0.99966     1.95550    0.01705     2.97222
      S   13    0.14975      4.99948     2.82980    0.02097     7.85025
      H   14    0.09062      0.00000     0.40777    0.00161     0.40938
      H   15    0.09745      0.00000     0.40098    0.00157     0.40255
      H   16    0.08763      0.00000     0.41029    0.00208     0.41237
      H   17    0.17363      0.00000     0.32295    0.00342     0.32637
      H   18    0.07163      0.00000     0.42617    0.00220     0.42837
      H   19    0.09320      0.00000     0.40482    0.00198     0.40680
      H   20    0.09720      0.00000     0.40106    0.00174     0.40280
      H   21    0.10505      0.00000     0.39381    0.00113     0.39495
      H   22    0.08391      0.00000     0.41468    0.00141     0.41609
 =======================================================================
   * Total *   -0.00000     16.99435    32.82754    0.17810    50.00000

 Normal termination of Gaussian 16 at Wed Dec  9 23:21:26 2020.
