 Gaussian 16, Revision A.03,

 -----------------------------------------------------------
 # opt freq B3LYP/6-31G(d) empiricaldispersion=gd3bj scf=xqc
 -----------------------------------------------------------

 ------------------------------
 CID_82927425_JID_7980_neutraal
 ------------------------------
 Symbolic Z-matrix:
 Charge =  0 Multiplicity = 1

 SCF Done:  E(RB3LYP) =  -716.691715691     A.U. after   14 cycles
 SCF Done:  E(RB3LYP) =  -716.695006871     A.U. after   12 cycles
 SCF Done:  E(RB3LYP) =  -716.693949508     A.U. after   12 cycles
 SCF Done:  E(RB3LYP) =  -716.695687309     A.U. after   12 cycles
 SCF Done:  E(RB3LYP) =  -716.696584078     A.U. after   11 cycles
 SCF Done:  E(RB3LYP) =  -716.697091280     A.U. after   12 cycles
 SCF Done:  E(RB3LYP) =  -716.697286860     A.U. after   11 cycles
 SCF Done:  E(RB3LYP) =  -716.697441205     A.U. after   11 cycles
 SCF Done:  E(RB3LYP) =  -716.697592703     A.U. after   11 cycles
 SCF Done:  E(RB3LYP) =  -716.697718685     A.U. after   11 cycles
 SCF Done:  E(RB3LYP) =  -716.698805474     A.U. after    9 cycles
 SCF Done:  E(RB3LYP) =  -716.698806242     A.U. after    8 cycles
 SCF Done:  E(RB3LYP) =  -716.698806416     A.U. after    8 cycles
 SCF Done:  E(RB3LYP) =  -716.698806527     A.U. after    7 cycles
 SCF Done:  E(RB3LYP) =  -716.698806537     A.U. after    6 cycles
 Optimization completed.
    -- Stationary point found.
 Normal termination of Gaussian 16 at Fri Dec 11 13:56:12 2020.

 --------------------------------------------------------------------
 #N Geom=AllCheck Guess=TCheck SCRF=Check GenChk RB3LYP/6-31G(d) Freq
 --------------------------------------------------------------------

 Structure from the checkpoint file:  "JID_7980.chk"
 ------------------------------
 CID_82927425_JID_7980_neutraal
 ------------------------------
 Charge =  0 Multiplicity = 1

 SCF Done:  E(RB3LYP) =  -716.698806537     A.U. after    1 cycles

  Exact polarizability: 199.299   0.480 179.529   4.816   9.713 122.373
 Approx polarizability: 270.368   3.544 263.340   4.544  23.835 179.184

                      1                      2                      3
                      A                      A                      A
 Frequencies --     24.4948                27.7709                56.7573
 Red. masses --      3.4382                 3.3118                 3.5629
 Frc consts  --      0.0012                 0.0015                 0.0068
 IR Inten    --      0.0104                 0.0424                 0.1640

                      4                      5                      6
                      A                      A                      A
 Frequencies --     63.7807                86.0521                94.6139
 Red. masses --      3.1273                 2.0847                 2.9721
 Frc consts  --      0.0075                 0.0091                 0.0157
 IR Inten    --      0.0914                 0.4271                 0.5543

                      7                      8                      9
                      A                      A                      A
 Frequencies --    103.5925               137.7123               148.1442
 Red. masses --      2.3700                 3.2312                 2.3924
 Frc consts  --      0.0150                 0.0361                 0.0309
 IR Inten    --      0.5176                 2.0966                 0.5690

                     10                     11                     12
                      A                      A                      A
 Frequencies --    165.3895               201.6013               210.7283
 Red. masses --      2.4360                 1.8781                 1.6410
 Frc consts  --      0.0393                 0.0450                 0.0429
 IR Inten    --      1.0676                 0.2226                 0.4092

                     13                     14                     15
                      A                      A                      A
 Frequencies --    221.3927               245.7510               253.0214
 Red. masses --      2.2067                 1.2226                 1.5076
 Frc consts  --      0.0637                 0.0435                 0.0569
 IR Inten    --      0.5095                 0.1707                 0.8427

                     16                     17                     18
                      A                      A                      A
 Frequencies --    258.5913               272.1106               299.6130
 Red. masses --      1.7158                 1.6323                 2.1576
 Frc consts  --      0.0676                 0.0712                 0.1141
 IR Inten    --      1.7645                 0.5295                 3.8606

                     19                     20                     21
                      A                      A                      A
 Frequencies --    323.5253               336.4766               356.9090
 Red. masses --      2.9209                 3.1963                 2.4773
 Frc consts  --      0.1801                 0.2132                 0.1859
 IR Inten    --      1.0690                 1.9065                 0.6366

                     22                     23                     24
                      A                      A                      A
 Frequencies --    410.2036               446.6315               457.0985
 Red. masses --      2.8839                 2.2542                 3.1249
 Frc consts  --      0.2859                 0.2649                 0.3847
 IR Inten    --      2.0996                 3.2589                 1.5034

                     25                     26                     27
                      A                      A                      A
 Frequencies --    499.9818               522.2776               570.2722
 Red. masses --      3.8842                 3.3942                 3.7722
 Frc consts  --      0.5721                 0.5455                 0.7228
 IR Inten    --      1.9440                 4.3412                 4.8949

                     28                     29                     30
                      A                      A                      A
 Frequencies --    592.6274               609.4947               616.5114
 Red. masses --      3.1652                 4.0593                 4.7039
 Frc consts  --      0.6549                 0.8885                 1.0534
 IR Inten    --      0.9210                 5.9853                 5.8940

                     31                     32                     33
                      A                      A                      A
 Frequencies --    749.2691               760.3336               768.7795
 Red. masses --      3.1300                 2.5738                 1.4324
 Frc consts  --      1.0353                 0.8767                 0.4988
 IR Inten    --      2.0906                16.4409                44.2207

                     34                     35                     36
                      A                      A                      A
 Frequencies --    787.8367               797.7637               798.1470
 Red. masses --      1.2906                 1.7097                 1.2397
 Frc consts  --      0.4720                 0.6411                 0.4653
 IR Inten    --      0.8082                50.4219                18.3129

                     37                     38                     39
                      A                      A                      A
 Frequencies --    829.9801               859.9664               868.6231
 Red. masses --      2.8113                 1.6380                 2.0941
 Frc consts  --      1.1410                 0.7137                 0.9309
 IR Inten    --      3.4704                 4.3046                 9.3115

                     40                     41                     42
                      A                      A                      A
 Frequencies --    907.1777               923.7849               948.1860
 Red. masses --      2.3921                 1.5513                 1.2960
 Frc consts  --      1.1599                 0.7800                 0.6865
 IR Inten    --      3.6255                 5.8303                 1.8561

                     43                     44                     45
                      A                      A                      A
 Frequencies --    986.8399               995.0836               997.3947
 Red. masses --      1.2572                 1.8363                 1.3618
 Frc consts  --      0.7213                 1.0713                 0.7982
 IR Inten    --      1.4488                 0.3532                 7.5623

                     46                     47                     48
                      A                      A                      A
 Frequencies --   1015.8248              1041.8561              1057.2330
 Red. masses --      2.2798                 1.6588                 1.9494
 Frc consts  --      1.3860                 1.0609                 1.2838
 IR Inten    --      4.7571                10.5639                 9.0917

                     49                     50                     51
                      A                      A                      A
 Frequencies --   1071.1614              1071.9226              1081.8841
 Red. masses --      2.2734                 2.0269                 2.1317
 Frc consts  --      1.5368                 1.3722                 1.4701
 IR Inten    --      7.4192                 7.5019                37.7320

                     52                     53                     54
                      A                      A                      A
 Frequencies --   1085.1869              1101.8727              1126.5193
 Red. masses --      1.7466                 2.0925                 2.2705
 Frc consts  --      1.2119                 1.4968                 1.6977
 IR Inten    --     29.1624                 2.3952                18.2881

                     55                     56                     57
                      A                      A                      A
 Frequencies --   1139.1917              1156.7621              1177.3450
 Red. masses --      2.5187                 1.4712                 2.2834
 Frc consts  --      1.9259                 1.1598                 1.8648
 IR Inten    --     18.3675                 7.4774                51.5944

                     58                     59                     60
                      A                      A                      A
 Frequencies --   1195.4880              1198.0264              1201.9922
 Red. masses --      1.1752                 1.8431                 1.8367
 Frc consts  --      0.9896                 1.5586                 1.5635
 IR Inten    --      3.8590                 0.7066                 2.1761

                     61                     62                     63
                      A                      A                      A
 Frequencies --   1204.5895              1248.2513              1280.2050
 Red. masses --      1.8706                 1.8614                 1.2318
 Frc consts  --      1.5993                 1.7088                 1.1894
 IR Inten    --      0.4710                14.7461                 4.7843

                     64                     65                     66
                      A                      A                      A
 Frequencies --   1285.8966              1310.7208              1315.2226
 Red. masses --      3.4234                 1.2688                 1.3036
 Frc consts  --      3.3352                 1.2843                 1.3286
 IR Inten    --    224.2362                14.8886                 0.5030

                     67                     68                     69
                      A                      A                      A
 Frequencies --   1319.6928              1334.6517              1349.2951
 Red. masses --      1.5956                 1.1279                 3.4047
 Frc consts  --      1.6372                 1.1837                 3.6521
 IR Inten    --     45.9771                 0.5164                10.0362

                     70                     71                     72
                      A                      A                      A
 Frequencies --   1370.6593              1378.3813              1396.1277
 Red. masses --      1.3372                 1.3413                 1.3866
 Frc consts  --      1.4801                 1.5015                 1.5924
 IR Inten    --     10.0164                 2.7009                 7.5631

                     73                     74                     75
                      A                      A                      A
 Frequencies --   1409.2760              1420.0675              1426.4926
 Red. masses --      1.6397                 1.4869                 1.2522
 Frc consts  --      1.9187                 1.7666                 1.5013
 IR Inten    --     32.2942                 1.1649                 9.5028

                     76                     77                     78
                      A                      A                      A
 Frequencies --   1443.9606              1447.5541              1452.5180
 Red. masses --      1.2321                 1.2495                 1.4283
 Frc consts  --      1.5135                 1.5426                 1.7754
 IR Inten    --      2.4323                 7.6623                13.7765

                     79                     80                     81
                      A                      A                      A
 Frequencies --   1479.7078              1497.8762              1504.3450
 Red. masses --      1.2107                 1.3426                 1.7889
 Frc consts  --      1.5619                 1.7748                 2.3852
 IR Inten    --      0.9791                 2.7050                48.2837

                     82                     83                     84
                      A                      A                      A
 Frequencies --   1515.5336              1519.1966              1519.8189
 Red. masses --      1.0700                 1.0733                 1.0471
 Frc consts  --      1.4480                 1.4594                 1.4250
 IR Inten    --      1.9467                 6.3223                 1.1963

                     85                     86                     87
                      A                      A                      A
 Frequencies --   1524.4560              1528.9149              1531.8549
 Red. masses --      1.1850                 1.0490                 1.0957
 Frc consts  --      1.6225                 1.4447                 1.5149
 IR Inten    --     30.6334                 4.2173                 6.8664

                     88                     89                     90
                      A                      A                      A
 Frequencies --   1533.7645              1535.6708              1536.2064
 Red. masses --      1.0721                 1.1267                 1.1700
 Frc consts  --      1.4859                 1.5656                 1.6268
 IR Inten    --     20.4973                16.4602                33.4602

                     91                     92                     93
                      A                      A                      A
 Frequencies --   1540.9746              1550.8961              1554.5313
 Red. masses --      1.2447                 1.0623                 1.3231
 Frc consts  --      1.7415                 1.5054                 1.8839
 IR Inten    --      7.1362                 5.7870                 7.8849

                     94                     95                     96
                      A                      A                      A
 Frequencies --   1648.7818              1660.5011              2956.5724
 Red. masses --      6.3101                 5.9647                 1.0611
 Frc consts  --     10.1069                 9.6899                 5.4647
 IR Inten    --     12.6841                37.8274                82.3174

                     97                     98                     99
                      A                      A                      A
 Frequencies --   2980.3105              3005.7725              3024.8438
 Red. masses --      1.0811                 1.0561                 1.0710
 Frc consts  --      5.6577                 5.6215                 5.7734
 IR Inten    --     45.1697                31.9106                 6.4487

                    100                    101                    102
                      A                      A                      A
 Frequencies --   3031.0007              3038.4575              3042.5293
 Red. masses --      1.0677                 1.0704                 1.0409
 Frc consts  --      5.7793                 5.8223                 5.6769
 IR Inten    --     46.9391                17.4522                42.1358

                    103                    104                    105
                      A                      A                      A
 Frequencies --   3048.7723              3050.9545              3052.6404
 Red. masses --      1.0932                 1.0447                 1.0434
 Frc consts  --      5.9870                 5.7296                 5.7288
 IR Inten    --     30.8059                26.9243                16.4707

                    106                    107                    108
                      A                      A                      A
 Frequencies --   3065.1793              3070.5365              3086.6467
 Red. masses --      1.0987                 1.0999                 1.0716
 Frc consts  --      6.0818                 6.1100                 6.0150
 IR Inten    --     43.8629                45.5008                36.6854

                    109                    110                    111
                      A                      A                      A
 Frequencies --   3110.6962              3113.4194              3114.2499
 Red. masses --      1.1024                 1.0963                 1.1015
 Frc consts  --      6.2847                 6.2613                 6.2942
 IR Inten    --     47.3653                27.1187                57.0202

                    112                    113                    114
                      A                      A                      A
 Frequencies --   3123.8080              3129.1383              3141.6594
 Red. masses --      1.1019                 1.1039                 1.0996
 Frc consts  --      6.3350                 6.3683                 6.3944
 IR Inten    --     45.1803                32.6917                36.0837

                    115                    116                    117
                      A                      A                      A
 Frequencies --   3147.0247              3184.4195              3200.9998
 Red. masses --      1.1020                 1.0858                 1.0917
 Frc consts  --      6.4305                 6.4875                 6.5905
 IR Inten    --     17.7074                 4.0551                27.1410

                    118                    119                    120
                      A                      A                      A
 Frequencies --   3216.2546              3228.4501              3499.6831
 Red. masses --      1.0929                 1.0919                 1.0743
 Frc consts  --      6.6608                 6.7052                 7.7521
 IR Inten    --     14.6246                12.8336                 1.6701

 - Thermochemistry -
 -------------------
 Temperature   298.150 Kelvin.  Pressure   1.00000 Atm.
 Atom     1 has atomic number  6 and mass  12.00000

 Molecular mass:   235.19361 amu.
 Principal axes and moments of inertia in atomic units:
                           1         2         3
     Eigenvalues --  2749.602486522.721108055.06926
           X            0.99988  -0.01564  -0.00087
           Y            0.01563   0.99986  -0.00646
           Z            0.00097   0.00645   0.99998
 This molecule is an asymmetric top.
 Rotational symmetry number  1.
 Warning -- assumption of classical behavior for rotation
           may cause significant error
 Rotational temperatures (Kelvin)      0.03150     0.01328     0.01075
 Rotational constants (GHZ):           0.65636     0.27669     0.22405
 Zero-point vibrational energy     996221.2 (Joules/Mol)
                                  238.10257 (Kcal/Mol)
 Warning -- explicit consideration of  30 degrees of freedom as
           vibrations may cause significant error
 Vibrational temperatures:     35.24    39.96    81.66    91.77   123.81
          (Kelvin)            136.13   149.05   198.14   213.15   237.96
                              290.06   303.19   318.53   353.58   364.04
                              372.06   391.51   431.08   465.48   484.11
                              513.51   590.19   642.60   657.66   719.36
                              751.44   820.49   852.66   876.93   887.02
                             1078.03  1093.95  1106.10  1133.52  1147.80
                             1148.36  1194.16  1237.30  1249.75  1305.23
                             1329.12  1364.23  1419.84  1431.70  1435.03
                             1461.55  1499.00  1521.12  1541.16  1542.26
                             1556.59  1561.34  1585.35  1620.81  1639.04
                             1664.32  1693.94  1720.04  1723.69  1729.40
                             1733.14  1795.96  1841.93  1850.12  1885.83
                             1892.31  1898.74  1920.27  1941.33  1972.07
                             1983.18  2008.72  2027.63  2043.16  2052.40
                             2077.54  2082.71  2089.85  2128.97  2155.11
                             2164.42  2180.51  2185.79  2186.68  2193.35
                             2199.77  2204.00  2206.75  2209.49  2210.26
                             2217.12  2231.39  2236.62  2372.23  2389.09
                             4253.85  4288.00  4324.64  4352.08  4360.93
                             4371.66  4377.52  4386.50  4389.64  4392.07
                             4410.11  4417.82  4441.00  4475.60  4479.52
                             4480.71  4494.46  4502.13  4520.15  4527.87
                             4581.67  4605.52  4627.47  4645.02  5035.26

 Zero-point correction=                           0.379441 (Hartree/Particle)
 Thermal correction to Energy=                    0.398385
 Thermal correction to Enthalpy=                  0.399329
 Thermal correction to Gibbs Free Energy=         0.331409
 Sum of electronic and zero-point Energies=           -716.319366
 Sum of electronic and thermal Energies=              -716.300422
 Sum of electronic and thermal Enthalpies=            -716.299477
 Sum of electronic and thermal Free Energies=         -716.367398

                     E (Thermal)             CV                S
                      KCal/Mol        Cal/Mol-Kelvin    Cal/Mol-Kelvin
 Total                  249.990             71.002            142.951
 Electronic               0.000              0.000              0.000
 Translational            0.889              2.981             42.267
 Rotational               0.889              2.981             33.335
 Vibrational            248.213             65.040             67.349
 Vibration     1          0.593              1.985              6.232
 Vibration     2          0.593              1.984              5.983
 Vibration     3          0.596              1.975              4.567
 Vibration     4          0.597              1.972              4.337
 Vibration     5          0.601              1.959              3.748
 Vibration     6          0.603              1.953              3.562
 Vibration     7          0.605              1.946              3.386
 Vibration     8          0.614              1.916              2.835
 Vibration     9          0.618              1.905              2.696
 Vibration    10          0.624              1.885              2.487
 Vibration    11          0.638              1.838              2.118
 Vibration    12          0.643              1.824              2.037
 Vibration    13          0.648              1.809              1.948
 Vibration    14          0.660              1.770              1.761
 Vibration    15          0.664              1.758              1.709
 Vibration    16          0.667              1.748              1.671
 Vibration    17          0.675              1.725              1.583
 Vibration    18          0.692              1.674              1.419
 Vibration    19          0.708              1.628              1.292
 Vibration    20          0.717              1.603              1.229
 Vibration    21          0.732              1.561              1.136
 Vibration    22          0.774              1.448              0.926
 Vibration    23          0.806              1.368              0.806
 Vibration    24          0.815              1.345              0.775
 Vibration    25          0.855              1.250              0.658
 Vibration    26          0.877              1.201              0.605
 Vibration    27          0.926              1.096              0.504
 Vibration    28          0.950              1.047              0.463
 Vibration    29          0.968              1.012              0.434
 Vibration    30          0.976              0.997              0.422

 Optimization completed.
    -- Stationary point found.
 Normal termination of Gaussian 16 at Fri Dec 11 14:16:27 2020.

 ----------------------------------------------------------------------
 # B3LYP/6-311++G(d,p) empiricaldispersion=gd3bj scf=xqc pop=npa geom=c
 heck
 ----------------------------------------------------------------------

 --------------------------------------
 CID_82927425_JID_7980_Energie_neutraal
 --------------------------------------
 Structure from the checkpoint file:  "JID_7980.chk"
 Charge =  0 Multiplicity = 1

 SCF Done:  E(RB3LYP) =  -716.896815041     A.U. after   14 cycles
 Normal termination of Gaussian 16 at Fri Dec 11 14:25:48 2020.

 ----------------------------------------------------------------------
 # B3LYP/6-311++G(d,p) empiricaldispersion=gd3bj scf=xqc pop=npa geom=c
 heck
 ----------------------------------------------------------------------

 ------------------------------------
 CID_82927425_JID_7980_Energie_kation
 ------------------------------------
 Structure from the checkpoint file:  "JID_7980.chk"
 Charge =  1 Multiplicity = 2

 SCF Done:  E(UB3LYP) =  -716.615077238     A.U. after   23 cycles
 Normal termination of Gaussian 16 at Fri Dec 11 14:47:32 2020.
 Gaussian 16:  ES64L-G16RevA.03 25-Dec-2016

 ----------------------------------------------------------------------
 # B3LYP/6-311++G(d,p) empiricaldispersion=gd3bj scf=xqc pop=npa geom=c
 heck
 ----------------------------------------------------------------------

 -----------------------------------
 CID_82927425_JID_7980_Energie_anion
 -----------------------------------
 Structure from the checkpoint file:  "JID_7980.chk"
 Charge = -1 Multiplicity = 2

                         Standard orientation:
 ---------------------------------------------------------------------
 Center     Atomic      Atomic             Coordinates (Angstroms)
 Number     Number       Type             X           Y           Z
 ---------------------------------------------------------------------
      1          6           0       -1.662261   -2.211202    1.166460
      2          6           0       -2.939369   -1.449784    0.796635
      3          6           0       -2.813684   -0.491355   -0.402642
      4          6           0       -4.183290    0.083325   -0.822178
      5          6           0       -4.847778    1.011029    0.202637
      6          6           0       -1.811521    0.640202   -0.163821
      7          8           0       -0.496869    0.124869   -0.348577
      8          6           0        0.574080    0.935442   -0.079800
      9          6           0        0.458193    2.283480    0.271278
     10          6           0        1.610323    3.038098    0.508066
     11          6           0        2.868548    2.454961    0.394809
     12          6           0        2.971679    1.106029    0.045293
     13          6           0        1.840149    0.327521   -0.189653
     14          6           0        1.951305   -1.132743   -0.602049
     15          6           0        1.882000   -1.258646   -2.129579
     16          7           0        3.206011   -1.716814   -0.118270
     17          6           0        3.190845   -1.997852    1.313687
     18          1           0       -1.265917   -2.758200    0.303131
     19          1           0       -1.865196   -2.937073    1.962269
     20          1           0       -0.873882   -1.538309    1.513168
     21          1           0       -3.733262   -2.173588    0.566603
     22          1           0       -3.287452   -0.887369    1.673584
     23          1           0       -2.427109   -1.065013   -1.256849
     24          1           0       -4.058579    0.628200   -1.767666
     25          1           0       -4.857820   -0.754968   -1.038847
     26          1           0       -4.228429    1.889980    0.416550
     27          1           0       -5.810291    1.374023   -0.173694
     28          1           0       -5.037326    0.499408    1.152042
     29          1           0       -1.981623    1.463203   -0.873605
     30          1           0       -1.911663    1.047798    0.851973
     31          1           0       -0.515420    2.751263    0.355159
     32          1           0        1.511696    4.085431    0.780276
     33          1           0        3.764788    3.040711    0.577097
     34          1           0        3.939741    0.623595   -0.044120
     35          1           0        1.081293   -1.664901   -0.182346
     36          1           0        1.905085   -2.312569   -2.436403
     37          1           0        0.954413   -0.816297   -2.502211
     38          1           0        2.730474   -0.742024   -2.590057
     39          1           0        3.368782   -2.583432   -0.626127
     40          1           0        2.335000   -2.618767    1.637985
     41          1           0        4.117354   -2.508180    1.595827
     42          1           0        3.142906   -1.055196    1.867907
 ---------------------------------------------------------------------

 SCF Done:  E(UB3LYP) =  -716.883188882     A.U. after   33 cycles
 SCF Done:  E(UB3LYP) =  -716.883188882     a.u. after    1 cycles

 The electronic state is 2-A.
 Alpha  occ. eigenvalues --  -19.05992 -14.20857 -10.14349 -10.13046 -10.11081
 Alpha  occ. eigenvalues --  -10.09550 -10.08649 -10.08535 -10.08254 -10.08220
 Alpha  occ. eigenvalues --  -10.08010 -10.07951 -10.07422 -10.07143 -10.07010
 Alpha  occ. eigenvalues --  -10.06429 -10.06100  -0.97743  -0.82138  -0.76459
 Alpha  occ. eigenvalues --   -0.72802  -0.68650  -0.65875  -0.65590  -0.64198
 Alpha  occ. eigenvalues --   -0.61506  -0.57041  -0.56714  -0.54235  -0.51987
 Alpha  occ. eigenvalues --   -0.50641  -0.48692  -0.46027  -0.44383  -0.40797
 Alpha  occ. eigenvalues --   -0.39779  -0.39246  -0.37935  -0.36630  -0.35973
 Alpha  occ. eigenvalues --   -0.35213  -0.34889  -0.34385  -0.33287  -0.32377
 Alpha  occ. eigenvalues --   -0.31954  -0.30715  -0.30205  -0.29538  -0.28967
 Alpha  occ. eigenvalues --   -0.28223  -0.27936  -0.27466  -0.26696  -0.26297
 Alpha  occ. eigenvalues --   -0.25772  -0.25158  -0.24066  -0.23363  -0.22978
 Alpha  occ. eigenvalues --   -0.22171  -0.21567  -0.16183  -0.14287  -0.13387
 Alpha  occ. eigenvalues --    0.04073
 Alpha virt. eigenvalues --    0.05566   0.06227   0.06961   0.07331   0.07401
 Alpha virt. eigenvalues --    0.07737   0.08235   0.08603   0.08971   0.09287
 Alpha virt. eigenvalues --    0.09946   0.10092   0.10501   0.10778   0.11498

  Beta  occ. eigenvalues --  -19.05986 -14.20841 -10.14350 -10.13027 -10.11079
  Beta  occ. eigenvalues --  -10.09533 -10.08640 -10.08533 -10.08243 -10.08217
  Beta  occ. eigenvalues --  -10.08007 -10.07947 -10.07402 -10.07125 -10.06994
  Beta  occ. eigenvalues --  -10.06392 -10.06084  -0.97730  -0.82118  -0.76447
  Beta  occ. eigenvalues --   -0.72777  -0.68631  -0.65847  -0.65565  -0.64175
  Beta  occ. eigenvalues --   -0.61475  -0.56996  -0.56667  -0.54206  -0.51919
  Beta  occ. eigenvalues --   -0.50616  -0.48666  -0.45979  -0.44361  -0.40777
  Beta  occ. eigenvalues --   -0.39755  -0.39227  -0.37898  -0.36599  -0.35950
  Beta  occ. eigenvalues --   -0.35180  -0.34871  -0.34363  -0.33259  -0.32357
  Beta  occ. eigenvalues --   -0.31925  -0.30691  -0.30182  -0.29510  -0.28944
  Beta  occ. eigenvalues --   -0.28183  -0.27906  -0.27440  -0.26673  -0.26265
  Beta  occ. eigenvalues --   -0.25753  -0.25131  -0.24046  -0.23330  -0.22955
  Beta  occ. eigenvalues --   -0.22139  -0.21544  -0.16165  -0.14266  -0.13376
  Beta virt. eigenvalues --    0.05947   0.06495   0.06653   0.07270   0.07455
  Beta virt. eigenvalues --    0.07864   0.08137   0.08525   0.08715   0.09106
  Beta virt. eigenvalues --    0.09696   0.10144   0.10383   0.10843   0.10999

 Mulliken charges and spin densities:
               1          2
     1  C    0.291617  -0.894262
     2  C   -0.051827  -0.237882
     3  C   -0.515025   1.184682
     4  C   -0.545163   0.073631
     5  C    0.893965  -1.456329
     6  C    0.358505  -1.166388
     7  O    0.030696   0.002837
     8  C    0.437920  -0.219111
     9  C    0.115919  -0.219163
    10  C   -0.165336  -0.244206
    11  C   -0.230679  -0.241294
    12  C   -0.508828   0.210572
    13  C    0.518924  -0.062811
    14  C   -0.776844   0.549403
    15  C    0.124324  -0.799146
    16  N   -0.040210  -0.005785
    17  C    0.014685  -0.418568
    18  H   -0.144151   0.286957
    19  H   -0.217832   0.367267
    20  H    0.239536  -0.074776
    21  H   -0.101098   0.247598
    22  H   -0.015255   0.127474
    23  H   -0.079049   0.279477
    24  H   -0.167451   0.303762
    25  H   -0.220713   0.384136
    26  H   -0.246211   0.391585
    27  H   -0.482542   0.636254
    28  H   -0.174542   0.317877
    29  H    0.145901   0.055220
    30  H    0.137678   0.064021
    31  H   -0.259726   0.425131
    32  H   -0.145007   0.310558
    33  H    0.053219   0.093024
    34  H    0.219834  -0.010448
    35  H    0.732259  -0.567277
    36  H   -0.257324   0.386884
    37  H    0.142232   0.021528
    38  H    0.056766   0.089751
    39  H    0.028235   0.205599
    40  H   -0.095164   0.222148
    41  H   -0.181343   0.322816
    42  H    0.079106   0.057254
 Sum of Mulliken charges =  -1.00000   1.00000

 Dipole moment (field-independent basis, Debye):
    X=              5.1386    Y=              0.7536    Z=              0.1544  Tot=              5.1959
 Quadrupole moment (field-independent basis, Debye-Ang):
   XX=           -206.2953   YY=           -164.5705   ZZ=           -142.2362
   XY=             11.5867   XZ=              0.4674   YZ=             -0.1353

 Summary of Natural Population Analysis:

                                       Natural Population
                Natural  -----------------------------------------------
    Atom  No    Charge         Core      Valence    Rydberg      Total
 -----------------------------------------------------------------------
      C    1   -0.28441      0.99966     2.27858    0.00617     3.28441
      C    2   -0.18775      0.99962     2.18038    0.00775     3.18775
      C    3   -0.11869      0.99958     2.10825    0.01086     3.11869
      C    4   -0.18528      0.99962     2.17647    0.00919     3.18528
      C    5   -0.28891      0.99967     2.28405    0.00519     3.28891
      C    6   -0.01022      0.99952     1.99865    0.01205     3.01022
      O    7   -0.28008      0.99985     3.27075    0.00948     4.28008
      C    8    0.16573      0.99933     1.82265    0.01229     2.83427
      C    9   -0.14152      0.99952     2.13308    0.00891     3.14152
      C   10   -0.09705      0.99957     2.08723    0.01025     3.09705
      C   11   -0.11784      0.99956     2.10896    0.00932     3.11784
      C   12   -0.09677      0.99952     2.08856    0.00869     3.09677
      C   13   -0.03419      0.99945     2.02362    0.01112     3.03419
      C   14   -0.02218      0.99957     2.00979    0.01282     3.02218
      C   15   -0.28171      0.99964     2.27631    0.00577     3.28171
      N   16   -0.34006      0.99974     2.82846    0.01187     3.84006
      C   17   -0.18127      0.99966     2.17323    0.00839     3.18127
      H   18    0.09690      0.00000     0.40181    0.00129     0.40310
      H   19    0.09566      0.00000     0.40347    0.00087     0.40434
      H   20    0.09979      0.00000     0.39881    0.00140     0.40021
      H   21    0.09621      0.00000     0.40253    0.00126     0.40379
      H   22    0.09381      0.00000     0.40493    0.00126     0.40619
      H   23    0.10073      0.00000     0.39727    0.00200     0.39927
      H   24    0.09569      0.00000     0.40319    0.00112     0.40431
      H   25    0.09749      0.00000     0.40120    0.00130     0.40251
      H   26    0.09640      0.00000     0.40226    0.00134     0.40360
      H   27    0.10157      0.00000     0.39715    0.00128     0.39843
      H   28    0.09705      0.00000     0.40170    0.00125     0.40295
      H   29    0.08775      0.00000     0.41072    0.00154     0.41225
      H   30    0.08654      0.00000     0.41186    0.00160     0.41346
      H   31    0.10747      0.00000     0.39085    0.00167     0.39253
      H   32    0.09978      0.00000     0.39940    0.00082     0.40022
      H   33    0.09837      0.00000     0.40090    0.00073     0.40163
      H   34    0.11106      0.00000     0.38770    0.00124     0.38894
      H   35    0.09465      0.00000     0.40242    0.00294     0.40535
      H   36    0.09683      0.00000     0.40210    0.00107     0.40317
      H   37    0.10666      0.00000     0.39232    0.00102     0.39334
      H   38    0.09916      0.00000     0.39981    0.00104     0.40084
      H   39    0.17370      0.00000     0.32333    0.00297     0.32630
      H   40    0.08118      0.00000     0.41719    0.00163     0.41882
      H   41    0.09318      0.00000     0.40602    0.00080     0.40682
      H   42    0.09462      0.00000     0.40425    0.00113     0.40538
 =======================================================================
   * Total *    0.00000     16.99309    47.81222    0.19469    65.00000

 Normal termination of Gaussian 16 at Fri Dec 11 15:18:47 2020.
