 Gaussian 16, Revision A.03,

 -----------------------------------------------------------
 # opt freq B3LYP/6-31G(d) empiricaldispersion=gd3bj scf=xqc
 -----------------------------------------------------------

 -------------------------------
 CID_61524897_JID_10617_neutraal
 -------------------------------
 Symbolic Z-matrix:
 Charge =  0 Multiplicity = 1

 SCF Done:  E(RB3LYP) =  -879.266509980     A.U. after   15 cycles
 SCF Done:  E(RB3LYP) =  -879.268984256     A.U. after   14 cycles
 SCF Done:  E(RB3LYP) =  -879.268060200     A.U. after   15 cycles
 SCF Done:  E(RB3LYP) =  -879.272951989     A.U. after   13 cycles
 SCF Done:  E(RB3LYP) =  -879.273294832     A.U. after   13 cycles
 SCF Done:  E(RB3LYP) =  -879.275017383     A.U. after   15 cycles
 SCF Done:  E(RB3LYP) =  -879.275788300     A.U. after   13 cycles
 SCF Done:  E(RB3LYP) =  -879.276029649     A.U. after   12 cycles
 SCF Done:  E(RB3LYP) =  -879.276485881     A.U. after   12 cycles
 SCF Done:  E(RB3LYP) =  -879.276854993     A.U. after   12 cycles
 SCF Done:  E(RB3LYP) =  -879.288134774     A.U. after    9 cycles
 SCF Done:  E(RB3LYP) =  -879.288135914     A.U. after    9 cycles
 SCF Done:  E(RB3LYP) =  -879.288136333     A.U. after    8 cycles
 SCF Done:  E(RB3LYP) =  -879.288136806     A.U. after    8 cycles
 SCF Done:  E(RB3LYP) =  -879.288136825     A.U. after    7 cycles
 Optimization completed.
    -- Stationary point found.
 Normal termination of Gaussian 16 at Mon Dec 14 14:51:25 2020.

 --------------------------------------------------------------------
 #N Geom=AllCheck Guess=TCheck SCRF=Check GenChk RB3LYP/6-31G(d) Freq
 --------------------------------------------------------------------

 Structure from the checkpoint file:  "JID_10617.chk"
 -------------------------------
 CID_61524897_JID_10617_neutraal
 -------------------------------
 Charge =  0 Multiplicity = 1

 SCF Done:  E(RB3LYP) =  -879.288136825     A.U. after    1 cycles

  Exact polarizability: 224.447  27.441 193.947  28.233 -14.140 121.508
 Approx polarizability: 346.210  58.997 325.343  56.362 -32.583 193.495

                      1                      2                      3
                      A                      A                      A
 Frequencies --     21.9774                51.2069                63.2259
 Red. masses --      4.9511                 6.4444                 4.5205
 Frc consts  --      0.0014                 0.0100                 0.0106
 IR Inten    --      1.2338                 2.2433                 2.4715

                      4                      5                      6
                      A                      A                      A
 Frequencies --     64.0350                76.0377                83.1170
 Red. masses --      5.3916                 4.0824                 3.6408
 Frc consts  --      0.0130                 0.0139                 0.0148
 IR Inten    --      1.0330                 0.8583                 1.9657

                      7                      8                      9
                      A                      A                      A
 Frequencies --    108.3310               124.0032               148.1569
 Red. masses --      4.8715                 3.7088                 1.4747
 Frc consts  --      0.0337                 0.0336                 0.0191
 IR Inten    --      1.1998                 0.2314                 2.2220

                     10                     11                     12
                      A                      A                      A
 Frequencies --    155.2564               168.7378               198.5306
 Red. masses --      4.3883                 4.4779                 4.9316
 Frc consts  --      0.0623                 0.0751                 0.1145
 IR Inten    --      1.9131                 1.6665                 2.1205

                     13                     14                     15
                      A                      A                      A
 Frequencies --    225.0630               244.2161               263.1321
 Red. masses --      2.1342                 3.7224                 3.9642
 Frc consts  --      0.0637                 0.1308                 0.1617
 IR Inten    --      2.8760                 6.4793                 3.8113

                     16                     17                     18
                      A                      A                      A
 Frequencies --    299.9546               325.3384               349.5278
 Red. masses --      4.1520                 3.2221                 4.5199
 Frc consts  --      0.2201                 0.2009                 0.3253
 IR Inten    --      1.1843                 2.7880                 2.1444

                     19                     20                     21
                      A                      A                      A
 Frequencies --    363.8413               397.6658               448.9536
 Red. masses --      3.9222                 4.6214                 4.1874
 Frc consts  --      0.3059                 0.4306                 0.4973
 IR Inten    --      1.0009                 0.9158                19.8296

                     22                     23                     24
                      A                      A                      A
 Frequencies --    468.3176               474.3904               517.2713
 Red. masses --      1.3051                 2.4363                 4.9389
 Frc consts  --      0.1686                 0.3230                 0.7786
 IR Inten    --     76.3647                13.5718                 8.3835

                     25                     26                     27
                      A                      A                      A
 Frequencies --    547.1800               557.2689               587.7635
 Red. masses --      4.7360                 6.6097                 6.1305
 Frc consts  --      0.8355                 1.2094                 1.2478
 IR Inten    --     12.0382                 0.3814                15.2056

                     28                     29                     30
                      A                      A                      A
 Frequencies --    610.6515               615.1850               621.9023
 Red. masses --      4.2838                 2.4281                 3.4647
 Frc consts  --      0.9412                 0.5414                 0.7895
 IR Inten    --      2.0684                48.6462                 6.4657

                     31                     32                     33
                      A                      A                      A
 Frequencies --    656.5880               710.8129               717.1649
 Red. masses --      3.2681                 3.8872                 2.7557
 Frc consts  --      0.8301                 1.1572                 0.8351
 IR Inten    --     19.2098                12.1319                12.8137

                     34                     35                     36
                      A                      A                      A
 Frequencies --    719.5732               736.8450               766.0295
 Red. masses --      3.5780                 1.3447                 4.1485
 Frc consts  --      1.0915                 0.4302                 1.4343
 IR Inten    --      7.4972                47.7468                 1.8337

                     37                     38                     39
                      A                      A                      A
 Frequencies --    774.7095               779.7786               814.7435
 Red. masses --      1.4666                 2.6606                 1.6357
 Frc consts  --      0.5186                 0.9532                 0.6397
 IR Inten    --     18.3437                80.8555                 9.0860

                     40                     41                     42
                      A                      A                      A
 Frequencies --    831.8117               876.4573               885.2807
 Red. masses --      4.1862                 1.2752                 1.3808
 Frc consts  --      1.7065                 0.5771                 0.6376
 IR Inten    --      5.1481                 1.7556                 0.7988

                     43                     44                     45
                      A                      A                      A
 Frequencies --    912.0935               949.4225               969.9958
 Red. masses --      4.9886                 1.4233                 3.6287
 Frc consts  --      2.4452                 0.7559                 2.0116
 IR Inten    --      3.2228                 1.0808                15.9353

                     46                     47                     48
                      A                      A                      A
 Frequencies --    973.1909               989.2503              1006.3666
 Red. masses --      2.2993                 1.2693                 1.6607
 Frc consts  --      1.2830                 0.7319                 0.9909
 IR Inten    --     18.3047                 0.0461                12.7189

                     49                     50                     51
                      A                      A                      A
 Frequencies --   1034.5413              1066.3725              1076.2421
 Red. masses --      1.4635                 5.9951                 2.2080
 Frc consts  --      0.9229                 4.0166                 1.5068
 IR Inten    --      2.5932                62.4018                15.8725

                     52                     53                     54
                      A                      A                      A
 Frequencies --   1085.6202              1091.3754              1124.0954
 Red. masses --      1.8844                 2.4656                 1.2636
 Frc consts  --      1.3085                 1.7303                 0.9407
 IR Inten    --      4.8675                24.2703                 9.4569

                     55                     56                     57
                      A                      A                      A
 Frequencies --   1145.4332              1160.7435              1169.5159
 Red. masses --      2.1920                 1.6914                 1.9871
 Frc consts  --      1.6944                 1.3427                 1.6013
 IR Inten    --      2.1255                 9.8300                45.0054

                     58                     59                     60
                      A                      A                      A
 Frequencies --   1197.7817              1225.1829              1244.1183
 Red. masses --      1.0965                 2.2002                 1.0724
 Frc consts  --      0.9268                 1.9459                 0.9780
 IR Inten    --      0.7988                 3.7554                 3.6220

                     61                     62                     63
                      A                      A                      A
 Frequencies --   1247.7735              1271.5705              1293.6653
 Red. masses --      1.7072                 1.5502                 3.3752
 Frc consts  --      1.5660                 1.4768                 3.3280
 IR Inten    --     88.3274                32.6227                22.8964

                     64                     65                     66
                      A                      A                      A
 Frequencies --   1314.1329              1323.4793              1343.5694
 Red. masses --      1.8371                 2.9763                 3.2454
 Frc consts  --      1.8692                 3.0716                 3.4518
 IR Inten    --      3.9198                14.5259                34.0360

                     67                     68                     69
                      A                      A                      A
 Frequencies --   1373.9581              1389.3218              1412.6761
 Red. masses --      2.7209                 1.2491                 1.8565
 Frc consts  --      3.0263                 1.4205                 2.1829
 IR Inten    --    116.6371                16.5112                18.1891

                     70                     71                     72
                      A                      A                      A
 Frequencies --   1418.4734              1449.6711              1465.4177
 Red. masses --      2.8503                 1.2446                 1.9931
 Frc consts  --      3.3789                 1.5410                 2.5218
 IR Inten    --     33.1707                42.0986                52.3864

                     73                     74                     75
                      A                      A                      A
 Frequencies --   1474.6635              1478.5563              1496.1252
 Red. masses --      2.2913                 1.4982                 2.1546
 Frc consts  --      2.9357                 1.9297                 2.8416
 IR Inten    --     33.4021                25.1819                 4.5940

                     76                     77                     78
                      A                      A                      A
 Frequencies --   1511.2307              1519.1324              1520.7641
 Red. masses --      1.1678                 1.0977                 1.1559
 Frc consts  --      1.5714                 1.4925                 1.5750
 IR Inten    --      5.7100                 4.2196                17.0622

                     79                     80                     81
                      A                      A                      A
 Frequencies --   1530.5440              1536.0958              1541.0133
 Red. masses --      1.9213                 2.2119                 1.1361
 Frc consts  --      2.6518                 3.0751                 1.5896
 IR Inten    --     31.7174                24.6825                 6.4400

                     82                     83                     84
                      A                      A                      A
 Frequencies --   1592.6151              1625.7275              1661.8470
 Red. masses --      4.4893                 5.6025                 5.6735
 Frc consts  --      6.7089                 8.7242                 9.2318
 IR Inten    --     34.5222                 0.1605                 0.4251

                     85                     86                     87
                      A                      A                      A
 Frequencies --   1773.3026              2340.6175              2989.1384
 Red. masses --      8.4803                11.9114                 1.0717
 Frc consts  --     15.7118                38.4480                 5.6417
 IR Inten    --    398.9321                 1.2613                57.6986

                     88                     89                     90
                      A                      A                      A
 Frequencies --   3035.1710              3068.4379              3084.4902
 Red. masses --      1.0730                 1.0425                 1.0896
 Frc consts  --      5.8238                 5.7833                 6.1076
 IR Inten    --     29.4054                40.1191                30.0127

                     91                     92                     93
                      A                      A                      A
 Frequencies --   3142.4898              3149.6671              3186.2308
 Red. masses --      1.0990                 1.0902                 1.0860
 Frc consts  --      6.3943                 6.3722                 6.4961
 IR Inten    --     14.6594                 1.1597                 3.2282

                     94                     95                     96
                      A                      A                      A
 Frequencies --   3196.6221              3204.0992              3208.4973
 Red. masses --      1.0890                 1.1002                 1.0932
 Frc consts  --      6.5561                 6.6549                 6.6307
 IR Inten    --      8.2311                 0.8537                21.3541

                     97                     98                     99
                      A                      A                      A
 Frequencies --   3218.8189              3254.0260              3274.1497
 Red. masses --      1.0969                 1.0898                 1.0959
 Frc consts  --      6.6958                 6.7992                 6.9215
 IR Inten    --     17.5498                 2.1524                 0.5349

                    100                    101                    102
                      A                      A                      A
 Frequencies --   3280.3714              3577.7455              3653.9633
 Red. masses --      1.1037                 1.0754                 1.0666
 Frc consts  --      6.9977                 8.1106                 8.3900
 IR Inten    --      0.4691                20.8059               252.3769

 - Thermochemistry -
 -------------------
 Temperature   298.150 Kelvin.  Pressure   1.00000 Atm.
 Atom     1 has atomic number  6 and mass  12.00000

 Molecular mass:   268.12118 amu.
 Principal axes and moments of inertia in atomic units:
                           1         2         3
     Eigenvalues --  4244.496455669.674098318.46583
           X            0.99891   0.04596   0.00764
           Y           -0.04598   0.99894   0.00216
           Z           -0.00753  -0.00251   0.99997
 This molecule is an asymmetric top.
 Rotational symmetry number  1.
 Warning -- assumption of classical behavior for rotation
           may cause significant error
 Rotational temperatures (Kelvin)      0.02041     0.01528     0.01041
 Rotational constants (GHZ):           0.42520     0.31831     0.21696
 Zero-point vibrational energy     767411.8 (Joules/Mol)
                                  183.41583 (Kcal/Mol)
 Warning -- explicit consideration of  29 degrees of freedom as
           vibrations may cause significant error
 Vibrational temperatures:     31.62    73.68    90.97    92.13   109.40
          (Kelvin)            119.59   155.86   178.41   213.16   223.38
                              242.78   285.64   323.82   351.37   378.59
                              431.57   468.09   502.89   523.49   572.15
                              645.94   673.80   682.54   744.24   787.27
                              801.79   845.66   878.59   885.11   894.78
                              944.68  1022.70  1031.84  1035.31  1060.16
                             1102.15  1114.63  1121.93  1172.23  1196.79
                             1261.03  1273.72  1312.30  1366.01  1395.61
                             1400.20  1423.31  1447.94  1488.47  1534.27
                             1548.47  1561.97  1570.25  1617.32  1648.02
                             1670.05  1682.67  1723.34  1762.76  1790.01
                             1795.27  1829.51  1861.30  1890.74  1904.19
                             1933.10  1976.82  1998.92  2032.53  2040.87
                             2085.75  2108.41  2121.71  2127.31  2152.59
                             2174.32  2185.69  2188.04  2202.11  2210.10
                             2217.17  2291.42  2339.06  2391.03  2551.39
                             3367.63  4300.70  4366.93  4414.80  4437.89
                             4521.34  4531.67  4584.28  4599.23  4609.98
                             4616.31  4631.16  4681.82  4710.77  4719.72
                             5147.58  5257.24

 Zero-point correction=                           0.292292 (Hartree/Particle)
 Thermal correction to Energy=                    0.310911
 Thermal correction to Enthalpy=                  0.311855
 Thermal correction to Gibbs Free Energy=         0.244479
 Sum of electronic and zero-point Energies=           -878.995845
 Sum of electronic and thermal Energies=              -878.977226
 Sum of electronic and thermal Enthalpies=            -878.976282
 Sum of electronic and thermal Free Energies=         -879.043658

                     E (Thermal)             CV                S
                      KCal/Mol        Cal/Mol-Kelvin    Cal/Mol-Kelvin
 Total                  195.100             70.249            141.806
 Electronic               0.000              0.000              0.000
 Translational            0.889              2.981             42.658
 Rotational               0.889              2.981             33.659
 Vibrational            193.322             64.287             65.489
 Vibration     1          0.593              1.985              6.447
 Vibration     2          0.595              1.977              4.770
 Vibration     3          0.597              1.972              4.354
 Vibration     4          0.597              1.971              4.329
 Vibration     5          0.599              1.965              3.991
 Vibration     6          0.600              1.961              3.816
 Vibration     7          0.606              1.943              3.299
 Vibration     8          0.610              1.929              3.037
 Vibration     9          0.618              1.905              2.696
 Vibration    10          0.620              1.897              2.607
 Vibration    11          0.625              1.881              2.449
 Vibration    12          0.637              1.842              2.147
 Vibration    13          0.650              1.803              1.918
 Vibration    14          0.660              1.772              1.772
 Vibration    15          0.670              1.740              1.641
 Vibration    16          0.692              1.674              1.417
 Vibration    17          0.709              1.625              1.283
 Vibration    18          0.727              1.576              1.168
 Vibration    19          0.737              1.547              1.106
 Vibration    20          0.764              1.475              0.971
 Vibration    21          0.808              1.363              0.799
 Vibration    22          0.826              1.320              0.742
 Vibration    23          0.831              1.307              0.725
 Vibration    24          0.872              1.212              0.616
 Vibration    25          0.902              1.146              0.550
 Vibration    26          0.913              1.124              0.529
 Vibration    27          0.945              1.058              0.471
 Vibration    28          0.970              1.009              0.432
 Vibration    29          0.975              1.000              0.424

 Optimization completed.
    -- Stationary point found.
 Normal termination of Gaussian 16 at Mon Dec 14 15:11:37 2020.

 ----------------------------------------------------------------------
 # B3LYP/6-311++G(d,p) empiricaldispersion=gd3bj scf=xqc pop=npa geom=c
 heck
 ----------------------------------------------------------------------

 ---------------------------------------
 CID_61524897_JID_10617_Energie_neutraal
 ---------------------------------------
 Structure from the checkpoint file:  "JID_10617.chk"
 Charge =  0 Multiplicity = 1

 SCF Done:  E(RB3LYP) =  -879.538362315     A.U. after   16 cycles
 Normal termination of Gaussian 16 at Mon Dec 14 15:19:15 2020.

 ----------------------------------------------------------------------
 # B3LYP/6-311++G(d,p) empiricaldispersion=gd3bj scf=xqc pop=npa geom=c
 heck
 ----------------------------------------------------------------------

 -------------------------------------
 CID_61524897_JID_10617_Energie_kation
 -------------------------------------
 Structure from the checkpoint file:  "JID_10617.chk"
 Charge =  1 Multiplicity = 2

 SCF Done:  E(UB3LYP) =  -879.244298755     A.U. after   28 cycles
 Normal termination of Gaussian 16 at Mon Dec 14 15:38:46 2020.
 Gaussian 16:  ES64L-G16RevA.03 25-Dec-2016

 ----------------------------------------------------------------------
 # B3LYP/6-311++G(d,p) empiricaldispersion=gd3bj scf=xqc pop=npa geom=c
 heck
 ----------------------------------------------------------------------

 ------------------------------------
 CID_61524897_JID_10617_Energie_anion
 ------------------------------------
 Structure from the checkpoint file:  "JID_10617.chk"
 Charge = -1 Multiplicity = 2

                         Standard orientation:
 ---------------------------------------------------------------------
 Center     Atomic      Atomic             Coordinates (Angstroms)
 Number     Number       Type             X           Y           Z
 ---------------------------------------------------------------------
      1          6           0        0.115164   -0.736457   -1.965441
      2          7           0        1.301723   -0.533355   -1.142735
      3          6           0        2.282947    0.371717   -1.455503
      4          6           0        3.385380    0.130633   -0.652446
      5          6           0        3.068276   -0.988254    0.161076
      6          6           0        1.780253   -1.384346   -0.155081
      7          6           0        1.024446   -2.496225    0.473938
      8          8           0        1.515977   -3.608106    0.621287
      9          7           0       -0.265528   -2.222269    0.900725
     10          6           0       -0.706412   -0.911287    1.381461
     11          6           0       -1.878386   -0.324844    0.619800
     12          6           0       -2.967539   -1.121752    0.263599
     13          6           0       -4.052711   -0.593557   -0.433579
     14          6           0       -4.061880    0.757892   -0.785990
     15          6           0       -2.986243    1.568622   -0.442486
     16          6           0       -1.885451    1.041893    0.259766
     17          6           0       -0.772993    1.882494    0.566862
     18          6           0        0.183126    2.583452    0.822300
     19          6           0        1.406017    3.352384    1.087264
     20          8           0        2.394080    3.190994    0.081812
     21          1           0        0.391757   -1.170689   -2.932139
     22          1           0       -0.570940   -1.408926   -1.455128
     23          1           0       -0.387770    0.219933   -2.123728
     24          1           0        2.125130    1.100648   -2.237639
     25          1           0        4.315642    0.682630   -0.669134
     26          1           0        3.686563   -1.451594    0.916558
     27          1           0       -0.667196   -3.031475    1.360576
     28          1           0       -0.971588   -1.001720    2.443730
     29          1           0        0.138753   -0.224261    1.332265
     30          1           0       -2.957559   -2.177241    0.521363
     31          1           0       -4.887609   -1.234249   -0.702022
     32          1           0       -4.903249    1.176459   -1.330212
     33          1           0       -2.974300    2.618017   -0.718693
     34          1           0        1.792037    3.076997    2.082698
     35          1           0        1.176352    4.423131    1.121055
     36          1           0        2.556197    2.234405   -0.013502
 ---------------------------------------------------------------------

 SCF Done:  E(UB3LYP) =  -879.541660712     A.U. after   33 cycles
 SCF Done:  E(UB3LYP) =  -879.541660712     a.u. after    1 cycles

 The electronic state is 2-A.
 Alpha  occ. eigenvalues --  -19.00062 -18.98342 -14.26668 -14.22756 -10.16919
 Alpha  occ. eigenvalues --  -10.11767 -10.10242 -10.09875 -10.09726 -10.09484
 Alpha  occ. eigenvalues --  -10.06615 -10.06368 -10.04727 -10.04431 -10.04207
 Alpha  occ. eigenvalues --  -10.04054 -10.03658 -10.02801 -10.02798 -10.01969
 Alpha  occ. eigenvalues --   -0.93526  -0.90520  -0.88872  -0.81399  -0.72912
 Alpha  occ. eigenvalues --   -0.70695  -0.65323  -0.64707  -0.63592  -0.61611
 Alpha  occ. eigenvalues --   -0.59253  -0.57413  -0.55506  -0.52400  -0.48613
 Alpha  occ. eigenvalues --   -0.48348  -0.46571  -0.44208  -0.42382  -0.41434
 Alpha  occ. eigenvalues --   -0.39630  -0.38505  -0.36938  -0.36140  -0.35667
 Alpha  occ. eigenvalues --   -0.34372  -0.33309  -0.32994  -0.32664  -0.32480
 Alpha  occ. eigenvalues --   -0.31085  -0.30848  -0.29952  -0.29463  -0.28324
 Alpha  occ. eigenvalues --   -0.28117  -0.27882  -0.26634  -0.24550  -0.23707
 Alpha  occ. eigenvalues --   -0.22813  -0.21888  -0.18007  -0.17129  -0.16657
 Alpha  occ. eigenvalues --   -0.15089  -0.14858  -0.13055  -0.12676  -0.12156
 Alpha  occ. eigenvalues --   -0.10409   0.04799
 Alpha virt. eigenvalues --    0.07513   0.07887   0.08289   0.08607   0.09098
 Alpha virt. eigenvalues --    0.09446   0.10100   0.10266   0.10907   0.11379
 Alpha virt. eigenvalues --    0.11690   0.12341   0.12692   0.12878   0.13660

  Beta  occ. eigenvalues --  -18.99973 -18.98273 -14.26644 -14.22760 -10.16858
  Beta  occ. eigenvalues --  -10.11778 -10.10240 -10.09863 -10.09711 -10.09492
  Beta  occ. eigenvalues --  -10.06618 -10.06341 -10.04604 -10.04259 -10.04171
  Beta  occ. eigenvalues --  -10.04075 -10.03508 -10.02791 -10.02428 -10.01732
  Beta  occ. eigenvalues --   -0.93406  -0.90309  -0.88828  -0.81354  -0.72517
  Beta  occ. eigenvalues --   -0.70661  -0.64944  -0.64524  -0.63362  -0.61156
  Beta  occ. eigenvalues --   -0.59227  -0.57267  -0.55353  -0.52304  -0.48323
  Beta  occ. eigenvalues --   -0.48006  -0.46388  -0.44170  -0.42336  -0.41240
  Beta  occ. eigenvalues --   -0.39512  -0.38396  -0.36880  -0.36057  -0.35446
  Beta  occ. eigenvalues --   -0.34154  -0.33145  -0.32903  -0.32561  -0.32324
  Beta  occ. eigenvalues --   -0.30958  -0.30758  -0.29812  -0.29382  -0.28302
  Beta  occ. eigenvalues --   -0.28061  -0.27738  -0.26444  -0.24016  -0.23061
  Beta  occ. eigenvalues --   -0.22640  -0.21731  -0.17291  -0.16687  -0.16320
  Beta  occ. eigenvalues --   -0.14924  -0.14753  -0.12910  -0.12162  -0.11720
  Beta  occ. eigenvalues --   -0.08802
  Beta virt. eigenvalues --    0.07540   0.07932   0.08179   0.08598   0.09066
  Beta virt. eigenvalues --    0.09360   0.10037   0.10143   0.10401   0.10944
  Beta virt. eigenvalues --    0.11493   0.11634   0.12309   0.12652   0.12925

 Mulliken charges and spin densities:
               1          2
     1  C   -0.312392  -0.013850
     2  N    0.231063  -0.001698
     3  C   -0.011034   0.002943
     4  C   -0.428797  -0.126509
     5  C    0.243439   0.023299
     6  C   -0.115006   0.069560
     7  C   -0.579648  -0.039275
     8  O   -0.331872   0.021864
     9  N   -0.172036   0.019126
    10  C   -0.466745  -0.324220
    11  C    0.561955   0.337313
    12  C   -0.372803  -0.080988
    13  C   -0.632183   0.308732
    14  C   -0.288066  -0.060330
    15  C   -0.527013   0.206783
    16  C    0.221856   0.195617
    17  C    0.195600  -0.016991
    18  C   -0.182008   0.284452
    19  C   -0.254163  -0.157285
    20  O   -0.269342  -0.011890
    21  H    0.180022  -0.001081
    22  H    0.198017   0.002028
    23  H    0.171937   0.008128
    24  H    0.131842   0.055485
    25  H    0.078933   0.081502
    26  H    0.137903   0.032680
    27  H    0.284249   0.020658
    28  H    0.106665   0.079447
    29  H    0.302694  -0.088345
    30  H    0.077660   0.026171
    31  H    0.104146  -0.014296
    32  H    0.108283   0.008117
    33  H    0.130726   0.000211
    34  H    0.065128   0.073194
    35  H    0.115212   0.049448
    36  H    0.295778   0.030002
 Sum of Mulliken charges =  -1.00000   1.00000

 Dipole moment (field-independent basis, Debye):
    X=              0.4587    Y=             -1.2039    Z=             -0.8805  Tot=              1.5604
 Quadrupole moment (field-independent basis, Debye-Ang):
   XX=           -165.2181   YY=           -166.2139   ZZ=           -124.9472
   XY=              4.6003   XZ=              0.6774   YZ=             -0.1928

 Summary of Natural Population Analysis:

                                       Natural Population
                Natural  -----------------------------------------------
    Atom  No    Charge         Core      Valence    Rydberg      Total
 -----------------------------------------------------------------------
      C    1   -0.17846      0.99964     2.17201    0.00681     3.17846
      N    2   -0.19083      0.99962     2.68252    0.00869     3.69083
      C    3   -0.00945      0.99957     1.99812    0.01176     3.00945
      C    4   -0.16506      0.99958     2.15593    0.00955     3.16506
      C    5   -0.12038      0.99952     2.11186    0.00900     3.12038
      C    6    0.02753      0.99946     1.95896    0.01404     2.97247
      C    7    0.33543      0.99961     1.64335    0.02160     2.66457
      O    8   -0.31299      0.99988     3.30748    0.00563     4.31299
      N    9   -0.32041      0.99968     2.81151    0.00922     3.82041
      C   10   -0.10276      0.99956     2.09264    0.01055     3.10276
      C   11   -0.01165      0.99953     1.99501    0.01711     3.01165
      C   12   -0.11776      0.99952     2.10986    0.00838     3.11776
      C   13   -0.05238      0.99961     2.03784    0.01493     3.05238
      C   14   -0.08410      0.99957     2.08101    0.00352     3.08410
      C   15   -0.08744      0.99964     2.06802    0.01979     3.08744
      C   16    0.02259      0.99944     1.96388    0.01409     2.97741
      C   17   -0.01419      0.99934     2.00518    0.00967     3.01419
      C   18    0.00162      0.99926     1.99179    0.00733     2.99838
      C   19   -0.04584      0.99955     2.03125    0.01503     3.04584
      O   20   -0.36971      0.99990     3.36231    0.00750     4.36971
      H   21    0.08968      0.00000     0.40947    0.00086     0.41032
      H   22    0.11560      0.00000     0.38324    0.00116     0.38440
      H   23    0.10935      0.00000     0.38954    0.00111     0.39065
      H   24    0.10440      0.00000     0.39468    0.00092     0.39560
      H   25    0.10677      0.00000     0.39236    0.00087     0.39323
      H   26    0.10727      0.00000     0.39190    0.00083     0.39273
      H   27    0.18859      0.00000     0.30884    0.00258     0.31141
      H   28    0.09746      0.00000     0.40133    0.00121     0.40254
      H   29    0.11549      0.00000     0.38288    0.00163     0.38451
      H   30    0.08999      0.00000     0.40833    0.00168     0.41001
      H   31    0.08466      0.00000     0.41271    0.00264     0.41534
      H   32    0.08682      0.00000     0.41180    0.00138     0.41318
      H   33    0.09265      0.00000     0.40486    0.00249     0.40735
      H   34    0.08306      0.00000     0.41530    0.00164     0.41694
      H   35    0.09236      0.00000     0.40603    0.00161     0.40764
      H   36    0.23607      0.00000     0.25976    0.00417     0.26393
 =======================================================================
   * Total *    0.00396     19.99148    50.75356    0.25100    70.99604

 Normal termination of Gaussian 16 at Mon Dec 14 16:01:11 2020.
