 Gaussian 16, Revision A.03,

 -----------------------------------------------------------
 # opt freq B3LYP/6-31G(d) empiricaldispersion=gd3bj scf=xqc
 -----------------------------------------------------------

 -----------------------------
 CID_54857189_JID_767_neutraal
 -----------------------------
 Symbolic Z-matrix:
 Charge =  0 Multiplicity = 1

 SCF Done:  E(RB3LYP) =  -457.527595996     A.U. after   15 cycles
 SCF Done:  E(RB3LYP) =  -457.530828177     A.U. after   13 cycles
 SCF Done:  E(RB3LYP) =  -457.531003577     A.U. after   12 cycles
 SCF Done:  E(RB3LYP) =  -457.531171108     A.U. after   12 cycles
 SCF Done:  E(RB3LYP) =  -457.531240998     A.U. after   10 cycles
 SCF Done:  E(RB3LYP) =  -457.531338478     A.U. after   11 cycles
 SCF Done:  E(RB3LYP) =  -457.531345695     A.U. after   10 cycles
 SCF Done:  E(RB3LYP) =  -457.531347468     A.U. after    8 cycles
 SCF Done:  E(RB3LYP) =  -457.531347564     A.U. after    8 cycles
 Optimization completed.
    -- Stationary point found.
 Normal termination of Gaussian 16 at Tue Dec  8 12:29:19 2020.

 --------------------------------------------------------------------
 #N Geom=AllCheck Guess=TCheck SCRF=Check GenChk RB3LYP/6-31G(d) Freq
 --------------------------------------------------------------------

 Structure from the checkpoint file:  "JID_767.chk"
 -----------------------------
 CID_54857189_JID_767_neutraal
 -----------------------------
 Charge =  0 Multiplicity = 1

 SCF Done:  E(RB3LYP) =  -457.531347564     A.U. after    1 cycles

  Exact polarizability:  88.762  -2.132  78.565  -2.028   0.026  73.904
 Approx polarizability: 133.100  -1.307 105.983  -7.659   0.433 116.536

                      1                      2                      3
                      A                      A                      A
 Frequencies --     78.9771               106.4381               151.6962
 Red. masses --      7.4298                 4.1589                 2.5892
 Frc consts  --      0.0273                 0.0278                 0.0351
 IR Inten    --      4.4545                 4.9884                 4.1099

                      4                      5                      6
                      A                      A                      A
 Frequencies --    165.7661               198.0771               218.4570
 Red. masses --      1.1591                 2.5935                 2.2408
 Frc consts  --      0.0188                 0.0600                 0.0630
 IR Inten    --      0.9761                 1.7504                 4.3657

                      7                      8                      9
                      A                      A                      A
 Frequencies --    272.1867               294.7436               332.8642
 Red. masses --      1.2374                 2.5000                 3.3745
 Frc consts  --      0.0540                 0.1280                 0.2203
 IR Inten    --      0.3629                 1.0914                 8.0312

                     10                     11                     12
                      A                      A                      A
 Frequencies --    405.1884               469.6960               498.6895
 Red. masses --      3.4154                 5.0859                 5.8889
 Frc consts  --      0.3304                 0.6611                 0.8629
 IR Inten    --      3.1798                 3.0021                 1.0067

                     13                     14                     15
                      A                      A                      A
 Frequencies --    546.1782               594.6704               619.4258
 Red. masses --      3.1474                 4.0413                 5.2680
 Frc consts  --      0.5532                 0.8420                 1.1909
 IR Inten    --      5.5575                 3.2248                 6.8566

                     16                     17                     18
                      A                      A                      A
 Frequencies --    676.0062               685.2210               773.0357
 Red. masses --      4.5457                 4.5636                 2.0771
 Frc consts  --      1.2239                 1.2625                 0.7313
 IR Inten    --      0.0782                12.0730                 2.8793

                     19                     20                     21
                      A                      A                      A
 Frequencies --    888.4599               932.5437               967.3145
 Red. masses --      1.8285                 2.0037                 2.3931
 Frc consts  --      0.8504                 1.0266                 1.3193
 IR Inten    --     12.5364                 4.1625                13.1293

                     22                     23                     24
                      A                      A                      A
 Frequencies --   1020.5045              1040.1220              1095.9275
 Red. masses --      2.0467                 1.6895                 2.9648
 Frc consts  --      1.2558                 1.0769                 2.0980
 IR Inten    --      3.5932                 3.0385                 9.0701

                     25                     26                     27
                      A                      A                      A
 Frequencies --   1130.2918              1156.0611              1174.3904
 Red. masses --      1.4937                 2.3371                 1.3432
 Frc consts  --      1.1243                 1.8403                 1.0915
 IR Inten    --      3.0999                63.9928                 3.7938

                     28                     29                     30
                      A                      A                      A
 Frequencies --   1185.8902              1237.7126              1257.6662
 Red. masses --      2.7571                 1.5890                 2.2409
 Frc consts  --      2.2845                 1.4342                 2.0884
 IR Inten    --     15.9538                11.9549                17.9426

                     31                     32                     33
                      A                      A                      A
 Frequencies --   1299.3526              1332.7057              1359.9725
 Red. masses --      2.4523                 1.4631                 1.5267
 Frc consts  --      2.4393                 1.5310                 1.6637
 IR Inten    --     32.4598                 9.5772                 3.1646

                     34                     35                     36
                      A                      A                      A
 Frequencies --   1402.9845              1435.0778              1465.5894
 Red. masses --      5.0731                 1.2259                 1.1889
 Frc consts  --      5.8834                 1.4875                 1.5045
 IR Inten    --    181.0806                 8.9650                21.0417

                     37                     38                     39
                      A                      A                      A
 Frequencies --   1498.0603              1515.2725              1520.5934
 Red. masses --      1.0826                 1.0552                 1.0729
 Frc consts  --      1.4314                 1.4274                 1.4617
 IR Inten    --      3.0066                 1.8088                 3.6300

                     40                     41                     42
                      A                      A                      A
 Frequencies --   1524.7372              1532.8501              1541.0015
 Red. masses --      1.0640                 1.0535                 1.0746
 Frc consts  --      1.4575                 1.4584                 1.5035
 IR Inten    --      9.9602                 4.6649                12.9729

                     43                     44                     45
                      A                      A                      A
 Frequencies --   1827.4707              2355.0642              3045.3870
 Red. masses --     11.7273                12.7119                 1.0395
 Frc consts  --     23.0753                41.5400                 5.6804
 IR Inten    --    364.1211                 1.5903                31.9696

                     46                     47                     48
                      A                      A                      A
 Frequencies --   3067.8414              3074.3737              3085.1856
 Red. masses --      1.0348                 1.0688                 1.0633
 Frc consts  --      5.7380                 5.9517                 5.9632
 IR Inten    --      7.6324                 4.3561                18.8529

                     49                     50                     51
                      A                      A                      A
 Frequencies --   3109.6389              3141.1876              3145.7547
 Red. masses --      1.1008                 1.0978                 1.1035
 Frc consts  --      6.2718                 6.3821                 6.4339
 IR Inten    --     26.8903                 6.9698                10.3603

                     52                     53                     54
                      A                      A                      A
 Frequencies --   3148.0357              3150.7909              3172.2314
 Red. masses --      1.1028                 1.1037                 1.0997
 Frc consts  --      6.4391                 6.4555                 6.5201
 IR Inten    --      7.0346                20.6211                 0.5096

 - Thermochemistry -
 -------------------
 Temperature   298.150 Kelvin.  Pressure   1.00000 Atm.
 Atom     1 has atomic number  6 and mass  12.00000

 Molecular mass:   138.07931 amu.
 Principal axes and moments of inertia in atomic units:
                           1         2         3
     Eigenvalues --   973.923041526.996471684.74213
           X            0.99845  -0.01878   0.05242
           Y            0.01910   0.99980  -0.00575
           Z           -0.05230   0.00675   0.99861
 This molecule is an asymmetric top.
 Rotational symmetry number  1.
 Warning -- assumption of classical behavior for rotation
           may cause significant error
 Rotational temperatures (Kelvin)      0.08893     0.05672     0.05141
 Rotational constants (GHZ):           1.85306     1.18189     1.07123
 Zero-point vibrational energy     436190.5 (Joules/Mol)
                                  104.25204 (Kcal/Mol)
 Warning -- explicit consideration of  15 degrees of freedom as
           vibrations may cause significant error
 Vibrational temperatures:    113.63   153.14   218.26   238.50   284.99
          (Kelvin)            314.31   391.62   424.07   478.92   582.98
                              675.79   717.50   785.83   855.60   891.22
                              972.62   985.88  1112.23  1278.30  1341.72
                             1391.75  1468.28  1496.50  1576.80  1626.24
                             1663.31  1689.69  1706.23  1780.79  1809.50
                             1869.48  1917.47  1956.70  2018.58  2064.76
                             2108.66  2155.37  2180.14  2187.79  2193.76
                             2205.43  2217.16  2629.32  3388.41  4381.63
                             4413.94  4423.34  4438.89  4474.08  4519.47
                             4526.04  4529.32  4533.29  4564.13

 Zero-point correction=                           0.166136 (Hartree/Particle)
 Thermal correction to Energy=                    0.176113
 Thermal correction to Enthalpy=                  0.177057
 Thermal correction to Gibbs Free Energy=         0.131215
 Sum of electronic and zero-point Energies=           -457.365211
 Sum of electronic and thermal Energies=              -457.355234
 Sum of electronic and thermal Enthalpies=            -457.354290
 Sum of electronic and thermal Free Energies=         -457.400132

                     E (Thermal)             CV                S
                      KCal/Mol        Cal/Mol-Kelvin    Cal/Mol-Kelvin
 Total                  110.513             36.738             96.483
 Electronic               0.000              0.000              0.000
 Translational            0.889              2.981             40.680
 Rotational               0.889              2.981             29.306
 Vibrational            108.735             30.776             26.497
 Vibration     1          0.600              1.963              3.916
 Vibration     2          0.605              1.944              3.333
 Vibration     3          0.619              1.901              2.651
 Vibration     4          0.624              1.885              2.483
 Vibration     5          0.637              1.843              2.151
 Vibration     6          0.646              1.813              1.972
 Vibration     7          0.675              1.725              1.582
 Vibration     8          0.689              1.684              1.447
 Vibration     9          0.715              1.610              1.246
 Vibration    10          0.770              1.459              0.944
 Vibration    11          0.827              1.317              0.738
 Vibration    12          0.854              1.253              0.661
 Vibration    13          0.901              1.148              0.552
 Vibration    14          0.952              1.043              0.459
 Vibration    15          0.979              0.991              0.417

                           ! Non-Optimized Parameters !
 Normal termination of Gaussian 16 at Tue Dec  8 12:39:32 2020.

 ----------------------------------------------------------------------
 # B3LYP/6-311++G(d,p) empiricaldispersion=gd3bj scf=xqc pop=npa geom=c
 heck
 ----------------------------------------------------------------------

 -------------------------------------
 CID_54857189_JID_767_Energie_neutraal
 -------------------------------------
 Structure from the checkpoint file:  "JID_767.chk"
 Charge =  0 Multiplicity = 1

 SCF Done:  E(RB3LYP) =  -457.661433662     A.U. after   14 cycles
 Normal termination of Gaussian 16 at Tue Dec  8 12:43:17 2020.

 ----------------------------------------------------------------------
 # B3LYP/6-311++G(d,p) empiricaldispersion=gd3bj scf=xqc pop=npa geom=c
 heck
 ----------------------------------------------------------------------

 -----------------------------------
 CID_54857189_JID_767_Energie_kation
 -----------------------------------
 Structure from the checkpoint file:  "JID_767.chk"
 Charge =  1 Multiplicity = 2

 SCF Done:  E(UB3LYP) =  -457.315061161     A.U. after   21 cycles
 Normal termination of Gaussian 16 at Tue Dec  8 12:49:34 2020.
 Gaussian 16:  ES64L-G16RevA.03 25-Dec-2016

 ----------------------------------------------------------------------
 # B3LYP/6-311++G(d,p) empiricaldispersion=gd3bj scf=xqc pop=npa geom=c
 heck
 ----------------------------------------------------------------------

 ----------------------------------
 CID_54857189_JID_767_Energie_anion
 ----------------------------------
 Structure from the checkpoint file:  "JID_767.chk"
 Charge = -1 Multiplicity = 2

                         Standard orientation:
 ---------------------------------------------------------------------
 Center     Atomic      Atomic             Coordinates (Angstroms)
 Number     Number       Type             X           Y           Z
 ---------------------------------------------------------------------
      1          6           0       -1.693103    0.359732   -1.490737
      2          6           0       -0.787182   -0.148887   -0.363096
      3          6           0       -0.243744   -1.582071   -0.624414
      4          6           0        1.111112   -1.601768    0.087376
      5          6           0        1.544526   -0.138976    0.107314
      6          8           0        2.644913    0.301146    0.381753
      7          7           0        0.443875    0.628341   -0.231280
      8          6           0        0.436144    2.066372   -0.043837
      9          6           0       -1.535252   -0.109435    0.922179
     10          7           0       -2.099523   -0.057710    1.935285
     11          1           0       -2.077938    1.360533   -1.277027
     12          1           0       -2.546192   -0.313776   -1.615986
     13          1           0       -1.120177    0.388986   -2.422289
     14          1           0       -0.943917   -2.346337   -0.281508
     15          1           0       -0.112185   -1.694903   -1.705220
     16          1           0        1.866317   -2.221030   -0.400871
     17          1           0        1.023574   -1.939586    1.127025
     18          1           0       -0.212382    2.348059    0.795693
     19          1           0        1.462275    2.363888    0.177418
     20          1           0        0.095839    2.580788   -0.948004
 ---------------------------------------------------------------------

 SCF Done:  E(UB3LYP) =  -457.650559688     A.U. after   29 cycles

 The electronic state is 2-A.
 Alpha  occ. eigenvalues --  -19.00070 -14.25565 -14.22265 -10.17996 -10.16795
 Alpha  occ. eigenvalues --  -10.11740 -10.10546 -10.09135 -10.08872 -10.07455
 Alpha  occ. eigenvalues --   -0.95276  -0.87148  -0.81443  -0.72339  -0.68290
 Alpha  occ. eigenvalues --   -0.60771  -0.57757  -0.53771  -0.48075  -0.43863
 Alpha  occ. eigenvalues --   -0.39200  -0.36911  -0.36607  -0.35036  -0.33038
 Alpha  occ. eigenvalues --   -0.31956  -0.30881  -0.30361  -0.29375  -0.29241
 Alpha  occ. eigenvalues --   -0.27801  -0.26929  -0.25632  -0.24237  -0.23457
 Alpha  occ. eigenvalues --   -0.17183  -0.16200   0.04543
 Alpha virt. eigenvalues --    0.07061   0.08316   0.08592   0.09331   0.10384
 Alpha virt. eigenvalues --    0.10879   0.10969   0.11425   0.12002   0.12215
 Alpha virt. eigenvalues --    0.13250   0.13936   0.14223   0.15388   0.16062

  Beta  occ. eigenvalues --  -19.00066 -14.25563 -14.22251 -10.17993 -10.16788
  Beta  occ. eigenvalues --  -10.11741 -10.10514 -10.09086 -10.08854 -10.07383
  Beta  occ. eigenvalues --   -0.95268  -0.87135  -0.81425  -0.72302  -0.68249
  Beta  occ. eigenvalues --   -0.60709  -0.57645  -0.53685  -0.48056  -0.43805
  Beta  occ. eigenvalues --   -0.39142  -0.36858  -0.36575  -0.34991  -0.32993
  Beta  occ. eigenvalues --   -0.31893  -0.30826  -0.30293  -0.29333  -0.29193
  Beta  occ. eigenvalues --   -0.27770  -0.26888  -0.25594  -0.24193  -0.23429
  Beta  occ. eigenvalues --   -0.17170  -0.16183
  Beta virt. eigenvalues --    0.07376   0.08090   0.09135   0.09261   0.09858
  Beta virt. eigenvalues --    0.11006   0.11126   0.11792   0.11860   0.12456
  Beta virt. eigenvalues --    0.12538   0.13472   0.14411   0.15015   0.15349

 Mulliken charges and spin densities:
               1          2
     1  C    2.621980  -3.037072
     2  C   -4.490422   5.025385
     3  C    1.218090  -1.452019
     4  C    0.023893  -0.585940
     5  C    0.114592   0.120537
     6  O   -0.372640  -0.001328
     7  N    0.190377  -0.030927
     8  C    0.683262  -1.002412
     9  C    2.689969  -3.318672
    10  N   -0.376806   0.117597
    11  H   -0.416065   0.585985
    12  H   -0.541387   0.716203
    13  H   -0.700662   0.907062
    14  H   -0.517570   0.716936
    15  H   -0.577109   0.779361
    16  H   -0.288321   0.493810
    17  H    0.150977   0.036026
    18  H   -0.018923   0.199618
    19  H    0.093052   0.079136
    20  H   -0.486287   0.650715
 Sum of Mulliken charges =  -1.00000   1.00000

 Dipole moment (field-independent basis, Debye):
    X=              2.8366    Y=              0.5946    Z=              4.4443  Tot=              5.3058
 Quadrupole moment (field-independent basis, Debye-Ang):
   XX=           -110.1672   YY=            -98.6094   ZZ=           -107.6421
   XY=             -0.7314   XZ=             -2.8166   YZ=             -1.4486

 Summary of Natural Population Analysis:

                                       Natural Population
                Natural  -----------------------------------------------
    Atom  No    Charge         Core      Valence    Rydberg      Total
 -----------------------------------------------------------------------
      C    1   -0.28066      0.99963     2.27360    0.00743     3.28066
      C    2    0.01921      0.99949     1.96408    0.01722     2.98079
      C    3   -0.18006      0.99960     2.17034    0.01012     3.18006
      C    4   -0.23189      0.99960     2.22358    0.00872     3.23189
      C    5    0.35596      0.99964     1.62072    0.02368     2.64404
      O    6   -0.31701      0.99987     3.31156    0.00558     4.31701
      N    7   -0.25665      0.99962     2.74469    0.01234     3.75665
      C    8   -0.18335      0.99963     2.17496    0.00876     3.18335
      C    9    0.16021      0.99960     1.82085    0.01934     2.83979
      N   10   -0.17771      0.99979     2.66654    0.01138     3.67771
      H   11    0.10731      0.00000     0.38985    0.00284     0.39269
      H   12    0.11157      0.00000     0.38541    0.00301     0.38843
      H   13    0.11281      0.00000     0.38233    0.00485     0.38719
      H   14    0.11067      0.00000     0.38695    0.00238     0.38933
      H   15    0.11123      0.00000     0.38458    0.00419     0.38877
      H   16    0.11543      0.00000     0.38346    0.00112     0.38457
      H   17    0.11084      0.00000     0.38800    0.00116     0.38916
      H   18    0.09618      0.00000     0.40264    0.00119     0.40382
      H   19    0.11374      0.00000     0.38518    0.00109     0.38626
      H   20    0.10218      0.00000     0.39633    0.00149     0.39782
 =======================================================================
   * Total *   -0.00000      9.99647    26.85563    0.14790    37.00000

 Normal termination of Gaussian 16 at Tue Dec  8 13:04:06 2020.
