 Gaussian 16, Revision A.03,

 -----------------------------------------------------------
 # opt freq B3LYP/6-31G(d) empiricaldispersion=gd3bj scf=xqc
 -----------------------------------------------------------

 ------------------------------
 CID_55128776_JID_9675_neutraal
 ------------------------------
 Symbolic Z-matrix:
 Charge =  0 Multiplicity = 1

 SCF Done:  E(RB3LYP) =  -860.917629820     A.U. after   15 cycles
 SCF Done:  E(RB3LYP) =  -860.921342669     A.U. after   13 cycles
 SCF Done:  E(RB3LYP) =  -860.922789153     A.U. after   14 cycles
 SCF Done:  E(RB3LYP) =  -860.921027663     A.U. after   14 cycles
 SCF Done:  E(RB3LYP) =  -860.926430157     A.U. after   13 cycles
 SCF Done:  E(RB3LYP) =  -860.926520347     A.U. after   13 cycles
 SCF Done:  E(RB3LYP) =  -860.927997893     A.U. after   13 cycles
 SCF Done:  E(RB3LYP) =  -860.928839867     A.U. after   12 cycles
 SCF Done:  E(RB3LYP) =  -860.928859152     A.U. after   12 cycles
 SCF Done:  E(RB3LYP) =  -860.929095594     A.U. after   12 cycles
 SCF Done:  E(RB3LYP) =  -860.939017878     A.U. after    8 cycles
 SCF Done:  E(RB3LYP) =  -860.939017922     A.U. after    7 cycles
 SCF Done:  E(RB3LYP) =  -860.939017956     A.U. after    8 cycles
 SCF Done:  E(RB3LYP) =  -860.939017973     A.U. after    7 cycles
 Optimization completed.
    -- Stationary point found.
 Normal termination of Gaussian 16 at Mon Dec 14 14:42:08 2020.

 --------------------------------------------------------------------
 #N Geom=AllCheck Guess=TCheck SCRF=Check GenChk RB3LYP/6-31G(d) Freq
 --------------------------------------------------------------------

 Structure from the checkpoint file:  "JID_9675.chk"
 ------------------------------
 CID_55128776_JID_9675_neutraal
 ------------------------------
 Charge =  0 Multiplicity = 1

 SCF Done:  E(RB3LYP) =  -860.939017973     A.U. after    1 cycles

  Exact polarizability: 154.448   4.326 179.095  -6.921   3.445 158.752
 Approx polarizability: 201.342   3.711 277.940 -19.442   5.482 270.204

                      1                      2                      3
                      A                      A                      A
 Frequencies --     18.9806                41.5337                45.7251
 Red. masses --      6.0112                 3.8475                 6.1832
 Frc consts  --      0.0013                 0.0039                 0.0076
 IR Inten    --      1.4142                 0.9015                 1.4713

                      4                      5                      6
                      A                      A                      A
 Frequencies --     56.7686                69.3043                79.1038
 Red. masses --      4.3559                 4.0056                 3.0234
 Frc consts  --      0.0083                 0.0113                 0.0111
 IR Inten    --      1.0206                 0.2964                 1.0908

                      7                      8                      9
                      A                      A                      A
 Frequencies --     87.4278               102.3145               125.2509
 Red. masses --      4.3082                 4.7163                 2.2294
 Frc consts  --      0.0194                 0.0291                 0.0206
 IR Inten    --      0.4567                 2.8096                 0.3877

                     10                     11                     12
                      A                      A                      A
 Frequencies --    143.6785               160.8252               192.7140
 Red. masses --      3.9707                 4.4101                 3.9447
 Frc consts  --      0.0483                 0.0672                 0.0863
 IR Inten    --      1.2776                 3.1603                 0.1711

                     13                     14                     15
                      A                      A                      A
 Frequencies --    198.9694               238.8807               248.4713
 Red. masses --      3.7468                 2.8222                 1.3355
 Frc consts  --      0.0874                 0.0949                 0.0486
 IR Inten    --      1.3696                 5.3199                 2.3961

                     16                     17                     18
                      A                      A                      A
 Frequencies --    275.9438               282.6916               314.6374
 Red. masses --      3.1834                 3.4121                 2.7939
 Frc consts  --      0.1428                 0.1607                 0.1630
 IR Inten    --      1.5416                 1.5667                20.4297

                     19                     20                     21
                      A                      A                      A
 Frequencies --    343.5577               357.3783               417.0922
 Red. masses --      1.4022                 1.9240                 4.1367
 Frc consts  --      0.0975                 0.1448                 0.4240
 IR Inten    --     49.1870                 9.5018                20.4050

                     22                     23                     24
                      A                      A                      A
 Frequencies --    420.8323               452.3825               471.8358
 Red. masses --      2.9960                 3.3699                 2.4529
 Frc consts  --      0.3126                 0.4063                 0.3217
 IR Inten    --      0.7837                 1.9546                 1.3184

                     25                     26                     27
                      A                      A                      A
 Frequencies --    500.3664               507.2752               547.7870
 Red. masses --      3.4541                 3.5339                 2.7095
 Frc consts  --      0.5095                 0.5358                 0.4790
 IR Inten    --      1.7253                 2.9837                30.4364

                     28                     29                     30
                      A                      A                      A
 Frequencies --    594.5971               601.4725               627.9395
 Red. masses --      2.2406                 2.0562                 1.6391
 Frc consts  --      0.4667                 0.4383                 0.3808
 IR Inten    --    106.5602                25.3520                57.3298

                     31                     32                     33
                      A                      A                      A
 Frequencies --    637.1250               676.0922               713.0916
 Red. masses --      4.0956                 2.9678                 2.4362
 Frc consts  --      0.9795                 0.7993                 0.7299
 IR Inten    --     12.9124                31.6845                37.9766

                     34                     35                     36
                      A                      A                      A
 Frequencies --    721.8969               745.4465               776.1299
 Red. masses --      2.2009                 3.1004                 1.6757
 Frc consts  --      0.6758                 1.0151                 0.5947
 IR Inten    --     34.6923                13.5439                16.3735

                     37                     38                     39
                      A                      A                      A
 Frequencies --    782.8318               837.6774               850.9285
 Red. masses --      2.1799                 2.6406                 3.2962
 Frc consts  --      0.7871                 1.0917                 1.4062
 IR Inten    --     12.1844                10.9679                21.0758

                     40                     41                     42
                      A                      A                      A
 Frequencies --    856.5101               859.5243               879.6587
 Red. masses --      2.0307                 1.3496                 2.8430
 Frc consts  --      0.8777                 0.5875                 1.2961
 IR Inten    --      2.5654                 1.8888                 2.2168

                     43                     44                     45
                      A                      A                      A
 Frequencies --    913.2566               920.1312               932.8844
 Red. masses --      1.5558                 1.4086                 1.4897
 Frc consts  --      0.7645                 0.7026                 0.7638
 IR Inten    --     10.1954                14.3528                60.4492

                     46                     47                     48
                      A                      A                      A
 Frequencies --    970.3136               978.0971               995.0699
 Red. masses --      1.3562                 2.8716                 1.2600
 Frc consts  --      0.7523                 1.6186                 0.7351
 IR Inten    --      0.2581                 2.4144                 0.0050

                     49                     50                     51
                      A                      A                      A
 Frequencies --   1007.9673              1023.2917              1029.7900
 Red. masses --      1.7839                 5.8251                 1.6530
 Frc consts  --      1.0679                 3.5938                 1.0328
 IR Inten    --     18.2922                 1.7242                 3.8163

                     52                     53                     54
                      A                      A                      A
 Frequencies --   1041.7073              1064.2369              1093.9721
 Red. masses --      1.9090                 2.1102                 2.4417
 Frc consts  --      1.2205                 1.4082                 1.7217
 IR Inten    --      3.5537                 3.6607                 3.9736

                     55                     56                     57
                      A                      A                      A
 Frequencies --   1114.8841              1129.5979              1139.0904
 Red. masses --      1.6182                 2.4992                 2.1579
 Frc consts  --      1.1851                 1.8789                 1.6497
 IR Inten    --      5.4666                 5.1531                 0.5178

                     58                     59                     60
                      A                      A                      A
 Frequencies --   1148.6163              1179.0709              1194.0791
 Red. masses --      2.5900                 2.5019                 1.0983
 Frc consts  --      2.0132                 2.0492                 0.9226
 IR Inten    --     18.1310                11.2934                 0.1418

                     61                     62                     63
                      A                      A                      A
 Frequencies --   1196.5485              1219.7086              1221.7639
 Red. masses --      1.2550                 1.1888                 1.7025
 Frc consts  --      1.0587                 1.0420                 1.4973
 IR Inten    --     17.0291                 2.6700                14.7978

                     64                     65                     66
                      A                      A                      A
 Frequencies --   1254.0732              1284.2013              1291.0903
 Red. masses --      1.2682                 1.8606                 1.2683
 Frc consts  --      1.1751                 1.8078                 1.2456
 IR Inten    --     50.0001                 8.3741                 8.1864

                     67                     68                     69
                      A                      A                      A
 Frequencies --   1310.2694              1320.9725              1356.1229
 Red. masses --      1.5827                 1.2390                 1.9428
 Frc consts  --      1.6009                 1.2738                 2.1051
 IR Inten    --     58.0490                14.7506                26.3312

                     70                     71                     72
                      A                      A                      A
 Frequencies --   1366.5736              1372.4107              1388.3708
 Red. masses --      1.6057                 1.5211                 1.4306
 Frc consts  --      1.7668                 1.6880                 1.6248
 IR Inten    --     15.8100                 3.3651                39.1663

                     73                     74                     75
                      A                      A                      A
 Frequencies --   1396.5528              1397.9908              1414.5256
 Red. masses --      1.4449                 1.5484                 2.0417
 Frc consts  --      1.6603                 1.7829                 2.4069
 IR Inten    --     14.5338                24.8003               134.9453

                     76                     77                     78
                      A                      A                      A
 Frequencies --   1428.5635              1445.6699              1453.1704
 Red. masses --      1.5089                 1.3097                 1.3760
 Frc consts  --      1.8143                 1.6128                 1.7120
 IR Inten    --     17.7261                 0.9956                 4.9872

                     79                     80                     81
                      A                      A                      A
 Frequencies --   1500.1021              1503.3927              1508.7126
 Red. masses --      1.8230                 2.1766                 1.7361
 Frc consts  --      2.4170                 2.8985                 2.3283
 IR Inten    --     32.3413                 6.1613                47.7848

                     82                     83                     84
                      A                      A                      A
 Frequencies --   1513.3051              1518.3434              1530.6223
 Red. masses --      1.0846                 1.2051                 1.1076
 Frc consts  --      1.4634                 1.6368                 1.5289
 IR Inten    --      2.5347                 6.9935                 3.2054

                     85                     86                     87
                      A                      A                      A
 Frequencies --   1531.7327              1537.4521              1541.7927
 Red. masses --      1.0551                 1.0883                 1.0630
 Frc consts  --      1.4586                 1.5157                 1.4888
 IR Inten    --      6.9232                 4.1132                 6.7140

                     88                     89                     90
                      A                      A                      A
 Frequencies --   1547.5841              1643.8412              1663.7640
 Red. masses --      2.0333                 5.4633                 4.7599
 Frc consts  --      2.8692                 8.6981                 7.7631
 IR Inten    --     13.9521                 1.3733                18.1892

                     91                     92                     93
                      A                      A                      A
 Frequencies --   1671.8552              1767.8571              1791.2537
 Red. masses --      1.1926                 5.5224                 7.6566
 Frc consts  --      1.9639                10.1688                14.4744
 IR Inten    --    142.9989               220.2183               427.2560

                     94                     95                     96
                      A                      A                      A
 Frequencies --   2965.9823              3042.1004              3047.9480
 Red. masses --      1.0725                 1.0384                 1.0834
 Frc consts  --      5.5591                 5.6621                 5.9302
 IR Inten    --     92.6700                26.7179                17.3807

                     97                     98                     99
                      A                      A                      A
 Frequencies --   3052.4977              3061.6754              3071.5638
 Red. masses --      1.0739                 1.0611                 1.0655
 Frc consts  --      5.8957                 5.8601                 5.9229
 IR Inten    --     23.2016                23.3372                27.4757

                    100                    101                    102
                      A                      A                      A
 Frequencies --   3075.5587              3092.4384              3114.7492
 Red. masses --      1.0894                 1.1001                 1.1023
 Frc consts  --      6.0711                 6.1986                 6.3011
 IR Inten    --     32.6915                 0.7328                51.0228

                    103                    104                    105
                      A                      A                      A
 Frequencies --   3120.9360              3143.6667              3169.7995
 Red. masses --      1.1009                 1.0985                 1.0877
 Frc consts  --      6.3181                 6.3961                 6.4393
 IR Inten    --     30.1178                 4.1947                 9.2567

                    106                    107                    108
                      A                      A                      A
 Frequencies --   3174.9284              3185.8673              3196.8143
 Red. masses --      1.0905                 1.0867                 1.0918
 Frc consts  --      6.4768                 6.4984                 6.5740
 IR Inten    --      4.1797                 0.8027                24.9469

                    109                    110                    111
                      A                      A                      A
 Frequencies --   3209.8878              3243.0121              3484.0580
 Red. masses --      1.0970                 1.0924                 1.0494
 Frc consts  --      6.6594                 6.7691                 7.5052
 IR Inten    --     24.6916                 1.5073                12.9930

                    112                    113                    114
                      A                      A                      A
 Frequencies --   3574.9962              3579.1062              3594.8804
 Red. masses --      1.0931                 1.0758                 1.0754
 Frc consts  --      8.2312                 8.1194                 8.1883
 IR Inten    --     10.9493                24.6896                18.1411

 - Thermochemistry -
 -------------------
 Temperature   298.150 Kelvin.  Pressure   1.00000 Atm.
 Atom     1 has atomic number  6 and mass  12.00000

 Molecular mass:   263.16338 amu.
 Principal axes and moments of inertia in atomic units:
                           1         2         3
     Eigenvalues --  4004.735975974.238487205.18700
           X            0.99834   0.05047   0.02784
           Y           -0.05122   0.99833   0.02685
           Z           -0.02644  -0.02823   0.99925
 This molecule is an asymmetric top.
 Rotational symmetry number  1.
 Warning -- assumption of classical behavior for rotation
           may cause significant error
 Rotational temperatures (Kelvin)      0.02163     0.01450     0.01202
 Rotational constants (GHZ):           0.45065     0.30209     0.25048
 Zero-point vibrational energy     908153.2 (Joules/Mol)
                                  217.05383 (Kcal/Mol)
 Warning -- explicit consideration of  29 degrees of freedom as
           vibrations may cause significant error
 Vibrational temperatures:     27.31    59.76    65.79    81.68    99.71
          (Kelvin)            113.81   125.79   147.21   180.21   206.72
                              231.39   277.27   286.27   343.70   357.49
                              397.02   406.73   452.69   494.30   514.19
                              600.10   605.48   650.88   678.87   719.92
                              729.86   788.14   855.49   865.38   903.46
                              916.68   972.75  1025.98  1038.65  1072.53
                             1116.68  1126.32  1205.23  1224.30  1232.33
                             1236.66  1265.63  1313.97  1323.86  1342.21
                             1396.06  1407.26  1431.68  1450.24  1472.29
                             1481.64  1498.78  1531.20  1573.98  1604.07
                             1625.24  1638.90  1652.60  1696.42  1718.01
                             1721.57  1754.89  1757.85  1804.33  1847.68
                             1857.59  1885.19  1900.58  1951.16  1966.19
                             1974.59  1997.56  2009.33  2011.40  2035.19
                             2055.38  2080.00  2090.79  2158.31  2163.05
                             2170.70  2177.31  2184.56  2202.22  2203.82
                             2212.05  2218.30  2226.63  2365.12  2393.79
                             2405.43  2543.55  2577.21  4267.39  4376.90
                             4385.32  4391.86  4405.07  4419.30  4425.04
                             4449.33  4481.43  4490.33  4523.04  4560.63
                             4568.01  4583.75  4599.50  4618.31  4665.97
                             5012.78  5143.62  5149.54  5172.23

 Zero-point correction=                           0.345897 (Hartree/Particle)
 Thermal correction to Energy=                    0.365381
 Thermal correction to Enthalpy=                  0.366325
 Thermal correction to Gibbs Free Energy=         0.296433
 Sum of electronic and zero-point Energies=           -860.593121
 Sum of electronic and thermal Energies=              -860.573637
 Sum of electronic and thermal Enthalpies=            -860.572693
 Sum of electronic and thermal Free Energies=         -860.642585

                     E (Thermal)             CV                S
                      KCal/Mol        Cal/Mol-Kelvin    Cal/Mol-Kelvin
 Total                  229.280             72.777            147.099
 Electronic               0.000              0.000              0.000
 Translational            0.889              2.981             42.602
 Rotational               0.889              2.981             33.510
 Vibrational            227.502             66.815             70.987
 Vibration     1          0.593              1.986              6.738
 Vibration     2          0.594              1.981              5.185
 Vibration     3          0.595              1.979              4.994
 Vibration     4          0.596              1.975              4.566
 Vibration     5          0.598              1.969              4.173
 Vibration     6          0.600              1.963              3.913
 Vibration     7          0.601              1.958              3.717
 Vibration     8          0.604              1.947              3.410
 Vibration     9          0.610              1.928              3.018
 Vibration    10          0.616              1.909              2.754
 Vibration    11          0.622              1.890              2.540
 Vibration    12          0.635              1.850              2.202
 Vibration    13          0.637              1.841              2.143
 Vibration    14          0.657              1.781              1.811
 Vibration    15          0.662              1.765              1.741
 Vibration    16          0.678              1.718              1.559
 Vibration    17          0.682              1.706              1.517
 Vibration    18          0.702              1.646              1.338
 Vibration    19          0.722              1.588              1.196
 Vibration    20          0.733              1.560              1.133
 Vibration    21          0.780              1.433              0.902
 Vibration    22          0.783              1.425              0.889
 Vibration    23          0.811              1.356              0.789
 Vibration    24          0.829              1.313              0.732
 Vibration    25          0.856              1.249              0.657
 Vibration    26          0.862              1.234              0.640
 Vibration    27          0.903              1.145              0.549
 Vibration    28          0.952              1.043              0.459
 Vibration    29          0.960              1.029              0.447

 Optimization completed.
    -- Stationary point found.
 Normal termination of Gaussian 16 at Mon Dec 14 15:07:01 2020.

 ----------------------------------------------------------------------
 # B3LYP/6-311++G(d,p) empiricaldispersion=gd3bj scf=xqc pop=npa geom=c
 heck
 ----------------------------------------------------------------------

 --------------------------------------
 CID_55128776_JID_9675_Energie_neutraal
 --------------------------------------
 Structure from the checkpoint file:  "JID_9675.chk"
 Charge =  0 Multiplicity = 1

 SCF Done:  E(RB3LYP) =  -861.194623427     A.U. after   16 cycles
 Normal termination of Gaussian 16 at Mon Dec 14 15:18:52 2020.

 ----------------------------------------------------------------------
 # B3LYP/6-311++G(d,p) empiricaldispersion=gd3bj scf=xqc pop=npa geom=c
 heck
 ----------------------------------------------------------------------

 ------------------------------------
 CID_55128776_JID_9675_Energie_kation
 ------------------------------------
 Structure from the checkpoint file:  "JID_9675.chk"
 Charge =  1 Multiplicity = 2

 SCF Done:  E(UB3LYP) =  -860.890192662     A.U. after   33 cycles
 SCF Done:  E(UB3LYP) =  -860.890192662     a.u. after    1 cycles
 Normal termination of Gaussian 16 at Mon Dec 14 15:52:35 2020.
 Gaussian 16:  ES64L-G16RevA.03 25-Dec-2016

 ----------------------------------------------------------------------
 # B3LYP/6-311++G(d,p) empiricaldispersion=gd3bj scf=xqc pop=npa geom=c
 heck
 ----------------------------------------------------------------------

 -----------------------------------
 CID_55128776_JID_9675_Energie_anion
 -----------------------------------
 Structure from the checkpoint file:  "JID_9675.chk"
 Charge = -1 Multiplicity = 2

                         Standard orientation:
 ---------------------------------------------------------------------
 Center     Atomic      Atomic             Coordinates (Angstroms)
 Number     Number       Type             X           Y           Z
 ---------------------------------------------------------------------
      1          6           0        3.269342    1.193900    2.301551
      2          6           0        1.922163    1.043364    1.592711
      3          6           0        2.025824    1.107597    0.064059
      4          7           0        2.910153    0.098499   -0.511971
      5          6           0        2.605471   -1.093602   -1.098526
      6          8           0        3.471820   -1.857180   -1.509005
      7          6           0        1.121568   -1.464279   -1.220852
      8          7           0        0.566100   -1.770573    0.090071
      9          6           0       -0.739514   -1.727625    0.496290
     10          8           0       -1.053370   -2.155545    1.605546
     11          6           0       -1.754022   -1.096367   -0.465465
     12          6           0       -3.194085   -1.532246   -0.112429
     13          7           0       -3.633085   -1.018257    1.180236
     14          6           0       -1.577967    0.411421   -0.513593
     15          6           0       -1.455148    1.068274   -1.743787
     16          6           0       -1.272446    2.451111   -1.803546
     17          6           0       -1.216999    3.196258   -0.626156
     18          6           0       -1.351968    2.551086    0.605490
     19          6           0       -1.528607    1.169746    0.663926
     20          1           0        3.951410    0.376747    2.039466
     21          1           0        3.146359    1.180625    3.389443
     22          1           0        3.757450    2.139755    2.033203
     23          1           0        1.448144    0.096846    1.875934
     24          1           0        1.239698    1.841526    1.908304
     25          1           0        1.035738    1.007618   -0.378926
     26          1           0        2.407185    2.090793   -0.239347
     27          1           0        3.908608    0.245730   -0.427870
     28          1           0        0.559075   -0.641999   -1.666204
     29          1           0        1.082509   -2.326880   -1.894766
     30          1           0        1.164836   -2.271129    0.737401
     31          1           0       -1.553233   -1.490679   -1.469682
     32          1           0       -3.852857   -1.123864   -0.887743
     33          1           0       -3.232985   -2.632408   -0.198642
     34          1           0       -4.621298   -1.221670    1.311240
     35          1           0       -3.112331   -1.510227    1.903098
     36          1           0       -1.501244    0.490616   -2.664704
     37          1           0       -1.172254    2.941587   -2.767679
     38          1           0       -1.073120    4.272214   -0.666830
     39          1           0       -1.318536    3.126408    1.526597
     40          1           0       -1.634596    0.670694    1.618997
 ---------------------------------------------------------------------

 SCF Done:  E(UB3LYP) =  -861.185809633     A.U. after   33 cycles
 SCF Done:  E(UB3LYP) =  -861.185809633     a.u. after    1 cycles

 The electronic state is 2-A.
 Alpha  occ. eigenvalues --  -19.01238 -19.00728 -14.26283 -14.25413 -14.20017
 Alpha  occ. eigenvalues --  -10.19740 -10.19398 -10.13602 -10.11819 -10.11081
 Alpha  occ. eigenvalues --  -10.10681 -10.09882 -10.08731 -10.08669 -10.08650
 Alpha  occ. eigenvalues --  -10.08547 -10.08355 -10.08019 -10.07508  -0.96414
 Alpha  occ. eigenvalues --   -0.95765  -0.85202  -0.83708  -0.79956  -0.77179
 Alpha  occ. eigenvalues --   -0.70463  -0.69564  -0.66007  -0.65505  -0.63385
 Alpha  occ. eigenvalues --   -0.60799  -0.55864  -0.52736  -0.52202  -0.51740
 Alpha  occ. eigenvalues --   -0.49674  -0.47804  -0.43883  -0.43454  -0.41849
 Alpha  occ. eigenvalues --   -0.41386  -0.39689  -0.38839  -0.37858  -0.36504
 Alpha  occ. eigenvalues --   -0.36152  -0.36020  -0.35893  -0.35486  -0.33577
 Alpha  occ. eigenvalues --   -0.33453  -0.33041  -0.32127  -0.31809  -0.30630
 Alpha  occ. eigenvalues --   -0.29938  -0.29112  -0.28246  -0.27394  -0.26661
 Alpha  occ. eigenvalues --   -0.26308  -0.25674  -0.25471  -0.25381  -0.18929
 Alpha  occ. eigenvalues --   -0.18744  -0.17665  -0.17075  -0.17012  -0.15976
 Alpha  occ. eigenvalues --   -0.15163   0.03760
 Alpha virt. eigenvalues --    0.05419   0.06248   0.06582   0.06720   0.07121
 Alpha virt. eigenvalues --    0.07692   0.08072   0.08328   0.08890   0.09039
 Alpha virt. eigenvalues --    0.09189   0.09473   0.10134   0.10394   0.10936

  Beta  occ. eigenvalues --  -19.01234 -19.00725 -14.26280 -14.25399 -14.20009
  Beta  occ. eigenvalues --  -10.19741 -10.19399 -10.13584 -10.11805 -10.11061
  Beta  occ. eigenvalues --  -10.10669 -10.09874 -10.08708 -10.08654 -10.08639
  Beta  occ. eigenvalues --  -10.08518 -10.08349 -10.08009 -10.07478  -0.96409
  Beta  occ. eigenvalues --   -0.95759  -0.85190  -0.83687  -0.79937  -0.77144
  Beta  occ. eigenvalues --   -0.70425  -0.69535  -0.65967  -0.65477  -0.63339
  Beta  occ. eigenvalues --   -0.60755  -0.55826  -0.52698  -0.52167  -0.51690
  Beta  occ. eigenvalues --   -0.49633  -0.47772  -0.43851  -0.43427  -0.41808
  Beta  occ. eigenvalues --   -0.41349  -0.39671  -0.38792  -0.37841  -0.36483
  Beta  occ. eigenvalues --   -0.36125  -0.35993  -0.35852  -0.35461  -0.33552
  Beta  occ. eigenvalues --   -0.33424  -0.33016  -0.32102  -0.31781  -0.30602
  Beta  occ. eigenvalues --   -0.29916  -0.29067  -0.28219  -0.27359  -0.26621
  Beta  occ. eigenvalues --   -0.26278  -0.25644  -0.25433  -0.25350  -0.18914
  Beta  occ. eigenvalues --   -0.18731  -0.17643  -0.17058  -0.16975  -0.15913
  Beta  occ. eigenvalues --   -0.15143
  Beta virt. eigenvalues --    0.05855   0.06214   0.06580   0.07027   0.07056
  Beta virt. eigenvalues --    0.07348   0.08145   0.08485   0.08785   0.09061
  Beta virt. eigenvalues --    0.09140   0.09386   0.09792   0.10374   0.10674

 Mulliken charges and spin densities:
               1          2
     1  C    0.442138  -1.142511
     2  C   -1.230300   0.892354
     3  C    0.339423  -0.336523
     4  N   -0.203513   0.013928
     5  C   -0.485872   0.375546
     6  O   -0.335331   0.016734
     7  C    0.281486  -0.437062
     8  N   -0.186577  -0.007683
     9  C   -0.126408  -0.182438
    10  O   -0.314008   0.006666
    11  C    1.344338  -0.869623
    12  C    0.883379  -1.718005
    13  N   -0.518407   0.106546
    14  C   -0.956022   1.141114
    15  C    0.408354  -0.456799
    16  C    0.190562  -0.481497
    17  C    0.994163  -1.360434
    18  C   -0.478444   0.053766
    19  C   -1.023380   1.102867
    20  H    0.043685   0.105431
    21  H   -0.207535   0.342399
    22  H   -0.184880   0.342214
    23  H    0.244594  -0.046132
    24  H    0.086438   0.044138
    25  H    1.379776  -1.141882
    26  H   -0.441037   0.653471
    27  H    0.127144   0.201993
    28  H    0.021260   0.161778
    29  H   -0.088802   0.331890
    30  H    0.300765   0.031578
    31  H   -0.104492   0.334826
    32  H   -0.074862   0.257585
    33  H   -0.099473   0.263076
    34  H    0.190378   0.041248
    35  H    0.203636   0.033562
    36  H   -0.570481   0.753600
    37  H   -0.555383   0.752137
    38  H   -0.291392   0.450101
    39  H   -0.195076   0.379661
    40  H    0.190157  -0.009619
 Sum of Mulliken charges =  -1.00000   1.00000

 Dipole moment (field-independent basis, Debye):
    X=             -1.5873    Y=             -2.3480    Z=              3.1154  Tot=              4.2117
 Quadrupole moment (field-independent basis, Debye-Ang):
   XX=           -179.9307   YY=           -177.7596   ZZ=           -167.5682
   XY=             -0.2233   XZ=             -3.3307   YZ=             -1.9418

 Summary of Natural Population Analysis:

                                       Natural Population
                Natural  -----------------------------------------------
    Atom  No    Charge         Core      Valence    Rydberg      Total
 -----------------------------------------------------------------------
      C    1   -0.28873      0.99967     2.28412    0.00494     3.28873
      C    2   -0.19623      0.99963     2.18911    0.00749     3.19623
      C    3   -0.09278      0.99960     2.08166    0.01152     3.09278
      N    4   -0.31148      0.99967     2.80228    0.00954     3.81148
      C    5    0.33622      0.99967     1.64223    0.02188     2.66378
      O    6   -0.32217      0.99988     3.31647    0.00581     4.32217
      C    7   -0.13205      0.99957     2.12224    0.01025     3.13205
      N    8   -0.31493      0.99966     2.80642    0.00885     3.81493
      C    9    0.35572      0.99964     1.62070    0.02394     2.64428
      O   10   -0.33109      0.99987     3.32597    0.00524     4.33109
      C   11   -0.16237      0.99951     2.14903    0.01382     3.16237
      C   12   -0.07967      0.99963     2.06807    0.01197     3.07967
      N   13   -0.42738      0.99976     2.91785    0.00977     3.92738
      C   14   -0.01970      0.99948     2.00697    0.01325     3.01970
      C   15   -0.10434      0.99950     2.09403    0.01081     3.10434
      C   16   -0.09958      0.99955     2.08963    0.01040     3.09958
      C   17   -0.09863      0.99955     2.08879    0.01028     3.09863
      C   18   -0.10112      0.99956     2.09122    0.01034     3.10112
      C   19   -0.09354      0.99950     2.08469    0.00935     3.09354
      H   20    0.09499      0.00000     0.40396    0.00105     0.40501
      H   21    0.10092      0.00000     0.39832    0.00075     0.39908
      H   22    0.09794      0.00000     0.40081    0.00125     0.40206
      H   23    0.09771      0.00000     0.40080    0.00149     0.40229
      H   24    0.10195      0.00000     0.39668    0.00138     0.39805
      H   25    0.10807      0.00000     0.38841    0.00351     0.39193
      H   26    0.09675      0.00000     0.40161    0.00164     0.40325
      H   27    0.19556      0.00000     0.30218    0.00226     0.30444
      H   28    0.11337      0.00000     0.38440    0.00224     0.38663
      H   29    0.10576      0.00000     0.39310    0.00114     0.39424
      H   30    0.19500      0.00000     0.30306    0.00195     0.30500
      H   31    0.11418      0.00000     0.38313    0.00269     0.38582
      H   32    0.09437      0.00000     0.40459    0.00105     0.40563
      H   33    0.08353      0.00000     0.41492    0.00155     0.41647
      H   34    0.17259      0.00000     0.32617    0.00124     0.32741
      H   35    0.18725      0.00000     0.31107    0.00168     0.31275
      H   36    0.10363      0.00000     0.39401    0.00236     0.39637
      H   37    0.10455      0.00000     0.39400    0.00145     0.39545
      H   38    0.10299      0.00000     0.39574    0.00127     0.39701
      H   39    0.10157      0.00000     0.39747    0.00096     0.39843
      H   40    0.11116      0.00000     0.38707    0.00177     0.38884
 =======================================================================
   * Total *   -0.00000     18.99289    51.76297    0.24415    71.00000

 Normal termination of Gaussian 16 at Mon Dec 14 16:26:28 2020.
