 Gaussian 16, Revision A.03,

 -----------------------------------------------------------
 # opt freq B3LYP/6-31G(d) empiricaldispersion=gd3bj scf=xqc
 -----------------------------------------------------------

 ------------------------------
 CID_71444185_JID_2682_neutraal
 ------------------------------
 Symbolic Z-matrix:
 Charge =  0 Multiplicity = 1

 SCF Done:  E(RB3LYP) =  -521.233478889     A.U. after   15 cycles
 SCF Done:  E(RB3LYP) =  -521.255042044     A.U. after   13 cycles
 SCF Done:  E(RB3LYP) =  -521.257771022     A.U. after   12 cycles
 SCF Done:  E(RB3LYP) =  -521.258387652     A.U. after   12 cycles
 SCF Done:  E(RB3LYP) =  -521.258123285     A.U. after   12 cycles
 SCF Done:  E(RB3LYP) =  -521.259548826     A.U. after   12 cycles
 SCF Done:  E(RB3LYP) =  -521.259147971     A.U. after   13 cycles
 SCF Done:  E(RB3LYP) =  -521.260282286     A.U. after   12 cycles
 SCF Done:  E(RB3LYP) =  -521.260546177     A.U. after   13 cycles
 SCF Done:  E(RB3LYP) =  -521.260997206     A.U. after   12 cycles
 SCF Done:  E(RB3LYP) =  -521.264509436     A.U. after   10 cycles
 SCF Done:  E(RB3LYP) =  -521.264522067     A.U. after   10 cycles
 SCF Done:  E(RB3LYP) =  -521.264527152     A.U. after   10 cycles
 SCF Done:  E(RB3LYP) =  -521.264530652     A.U. after    9 cycles
 SCF Done:  E(RB3LYP) =  -521.264530966     A.U. after    7 cycles
 SCF Done:  E(RB3LYP) =  -521.264531034     A.U. after    7 cycles
 Optimization completed.
    -- Stationary point found.
 Normal termination of Gaussian 16 at Wed Dec  9 18:05:30 2020.

 --------------------------------------------------------------------
 #N Geom=AllCheck Guess=TCheck SCRF=Check GenChk RB3LYP/6-31G(d) Freq
 --------------------------------------------------------------------

 Structure from the checkpoint file:  "JID_2682.chk"
 ------------------------------
 CID_71444185_JID_2682_neutraal
 ------------------------------
 Charge =  0 Multiplicity = 1

 SCF Done:  E(RB3LYP) =  -521.264531034     A.U. after    1 cycles

  Exact polarizability: 108.116   9.138 126.487   1.587  -3.511  96.102
 Approx polarizability: 146.062  19.935 180.391  11.188  -4.431 143.721

                      1                      2                      3
                      A                      A                      A
 Frequencies --     42.3918                58.9119                85.4541
 Red. masses --      7.1269                 3.0086                 2.1424
 Frc consts  --      0.0075                 0.0062                 0.0092
 IR Inten    --      1.2128                 0.2629                 0.3275

                      4                      5                      6
                      A                      A                      A
 Frequencies --     98.6699               133.7140               150.7494
 Red. masses --      2.4296                 3.7911                 3.7769
 Frc consts  --      0.0139                 0.0399                 0.0506
 IR Inten    --      0.0445                 0.4484                 0.5005

                      7                      8                      9
                      A                      A                      A
 Frequencies --    208.1414               213.2344               227.9483
 Red. masses --      1.1618                 1.1166                 2.0530
 Frc consts  --      0.0297                 0.0299                 0.0629
 IR Inten    --      0.3879                 0.1312                 1.1057

                     10                     11                     12
                      A                      A                      A
 Frequencies --    244.9968               269.5619               288.5446
 Red. masses --      1.5362                 2.2447                 2.3222
 Frc consts  --      0.0543                 0.0961                 0.1139
 IR Inten    --      0.2198                 1.1187                 0.8121

                     13                     14                     15
                      A                      A                      A
 Frequencies --    310.0472               321.3899               341.4710
 Red. masses --      2.9912                 1.4705                 2.0102
 Frc consts  --      0.1694                 0.0895                 0.1381
 IR Inten    --      4.6276                 1.0350                 0.0608

                     16                     17                     18
                      A                      A                      A
 Frequencies --    402.3954               412.8370               454.8073
 Red. masses --      2.6258                 3.4730                 7.2286
 Frc consts  --      0.2505                 0.3487                 0.8810
 IR Inten    --      0.5436                 0.0596                 6.0244

                     19                     20                     21
                      A                      A                      A
 Frequencies --    492.9484               539.5471               549.7854
 Red. masses --      3.0824                 1.8706                 3.1942
 Frc consts  --      0.4413                 0.3208                 0.5689
 IR Inten    --      1.8923                 7.7916                 5.0119

                     22                     23                     24
                      A                      A                      A
 Frequencies --    595.4798               608.5515               619.3629
 Red. masses --      4.3444                 1.9183                 1.6480
 Frc consts  --      0.9076                 0.4186                 0.3725
 IR Inten    --     15.5256                15.0216                27.1636

                     25                     26                     27
                      A                      A                      A
 Frequencies --    639.4805               678.7592               748.8210
 Red. masses --      1.2284                 1.4170                 3.2025
 Frc consts  --      0.2960                 0.3846                 1.0580
 IR Inten    --     37.5997               103.6500                 8.2793

                     28                     29                     30
                      A                      A                      A
 Frequencies --    802.2332               845.6838               860.8298
 Red. masses --      1.3963                 2.0694                 2.6993
 Frc consts  --      0.5294                 0.8720                 1.1785
 IR Inten    --      3.0144                 3.5739                 2.9049

                     31                     32                     33
                      A                      A                      A
 Frequencies --    924.1340               976.1568               984.5028
 Red. masses --      1.8063                 2.3347                 1.2738
 Frc consts  --      0.9089                 1.3108                 0.7274
 IR Inten    --      1.4282                 2.9055                 5.4211

                     34                     35                     36
                      A                      A                      A
 Frequencies --   1014.7118              1036.5262              1047.6865
 Red. masses --      1.6259                 1.5219                 2.1827
 Frc consts  --      0.9863                 0.9634                 1.4116
 IR Inten    --      3.3533                12.6158                 7.1905

                     37                     38                     39
                      A                      A                      A
 Frequencies --   1068.3959              1091.9327              1134.0140
 Red. masses --      1.6992                 1.7293                 2.3715
 Frc consts  --      1.1428                 1.2148                 1.7969
 IR Inten    --      5.3199                14.7453                 2.0656

                     40                     41                     42
                      A                      A                      A
 Frequencies --   1151.3973              1195.0409              1213.9825
 Red. masses --      2.3373                 2.3338                 2.2211
 Frc consts  --      1.8256                 1.9637                 1.9286
 IR Inten    --     21.4182                16.3400                11.6748

                     43                     44                     45
                      A                      A                      A
 Frequencies --   1228.7821              1313.7558              1343.1999
 Red. masses --      2.9025                 1.3215                 1.2824
 Frc consts  --      2.5821                 1.3438                 1.3632
 IR Inten    --     10.5347                 6.7210                30.7349

                     46                     47                     48
                      A                      A                      A
 Frequencies --   1370.7372              1377.6248              1400.8325
 Red. masses --      2.1049                 1.3349                 1.4729
 Frc consts  --      2.3302                 1.4927                 1.7029
 IR Inten    --    176.7295                 1.5394                 0.8925

                     49                     50                     51
                      A                      A                      A
 Frequencies --   1428.7826              1436.8779              1439.8900
 Red. masses --      1.6681                 1.2111                 1.2612
 Frc consts  --      2.0064                 1.4732                 1.5406
 IR Inten    --    148.5677                13.3516                 0.5585

                     52                     53                     54
                      A                      A                      A
 Frequencies --   1444.0139              1492.9550              1501.2789
 Red. masses --      1.2159                 1.4475                 1.0982
 Frc consts  --      1.4938                 1.9009                 1.4583
 IR Inten    --      5.8354                49.5246                 5.1245

                     55                     56                     57
                      A                      A                      A
 Frequencies --   1513.9595              1519.7324              1527.6474
 Red. masses --      1.0620                 1.0575                 1.0428
 Frc consts  --      1.4341                 1.4390                 1.4339
 IR Inten    --      3.1903                 1.7980                 6.3558

                     58                     59                     60
                      A                      A                      A
 Frequencies --   1533.9886              1535.9609              1540.7132
 Red. masses --      1.0566                 1.0536                 1.0705
 Frc consts  --      1.4649                 1.4645                 1.4972
 IR Inten    --      8.4297                 3.1381                 4.7872

                     61                     62                     63
                      A                      A                      A
 Frequencies --   1546.9502              1548.5394              1776.8417
 Red. masses --      1.0518                 1.0442                 6.9691
 Frc consts  --      1.4830                 1.4753                12.9636
 IR Inten    --      1.9591                 4.0897               351.1797

                     64                     65                     66
                      A                      A                      A
 Frequencies --   2237.4947              3026.1351              3048.2718
 Red. masses --      5.9391                 1.0827                 1.0558
 Frc consts  --     17.5184                 5.8416                 5.7804
 IR Inten    --      0.0576                14.5750                16.7447

                     67                     68                     69
                      A                      A                      A
 Frequencies --   3050.6032              3060.3818              3080.2932
 Red. masses --      1.0412                 1.0396                 1.0396
 Frc consts  --      5.7091                 5.7369                 5.8115
 IR Inten    --     46.5040                14.3704                 3.1061

                     70                     71                     72
                      A                      A                      A
 Frequencies --   3085.1689              3089.4914              3114.0149
 Red. masses --      1.0558                 1.0794                 1.1015
 Frc consts  --      5.9211                 6.0702                 6.2932
 IR Inten    --      2.4940                25.5977                36.2021

                     73                     74                     75
                      A                      A                      A
 Frequencies --   3126.8461              3132.2148              3143.8747
 Red. masses --      1.1007                 1.0996                 1.1014
 Frc consts  --      6.3406                 6.3562                 6.4141
 IR Inten    --     35.4624                32.6946                19.6407

                     76                     77                     78
                      A                      A                      A
 Frequencies --   3150.0020              3152.3693              3178.9619
 Red. masses --      1.1022                 1.1015                 1.1029
 Frc consts  --      6.4436                 6.4495                 6.5669
 IR Inten    --      7.2046                19.0984                12.5775

                     79                     80                     81
                      A                      A                      A
 Frequencies --   3193.6893              3494.8950              3587.7605
 Red. masses --      1.0977                 1.1609                 1.0753
 Frc consts  --      6.5963                 8.3543                 8.1549
 IR Inten    --     18.4475                64.7923                17.7000

 - Thermochemistry -
 -------------------
 Temperature   298.150 Kelvin.  Pressure   1.00000 Atm.
 Atom     1 has atomic number  6 and mass  12.00000

 Molecular mass:   167.13101 amu.
 Principal axes and moments of inertia in atomic units:
                           1         2         3
     Eigenvalues --  1975.935592255.450383124.60041
           X            0.99193  -0.11861  -0.04468
           Y            0.11776   0.99281  -0.02132
           Z            0.04689   0.01589   0.99877
 This molecule is an asymmetric top.
 Rotational symmetry number  1.
 Warning -- assumption of classical behavior for rotation
           may cause significant error
 Rotational temperatures (Kelvin)      0.04383     0.03840     0.02772
 Rotational constants (GHZ):           0.91336     0.80017     0.57759
 Zero-point vibrational energy     669075.9 (Joules/Mol)
                                  159.91299 (Kcal/Mol)
 Warning -- explicit consideration of  24 degrees of freedom as
           vibrations may cause significant error
 Vibrational temperatures:     60.99    84.76   122.95   141.96   192.38
          (Kelvin)            216.89   299.47   306.80   327.97   352.50
                              387.84   415.15   446.09   462.41   491.30
                              578.96   593.98   654.37   709.24   776.29
                              791.02   856.76   875.57   891.13   920.07
                              976.58  1077.39  1154.23  1216.75  1238.54
                             1329.62  1404.47  1416.48  1459.94  1491.33
                             1507.39  1537.18  1571.05  1631.59  1656.60
                             1719.40  1746.65  1767.94  1890.20  1932.57
                             1972.19  1982.09  2015.49  2055.70  2067.35
                             2071.68  2077.61  2148.03  2160.01  2178.25
                             2186.56  2197.94  2207.07  2209.91  2216.74
                             2225.72  2228.00  2556.48  3219.26  4353.93
                             4385.78  4389.14  4403.21  4431.85  4438.87
                             4445.09  4480.37  4498.83  4506.56  4523.33
                             4532.15  4535.56  4573.82  4595.01  5028.37
                             5161.99

 Zero-point correction=                           0.254838 (Hartree/Particle)
 Thermal correction to Energy=                    0.269313
 Thermal correction to Enthalpy=                  0.270257
 Thermal correction to Gibbs Free Energy=         0.214260
 Sum of electronic and zero-point Energies=           -521.009693
 Sum of electronic and thermal Energies=              -520.995218
 Sum of electronic and thermal Enthalpies=            -520.994274
 Sum of electronic and thermal Free Energies=         -521.050271

                     E (Thermal)             CV                S
                      KCal/Mol        Cal/Mol-Kelvin    Cal/Mol-Kelvin
 Total                  168.996             54.050            117.856
 Electronic               0.000              0.000              0.000
 Translational            0.889              2.981             41.249
 Rotational               0.889              2.981             31.010
 Vibrational            167.219             48.088             45.597
 Vibration     1          0.595              1.980              5.144
 Vibration     2          0.596              1.974              4.493
 Vibration     3          0.601              1.959              3.762
 Vibration     4          0.604              1.950              3.480
 Vibration     5          0.613              1.920              2.892
 Vibration     6          0.618              1.902              2.663
 Vibration     7          0.641              1.828              2.060
 Vibration     8          0.644              1.821              2.016
 Vibration     9          0.651              1.798              1.895
 Vibration    10          0.660              1.771              1.766
 Vibration    11          0.674              1.729              1.599
 Vibration    12          0.685              1.695              1.482
 Vibration    13          0.699              1.655              1.362
 Vibration    14          0.707              1.633              1.303
 Vibration    15          0.721              1.593              1.205
 Vibration    16          0.768              1.465              0.954
 Vibration    17          0.777              1.442              0.917
 Vibration    18          0.813              1.350              0.781
 Vibration    19          0.849              1.266              0.676
 Vibration    20          0.895              1.163              0.566
 Vibration    21          0.905              1.140              0.545
 Vibration    22          0.953              1.041              0.457
 Vibration    23          0.967              1.014              0.435
 Vibration    24          0.979              0.991              0.418

                           ! Non-Optimized Parameters !
 Normal termination of Gaussian 16 at Wed Dec  9 18:13:15 2020.

 ----------------------------------------------------------------------
 # B3LYP/6-311++G(d,p) empiricaldispersion=gd3bj scf=xqc pop=npa geom=c
 heck
 ----------------------------------------------------------------------

 --------------------------------------
 CID_71444185_JID_2682_Energie_neutraal
 --------------------------------------
 Structure from the checkpoint file:  "JID_2682.chk"
 Charge =  0 Multiplicity = 1

 SCF Done:  E(RB3LYP) =  -521.421223697     A.U. after   15 cycles
 Normal termination of Gaussian 16 at Wed Dec  9 18:16:25 2020.

 ----------------------------------------------------------------------
 # B3LYP/6-311++G(d,p) empiricaldispersion=gd3bj scf=xqc pop=npa geom=c
 heck
 ----------------------------------------------------------------------

 ------------------------------------
 CID_71444185_JID_2682_Energie_kation
 ------------------------------------
 Structure from the checkpoint file:  "JID_2682.chk"
 Charge =  1 Multiplicity = 2

 SCF Done:  E(UB3LYP) =  -521.093666737     A.U. after   27 cycles
 Normal termination of Gaussian 16 at Wed Dec  9 18:23:12 2020.
 Gaussian 16:  ES64L-G16RevA.03 25-Dec-2016

 ----------------------------------------------------------------------
 # B3LYP/6-311++G(d,p) empiricaldispersion=gd3bj scf=xqc pop=npa geom=c
 heck
 ----------------------------------------------------------------------

 -----------------------------------
 CID_71444185_JID_2682_Energie_anion
 -----------------------------------
 Structure from the checkpoint file:  "JID_2682.chk"
 Charge = -1 Multiplicity = 2

                         Standard orientation:
 ---------------------------------------------------------------------
 Center     Atomic      Atomic             Coordinates (Angstroms)
 Number     Number       Type             X           Y           Z
 ---------------------------------------------------------------------
      1          6           0        2.590966   -2.251826    0.095730
      2          6           0        1.280618   -1.489835    0.324240
      3          6           0        1.372679    0.011012   -0.000702
      4          6           0        1.734404    0.233270   -1.475518
      5          6           0        0.067786    0.800595    0.389628
      6          6           0       -0.238565    0.700265    1.898418
      7          6           0        0.296767    2.234609    0.120150
      8          6           0        0.490597    3.407645   -0.085572
      9          7           0       -1.073976    0.415605   -0.468380
     10          6           0       -2.033916   -0.573411   -0.438623
     11          8           0       -2.722789   -0.757847   -1.435435
     12          6           0       -2.272007   -1.380418    0.825544
     13          1           0        2.871150   -2.279513   -0.961516
     14          1           0        2.497613   -3.288074    0.438034
     15          1           0        3.417517   -1.790487    0.649930
     16          1           0        0.489330   -1.940243   -0.288198
     17          1           0        0.988174   -1.626595    1.371254
     18          1           0        2.170741    0.445616    0.618357
     19          1           0        1.018585   -0.273935   -2.132931
     20          1           0        1.740976    1.297441   -1.727057
     21          1           0        2.728108   -0.164821   -1.696901
     22          1           0        0.602167    1.126537    2.452166
     23          1           0       -1.134825    1.278854    2.135647
     24          1           0       -0.381277   -0.324678    2.235312
     25          1           0        0.652928    4.445876   -0.266702
     26          1           0       -1.059067    0.853778   -1.381746
     27          1           0       -1.383606   -1.933979    1.139000
     28          1           0       -2.581890   -0.736817    1.653822
     29          1           0       -3.072458   -2.086854    0.603900
 ---------------------------------------------------------------------

 SCF Done:  E(UB3LYP) =  -521.408368595     A.U. after   32 cycles

 The electronic state is 2-A.
 Alpha  occ. eigenvalues --  -18.99459 -14.24236 -10.18515 -10.16005 -10.08903
 Alpha  occ. eigenvalues --  -10.08647 -10.08019 -10.07794 -10.07644 -10.07215
 Alpha  occ. eigenvalues --  -10.06394 -10.06253  -0.94692  -0.83713  -0.72872
 Alpha  occ. eigenvalues --   -0.68720  -0.65121  -0.64365  -0.62909  -0.56483
 Alpha  occ. eigenvalues --   -0.54942  -0.49150  -0.46262  -0.45584  -0.41344
 Alpha  occ. eigenvalues --   -0.39172  -0.38300  -0.36958  -0.35058  -0.34624
 Alpha  occ. eigenvalues --   -0.32630  -0.32183  -0.31849  -0.29926  -0.29040
 Alpha  occ. eigenvalues --   -0.28657  -0.27981  -0.27729  -0.26592  -0.24834
 Alpha  occ. eigenvalues --   -0.23728  -0.23228  -0.19762  -0.18866  -0.16740
 Alpha  occ. eigenvalues --   -0.16032   0.04260
 Alpha virt. eigenvalues --    0.06171   0.06905   0.08027   0.08341   0.09152
 Alpha virt. eigenvalues --    0.09645   0.09946   0.10235   0.10565   0.11400
 Alpha virt. eigenvalues --    0.11740   0.12163   0.12379   0.13072   0.13379

  Beta  occ. eigenvalues --  -18.99457 -14.24228 -10.18513 -10.16000 -10.08892
  Beta  occ. eigenvalues --  -10.08650 -10.07993 -10.07766 -10.07610 -10.07193
  Beta  occ. eigenvalues --  -10.06377 -10.06216  -0.94686  -0.83699  -0.72850
  Beta  occ. eigenvalues --   -0.68695  -0.65085  -0.64335  -0.62865  -0.56433
  Beta  occ. eigenvalues --   -0.54877  -0.49100  -0.46216  -0.45533  -0.41302
  Beta  occ. eigenvalues --   -0.39144  -0.38271  -0.36921  -0.35032  -0.34593
  Beta  occ. eigenvalues --   -0.32609  -0.32155  -0.31822  -0.29889  -0.29007
  Beta  occ. eigenvalues --   -0.28628  -0.27956  -0.27670  -0.26557  -0.24805
  Beta  occ. eigenvalues --   -0.23688  -0.23192  -0.19744  -0.18845  -0.16732
  Beta  occ. eigenvalues --   -0.16022
  Beta virt. eigenvalues --    0.06560   0.07351   0.07547   0.08630   0.08959
  Beta virt. eigenvalues --    0.09571   0.09876   0.10175   0.10494   0.10932
  Beta virt. eigenvalues --    0.11776   0.11971   0.12492   0.12596   0.13376

 Mulliken charges and spin densities:
               1          2
     1  C    1.708661  -2.444322
     2  C   -2.173161   1.930087
     3  C    1.726482  -1.487945
     4  C   -0.059918  -0.821254
     5  C   -1.904907   2.024964
     6  C    0.896948  -1.544641
     7  C    4.450711  -4.502838
     8  C   -2.885869   2.934072
     9  N   -0.084366  -0.048851
    10  C   -0.123102   0.143754
    11  O   -0.320138   0.000704
    12  C    0.326347  -0.670825
    13  H   -0.018706   0.158729
    14  H   -0.436534   0.586749
    15  H   -0.371530   0.519926
    16  H    0.214468  -0.037130
    17  H   -0.169044   0.301945
    18  H    0.097787   0.116374
    19  H    0.025953   0.152852
    20  H    0.174029  -0.034622
    21  H   -0.147845   0.292697
    22  H   -0.285228   0.462754
    23  H   -0.059632   0.247384
    24  H   -0.175299   0.309185
    25  H   -1.309411   1.498563
    26  H    0.277497   0.025125
    27  H   -0.313820   0.480068
    28  H   -0.154843   0.314335
    29  H    0.094470   0.092160
 Sum of Mulliken charges =  -1.00000   1.00000

 Dipole moment (field-independent basis, Debye):
    X=             -1.8894    Y=             -0.6722    Z=             -2.0264  Tot=              2.8510
 Quadrupole moment (field-independent basis, Debye-Ang):
   XX=           -129.8306   YY=           -140.4815   ZZ=           -117.2829
   XY=              1.0779   XZ=             -7.9795   YZ=              2.8403

 Summary of Natural Population Analysis:

                                       Natural Population
                Natural  -----------------------------------------------
    Atom  No    Charge         Core      Valence    Rydberg      Total
 -----------------------------------------------------------------------
      C    1   -0.28217      0.99966     2.27718    0.00533     3.28217
      C    2   -0.19411      0.99961     2.18481    0.00969     3.19411
      C    3   -0.10288      0.99957     2.09138    0.01194     3.10288
      C    4   -0.29390      0.99964     2.28738    0.00687     3.29390
      C    5    0.02994      0.99947     1.95358    0.01701     2.97006
      C    6   -0.28281      0.99963     2.27522    0.00797     3.28281
      C    7   -0.00415      0.99936     1.99265    0.01214     3.00415
      C    8   -0.10351      0.99924     2.10000    0.00427     3.10351
      N    9   -0.32535      0.99965     2.81428    0.01142     3.82535
      C   10    0.34653      0.99969     1.63272    0.02106     2.65347
      O   11   -0.32518      0.99988     3.31951    0.00579     4.32518
      C   12   -0.33385      0.99962     2.32930    0.00493     3.33385
      H   13    0.09542      0.00000     0.40361    0.00097     0.40458
      H   14    0.10195      0.00000     0.39694    0.00112     0.39805
      H   15    0.09829      0.00000     0.40033    0.00138     0.40171
      H   16    0.09443      0.00000     0.40373    0.00185     0.40557
      H   17    0.10012      0.00000     0.39779    0.00210     0.39988
      H   18    0.10111      0.00000     0.39661    0.00228     0.39889
      H   19    0.09776      0.00000     0.40119    0.00105     0.40224
      H   20    0.10745      0.00000     0.39162    0.00093     0.39255
      H   21    0.10401      0.00000     0.39522    0.00077     0.39599
      H   22    0.11042      0.00000     0.38806    0.00152     0.38958
      H   23    0.10624      0.00000     0.39245    0.00131     0.39376
      H   24    0.10595      0.00000     0.39218    0.00186     0.39405
      H   25    0.11460      0.00000     0.38292    0.00248     0.38540
      H   26    0.19830      0.00000     0.29938    0.00232     0.30170
      H   27    0.11196      0.00000     0.38664    0.00140     0.38804
      H   28    0.11130      0.00000     0.38764    0.00106     0.38870
      H   29    0.11214      0.00000     0.38705    0.00082     0.38786
 =======================================================================
   * Total *   -0.00000     11.99501    33.86135    0.14363    46.00000

 Normal termination of Gaussian 16 at Wed Dec  9 18:30:47 2020.
