 Gaussian 16, Revision A.03,

 -----------------------------------------------------------
 # opt freq B3LYP/6-31G(d) empiricaldispersion=gd3bj scf=xqc
 -----------------------------------------------------------

 -------------------------------
 CID_152254484_JID_2117_neutraal
 -------------------------------
 Symbolic Z-matrix:
 Charge =  0 Multiplicity = 1

 SCF Done:  E(RB3LYP) =  -553.328690488     A.U. after   15 cycles
 SCF Done:  E(RB3LYP) =  -553.332219058     A.U. after   14 cycles
 SCF Done:  E(RB3LYP) =  -553.333624455     A.U. after   14 cycles
 SCF Done:  E(RB3LYP) =  -553.333932360     A.U. after   13 cycles
 SCF Done:  E(RB3LYP) =  -553.334082328     A.U. after   11 cycles
 SCF Done:  E(RB3LYP) =  -553.334283541     A.U. after   13 cycles
 SCF Done:  E(RB3LYP) =  -553.334342956     A.U. after   11 cycles
 SCF Done:  E(RB3LYP) =  -553.334368190     A.U. after   11 cycles
 SCF Done:  E(RB3LYP) =  -553.334377004     A.U. after   11 cycles
 SCF Done:  E(RB3LYP) =  -553.334381552     A.U. after    8 cycles
 SCF Done:  E(RB3LYP) =  -553.334391401     A.U. after   11 cycles
 SCF Done:  E(RB3LYP) =  -553.334393039     A.U. after    9 cycles
 SCF Done:  E(RB3LYP) =  -553.334393466     A.U. after    8 cycles
 SCF Done:  E(RB3LYP) =  -553.334393550     A.U. after    7 cycles
 SCF Done:  E(RB3LYP) =  -553.334393556     A.U. after    7 cycles
 Optimization completed.
    -- Stationary point found.
 Normal termination of Gaussian 16 at Wed Dec  9 16:54:14 2020.

 --------------------------------------------------------------------
 #N Geom=AllCheck Guess=TCheck SCRF=Check GenChk RB3LYP/6-31G(d) Freq
 --------------------------------------------------------------------

 Structure from the checkpoint file:  "JID_2117.chk"
 -------------------------------
 CID_152254484_JID_2117_neutraal
 -------------------------------
 Charge =  0 Multiplicity = 1

 SCF Done:  E(RB3LYP) =  -553.334393556     A.U. after    1 cycles

  Exact polarizability: 129.244   9.475 100.500  -2.220  -0.726  85.700
 Approx polarizability: 201.644  33.987 147.751 -10.142  -4.816 123.374

                      1                      2                      3
                      A                      A                      A
 Frequencies --     26.5269                40.0756                87.3414
 Red. masses --      2.6626                 5.4944                 4.0763
 Frc consts  --      0.0011                 0.0052                 0.0183
 IR Inten    --      0.2726                 0.3561                 0.7339

                      4                      5                      6
                      A                      A                      A
 Frequencies --    107.6408               149.5765               188.6724
 Red. masses --      3.4622                 3.0562                 3.5228
 Frc consts  --      0.0236                 0.0403                 0.0739
 IR Inten    --      1.4131                 0.9711                 1.6727

                      7                      8                      9
                      A                      A                      A
 Frequencies --    221.2597               237.3751               259.4240
 Red. masses --      1.3436                 1.9233                 2.2905
 Frc consts  --      0.0388                 0.0639                 0.0908
 IR Inten    --      2.2357                15.8168                 2.8858

                     10                     11                     12
                      A                      A                      A
 Frequencies --    274.0709               309.6503               361.5096
 Red. masses --      1.7470                 2.3052                 1.9932
 Frc consts  --      0.0773                 0.1302                 0.1535
 IR Inten    --     55.8551                21.9884                 2.1702

                     13                     14                     15
                      A                      A                      A
 Frequencies --    402.8145               429.8840               454.6139
 Red. masses --      2.4527                 2.8164                 2.8280
 Frc consts  --      0.2345                 0.3067                 0.3444
 IR Inten    --      3.0468                 4.0401                 4.8256

                     16                     17                     18
                      A                      A                      A
 Frequencies --    527.1304               576.8414               612.8515
 Red. masses --      3.7874                13.4930                 2.1428
 Frc consts  --      0.6201                 2.6453                 0.4742
 IR Inten    --      6.7292                10.8070                 1.8273

                     19                     20                     21
                      A                      A                      A
 Frequencies --    651.0909               675.8569               763.7741
 Red. masses --      5.0715                 3.8787                 2.4960
 Frc consts  --      1.2667                 1.0439                 0.8579
 IR Inten    --     25.8657                 4.6727                 0.3481

                     22                     23                     24
                      A                      A                      A
 Frequencies --    792.8007               836.3965               843.6506
 Red. masses --      1.5410                 3.1627                 2.0405
 Frc consts  --      0.5707                 1.3036                 0.8557
 IR Inten    --      1.4150                 1.7596                 0.6834

                     25                     26                     27
                      A                      A                      A
 Frequencies --    876.2415               904.7130               921.6076
 Red. masses --      1.9819                 2.6908                 2.2899
 Frc consts  --      0.8966                 1.2977                 1.1459
 IR Inten    --      8.4714                 0.7116                14.9889

                     28                     29                     30
                      A                      A                      A
 Frequencies --    961.5230               963.3616              1007.4813
 Red. masses --      1.9615                 2.2516                 1.9409
 Frc consts  --      1.0685                 1.2312                 1.1607
 IR Inten    --     13.7909                 6.3881                 2.2353

                     31                     32                     33
                      A                      A                      A
 Frequencies --   1025.8081              1041.0618              1057.9686
 Red. masses --      1.7176                 1.5327                 2.3317
 Frc consts  --      1.0649                 0.9787                 1.5377
 IR Inten    --     20.1193                 2.2687                18.2045

                     34                     35                     36
                      A                      A                      A
 Frequencies --   1082.7717              1104.1432              1167.6417
 Red. masses --      1.5704                 1.6568                 1.8129
 Frc consts  --      1.0848                 1.1901                 1.4562
 IR Inten    --      0.9746                18.7356                26.3664

                     37                     38                     39
                      A                      A                      A
 Frequencies --   1187.5277              1201.5026              1226.3824
 Red. masses --      2.5559                 1.3453                 1.6035
 Frc consts  --      2.1237                 1.1443                 1.4209
 IR Inten    --     24.0053                25.2350                 3.1798

                     40                     41                     42
                      A                      A                      A
 Frequencies --   1251.2569              1289.6699              1310.3426
 Red. masses --      1.4842                 1.2591                 1.2576
 Frc consts  --      1.3691                 1.2338                 1.2722
 IR Inten    --      4.2389                 2.5750                 8.0681

                     43                     44                     45
                      A                      A                      A
 Frequencies --   1319.9651              1335.1266              1336.0759
 Red. masses --      1.2632                 6.5249                 1.4964
 Frc consts  --      1.2967                 6.8528                 1.5738
 IR Inten    --     18.7244               179.5429                 4.9967

                     46                     47                     48
                      A                      A                      A
 Frequencies --   1348.5153              1359.8742              1369.5536
 Red. masses --      1.4969                 1.2950                 1.4487
 Frc consts  --      1.6039                 1.4110                 1.6010
 IR Inten    --     21.6749                 2.8921                38.7057

                     49                     50                     51
                      A                      A                      A
 Frequencies --   1382.4533              1402.6476              1428.0568
 Red. masses --      1.3680                 1.4932                 1.6820
 Frc consts  --      1.5404                 1.7309                 2.0210
 IR Inten    --      8.3898                16.5261                21.1060

                     52                     53                     54
                      A                      A                      A
 Frequencies --   1443.1565              1509.8282              1511.6743
 Red. masses --      1.2567                 1.0807                 1.0783
 Frc consts  --      1.5421                 1.4515                 1.4518
 IR Inten    --     11.9067                 0.4303                 5.3361

                     55                     56                     57
                      A                      A                      A
 Frequencies --   1515.4831              1528.3684              1531.1253
 Red. masses --      1.0810                 1.0558                 1.0538
 Frc consts  --      1.4628                 1.4531                 1.4555
 IR Inten    --      1.3560                 2.7330                 2.7464

                     58                     59                     60
                      A                      A                      A
 Frequencies --   1532.0827              1549.6115              2258.3517
 Red. masses --      1.0825                 1.1011                13.6505
 Frc consts  --      1.4970                 1.5578                41.0188
 IR Inten    --      2.7169                 3.2267               585.4544

                     61                     62                     63
                      A                      A                      A
 Frequencies --   3018.9172              3036.2828              3060.3446
 Red. masses --      1.0842                 1.0715                 1.0504
 Frc consts  --      5.8220                 5.8202                 5.7963
 IR Inten    --     25.4361                36.7235                18.8473

                     64                     65                     66
                      A                      A                      A
 Frequencies --   3064.1052              3065.7887              3072.5082
 Red. masses --      1.0518                 1.0610                 1.0599
 Frc consts  --      5.8184                 5.8756                 5.8951
 IR Inten    --      6.0574                43.1024                44.8579

                     67                     68                     69
                      A                      A                      A
 Frequencies --   3075.2971              3100.1039              3101.5286
 Red. masses --      1.0693                 1.0952                 1.1021
 Frc consts  --      5.9584                 6.2014                 6.2464
 IR Inten    --     19.9821                19.5838                15.6021

                     70                     71                     72
                      A                      A                      A
 Frequencies --   3109.8104              3122.7866              3126.5538
 Red. masses --      1.0998                 1.1018                 1.1063
 Frc consts  --      6.2663                 6.3306                 6.3717
 IR Inten    --     38.9461                16.9319                32.4699

                     73                     74                     75
                      A                      A                      A
 Frequencies --   3139.4318              3167.6796              3751.9260
 Red. masses --      1.0996                 1.0984                 1.0657
 Frc consts  --      6.3856                 6.4935                 8.8392
 IR Inten    --     23.0564                15.7770                 5.4597

 - Thermochemistry -
 -------------------
 Temperature   298.150 Kelvin.  Pressure   1.00000 Atm.
 Atom     1 has atomic number  6 and mass  12.00000

 Molecular mass:   169.12151 amu.
 Principal axes and moments of inertia in atomic units:
                           1         2         3
     Eigenvalues --  1214.757213001.181453446.92816
           X            0.99874  -0.04998  -0.00328
           Y            0.05004   0.99859   0.01776
           Z            0.00239  -0.01790   0.99984
 This molecule is an asymmetric top.
 Rotational symmetry number  1.
 Warning -- assumption of classical behavior for rotation
           may cause significant error
 Rotational temperatures (Kelvin)      0.07130     0.02886     0.02513
 Rotational constants (GHZ):           1.48568     0.60134     0.52358
 Zero-point vibrational energy     616596.3 (Joules/Mol)
                                  147.37005 (Kcal/Mol)
 Warning -- explicit consideration of  18 degrees of freedom as
           vibrations may cause significant error
 Vibrational temperatures:     38.17    57.66   125.66   154.87   215.21
          (Kelvin)            271.46   318.34   341.53   373.25   394.33
                              445.52   520.13   579.56   618.51   654.09
                              758.42   829.95   881.76   936.77   972.41
                             1098.90  1140.66  1203.39  1213.83  1260.72
                             1301.68  1325.99  1383.42  1386.06  1449.54
                             1475.91  1497.86  1522.18  1557.87  1588.62
                             1679.98  1708.59  1728.69  1764.49  1800.28
                             1855.55  1885.29  1899.14  1920.95  1922.32
                             1940.21  1956.56  1970.48  1989.04  2018.10
                             2054.66  2076.38  2172.31  2174.96  2180.44
                             2198.98  2202.95  2204.33  2229.55  3249.26
                             4343.55  4368.53  4403.15  4408.56  4410.99
                             4420.65  4424.67  4460.36  4462.41  4474.32
                             4492.99  4498.41  4516.94  4557.58  5398.18

 Zero-point correction=                           0.234849 (Hartree/Particle)
 Thermal correction to Energy=                    0.247430
 Thermal correction to Enthalpy=                  0.248374
 Thermal correction to Gibbs Free Energy=         0.195063
 Sum of electronic and zero-point Energies=           -553.099544
 Sum of electronic and thermal Energies=              -553.086964
 Sum of electronic and thermal Enthalpies=            -553.086019
 Sum of electronic and thermal Free Energies=         -553.139331

                     E (Thermal)             CV                S
                      KCal/Mol        Cal/Mol-Kelvin    Cal/Mol-Kelvin
 Total                  155.265             46.941            112.204
 Electronic               0.000              0.000              0.000
 Translational            0.889              2.981             41.284
 Rotational               0.889              2.981             30.908
 Vibrational            153.487             40.980             40.011
 Vibration     1          0.593              1.984              6.074
 Vibration     2          0.594              1.981              5.255
 Vibration     3          0.601              1.958              3.719
 Vibration     4          0.606              1.943              3.311
 Vibration     5          0.618              1.903              2.678
 Vibration     6          0.633              1.855              2.241
 Vibration     7          0.648              1.809              1.949
 Vibration     8          0.656              1.783              1.822
 Vibration     9          0.668              1.747              1.666
 Vibration    10          0.676              1.721              1.570
 Vibration    11          0.699              1.655              1.364
 Vibration    12          0.736              1.552              1.116
 Vibration    13          0.768              1.464              0.952
 Vibration    14          0.791              1.405              0.859
 Vibration    15          0.813              1.351              0.782
 Vibration    16          0.882              1.190              0.594
 Vibration    17          0.933              1.081              0.491
 Vibration    18          0.972              1.005              0.428

                           ! Non-Optimized Parameters !
 Normal termination of Gaussian 16 at Wed Dec  9 17:00:41 2020.

 ----------------------------------------------------------------------
 # B3LYP/6-311++G(d,p) empiricaldispersion=gd3bj scf=xqc pop=npa geom=c
 heck
 ----------------------------------------------------------------------

 ---------------------------------------
 CID_152254484_JID_2117_Energie_neutraal
 ---------------------------------------
 Structure from the checkpoint file:  "JID_2117.chk"
 Charge =  0 Multiplicity = 1

 SCF Done:  E(RB3LYP) =  -553.497746434     A.U. after   15 cycles
 Normal termination of Gaussian 16 at Wed Dec  9 17:03:38 2020.

 ----------------------------------------------------------------------
 # B3LYP/6-311++G(d,p) empiricaldispersion=gd3bj scf=xqc pop=npa geom=c
 heck
 ----------------------------------------------------------------------

 -------------------------------------
 CID_152254484_JID_2117_Energie_kation
 -------------------------------------
 Structure from the checkpoint file:  "JID_2117.chk"
 Charge =  1 Multiplicity = 2

 SCF Done:  E(UB3LYP) =  -553.163455155     A.U. after   27 cycles
 Normal termination of Gaussian 16 at Wed Dec  9 17:10:19 2020.
 Gaussian 16:  ES64L-G16RevA.03 25-Dec-2016

 ----------------------------------------------------------------------
 # B3LYP/6-311++G(d,p) empiricaldispersion=gd3bj scf=xqc pop=npa geom=c
 heck
 ----------------------------------------------------------------------

 ------------------------------------
 CID_152254484_JID_2117_Energie_anion
 ------------------------------------
 Structure from the checkpoint file:  "JID_2117.chk"
 Charge = -1 Multiplicity = 2

                         Standard orientation:
 ---------------------------------------------------------------------
 Center     Atomic      Atomic             Coordinates (Angstroms)
 Number     Number       Type             X           Y           Z
 ---------------------------------------------------------------------
      1          6           0       -1.815361    1.498267    1.103021
      2          6           0       -1.461803    0.961539   -0.288702
      3          6           0       -0.056294    1.340318   -0.778254
      4          6           0        1.166988    0.538695   -0.301365
      5          6           0        1.413187   -0.770948   -1.097154
      6          6           0        2.149737   -1.741263   -0.131045
      7          6           0        2.347586   -0.950249    1.184384
      8          6           0        1.198097    0.067734    1.166080
      9          8           0        2.253086    1.462158   -0.530265
     10          7           0       -1.621376   -0.524204   -0.357338
     11          7           0       -2.768131   -0.941057   -0.182398
     12          7           0       -3.787163   -1.439046   -0.038075
     13          1           0       -1.141276    1.117155    1.872128
     14          1           0       -2.840250    1.222534    1.375884
     15          1           0       -1.751830    2.591542    1.100838
     16          1           0       -2.174111    1.401750   -1.000665
     17          1           0       -0.044728    1.317311   -1.874007
     18          1           0        0.111347    2.384762   -0.493666
     19          1           0        0.461067   -1.197913   -1.418044
     20          1           0        1.989372   -0.535745   -1.998694
     21          1           0        3.096367   -2.109762   -0.539189
     22          1           0        1.524692   -2.620015    0.059439
     23          1           0        3.314500   -0.428910    1.187596
     24          1           0        2.336994   -1.591692    2.070805
     25          1           0        1.330630    0.904336    1.858938
     26          1           0        0.264624   -0.450879    1.407114
     27          1           0        3.081779    0.963860   -0.463467
 ---------------------------------------------------------------------

 SCF Done:  E(UB3LYP) =  -553.485022013     A.U. after   33 cycles
 SCF Done:  E(UB3LYP) =  -553.485022013     a.u. after    1 cycles

 The electronic state is 2-A.
 Alpha  occ. eigenvalues --  -19.00792 -14.34399 -14.24592 -14.23231 -10.11619
 Alpha  occ. eigenvalues --  -10.11367 -10.06232 -10.06066 -10.05581 -10.05406
 Alpha  occ. eigenvalues --  -10.04953 -10.04676  -1.01117  -0.91190  -0.85467
 Alpha  occ. eigenvalues --   -0.72063  -0.69262  -0.62077  -0.60024  -0.56569
 Alpha  occ. eigenvalues --   -0.52756  -0.46401  -0.45404  -0.42231  -0.39571
 Alpha  occ. eigenvalues --   -0.38569  -0.38023  -0.36449  -0.34762  -0.33460
 Alpha  occ. eigenvalues --   -0.32544  -0.32265  -0.30453  -0.29392  -0.28158
 Alpha  occ. eigenvalues --   -0.26950  -0.25147  -0.24078  -0.23461  -0.22786
 Alpha  occ. eigenvalues --   -0.22561  -0.21542  -0.20541  -0.17756  -0.15996
 Alpha  occ. eigenvalues --   -0.13398   0.04932
 Alpha virt. eigenvalues --    0.06804   0.07286   0.08170   0.09160   0.09631
 Alpha virt. eigenvalues --    0.10124   0.10634   0.11253   0.11640   0.12420
 Alpha virt. eigenvalues --    0.12963   0.13026   0.13886   0.14108   0.15040

  Beta  occ. eigenvalues --  -19.00767 -14.34178 -14.24291 -14.23283 -10.11621
  Beta  occ. eigenvalues --  -10.11311 -10.06212 -10.06053 -10.05551 -10.05383
  Beta  occ. eigenvalues --  -10.04932 -10.04655  -1.00682  -0.91140  -0.85250
  Beta  occ. eigenvalues --   -0.72018  -0.69182  -0.62029  -0.59976  -0.56494
  Beta  occ. eigenvalues --   -0.52612  -0.46320  -0.45298  -0.42131  -0.39329
  Beta  occ. eigenvalues --   -0.38339  -0.37475  -0.36368  -0.34526  -0.33199
  Beta  occ. eigenvalues --   -0.32287  -0.32066  -0.30309  -0.29356  -0.28114
  Beta  occ. eigenvalues --   -0.26914  -0.25040  -0.23984  -0.23416  -0.22725
  Beta  occ. eigenvalues --   -0.22508  -0.21493  -0.20501  -0.17338  -0.15966
  Beta  occ. eigenvalues --   -0.13321
  Beta virt. eigenvalues --    0.07276   0.07843   0.08747   0.09123   0.09793
  Beta virt. eigenvalues --    0.10143   0.10652   0.10809   0.11573   0.11885
  Beta virt. eigenvalues --    0.12689   0.13231   0.13391   0.13928   0.14301

 Mulliken charges and spin densities:
               1          2
     1  C    0.349894  -0.916916
     2  C   -0.425805   0.216418
     3  C    0.757867  -1.018760
     4  C   -0.434373   0.465646
     5  C   -0.451993   0.070116
     6  C    0.549389  -1.016868
     7  C    0.527445  -0.927254
     8  C   -0.323657   0.013821
     9  O   -0.187412   0.014744
    10  N    0.028808  -0.077081
    11  N    0.500607  -0.078638
    12  N   -0.450703   0.301685
    13  H   -0.254863   0.426727
    14  H    0.040318   0.103993
    15  H   -0.047287   0.161212
    16  H   -0.338224   0.532435
    17  H   -0.051500   0.241305
    18  H    0.041382   0.135143
    19  H   -0.070761   0.258393
    20  H   -0.093817   0.266583
    21  H   -0.245759   0.396724
    22  H   -0.000083   0.132954
    23  H   -0.154277   0.268562
    24  H   -0.445810   0.622882
    25  H   -0.047077   0.242721
    26  H    0.232091  -0.096201
    27  H   -0.004401   0.259654
 Sum of Mulliken charges =  -1.00000   1.00000

 Dipole moment (field-independent basis, Debye):
    X=             -1.3381    Y=              1.3314    Z=             -0.0387  Tot=              1.8880
 Quadrupole moment (field-independent basis, Debye-Ang):
   XX=           -137.0821   YY=           -109.6216   ZZ=           -103.6381
   XY=             -2.5724   XZ=             -1.6067   YZ=              2.8802

 Summary of Natural Population Analysis:

                                       Natural Population
                Natural  -----------------------------------------------
    Atom  No    Charge         Core      Valence    Rydberg      Total
 -----------------------------------------------------------------------
      C    1   -0.29086      0.99964     2.28653    0.00469     3.29086
      C    2   -0.00830      0.99957     1.99631    0.01242     3.00830
      C    3   -0.19544      0.99954     2.18345    0.01245     3.19544
      C    4    0.13692      0.99952     1.84727    0.01628     2.86308
      C    5   -0.20731      0.99958     2.19897    0.00876     3.20731
      C    6   -0.19619      0.99965     2.18830    0.00825     3.19619
      C    7   -0.19258      0.99964     2.18418    0.00876     3.19258
      C    8   -0.20812      0.99957     2.19873    0.00982     3.20812
      O    9   -0.38174      0.99989     3.37533    0.00651     4.38174
      N   10   -0.20987      0.99969     2.69561    0.01458     3.70987
      N   11    0.13611      0.99970     2.34823    0.01596     3.36389
      N   12   -0.02872      0.99982     2.51540    0.01350     3.52872
      H   13    0.10366      0.00000     0.39520    0.00114     0.39634
      H   14    0.09975      0.00000     0.39919    0.00105     0.40025
      H   15    0.09988      0.00000     0.39892    0.00120     0.40012
      H   16    0.09055      0.00000     0.40724    0.00222     0.40945
      H   17    0.10392      0.00000     0.39484    0.00124     0.39608
      H   18    0.10749      0.00000     0.39119    0.00132     0.39251
      H   19    0.11470      0.00000     0.38354    0.00176     0.38530
      H   20    0.10033      0.00000     0.39838    0.00129     0.39967
      H   21    0.09852      0.00000     0.40013    0.00135     0.40148
      H   22    0.09765      0.00000     0.40111    0.00124     0.40235
      H   23    0.09071      0.00000     0.40735    0.00194     0.40929
      H   24    0.10105      0.00000     0.39772    0.00123     0.39895
      H   25    0.10288      0.00000     0.39598    0.00114     0.39712
      H   26    0.10563      0.00000     0.39248    0.00189     0.39437
      H   27    0.22938      0.00000     0.26706    0.00356     0.27062
 =======================================================================
   * Total *   -0.00000     11.99581    33.84866    0.15553    46.00000

 Normal termination of Gaussian 16 at Wed Dec  9 17:17:33 2020.
