 Gaussian 16, Revision A.03,

 -----------------------------------------------------------
 # opt freq B3LYP/6-31G(d) empiricaldispersion=gd3bj scf=xqc
 -----------------------------------------------------------

 -------------------------------
 CID_131938294_JID_8668_neutraal
 -------------------------------
 Symbolic Z-matrix:
 Charge =  0 Multiplicity = 1

 SCF Done:  E(RB3LYP) =  -1216.31410346     A.U. after   15 cycles
 SCF Done:  E(RB3LYP) =  -1216.32054005     A.U. after   12 cycles
 SCF Done:  E(RB3LYP) =  -1216.32150044     A.U. after   12 cycles
 SCF Done:  E(RB3LYP) =  -1216.32176963     A.U. after   12 cycles
 SCF Done:  E(RB3LYP) =  -1216.32189957     A.U. after   11 cycles
 SCF Done:  E(RB3LYP) =  -1216.32196667     A.U. after   11 cycles
 SCF Done:  E(RB3LYP) =  -1216.32200729     A.U. after   11 cycles
 SCF Done:  E(RB3LYP) =  -1216.32201356     A.U. after   10 cycles
 SCF Done:  E(RB3LYP) =  -1216.32201777     A.U. after    9 cycles
 SCF Done:  E(RB3LYP) =  -1216.32202114     A.U. after   10 cycles
 SCF Done:  E(RB3LYP) =  -1216.32202233     A.U. after    8 cycles
 SCF Done:  E(RB3LYP) =  -1216.32202236     A.U. after    8 cycles
 SCF Done:  E(RB3LYP) =  -1216.32202236     A.U. after    8 cycles
 SCF Done:  E(RB3LYP) =  -1216.32202237     A.U. after    8 cycles
 SCF Done:  E(RB3LYP) =  -1216.32202238     A.U. after    7 cycles
 Optimization completed.
    -- Stationary point found.
 Normal termination of Gaussian 16 at Fri Dec 11 21:29:52 2020.

 --------------------------------------------------------------------
 #N Geom=AllCheck Guess=TCheck SCRF=Check GenChk RB3LYP/6-31G(d) Freq
 --------------------------------------------------------------------

 Structure from the checkpoint file:  "JID_8668.chk"
 -------------------------------
 CID_131938294_JID_8668_neutraal
 -------------------------------
 Charge =  0 Multiplicity = 1

 SCF Done:  E(RB3LYP) =  -1216.32202238     A.U. after    1 cycles

  Exact polarizability: 230.611 -10.047 142.833  24.084   9.532 112.233
 Approx polarizability: 317.834 -14.447 253.344  48.918  23.656 172.553

                      1                      2                      3
                      A                      A                      A
 Frequencies --     18.7067                32.6100                57.3866
 Red. masses --      4.8113                 4.7019                 4.7231
 Frc consts  --      0.0010                 0.0029                 0.0092
 IR Inten    --      2.5958                 0.3792                 8.7927

                      4                      5                      6
                      A                      A                      A
 Frequencies --     72.0379               103.6659               116.1341
 Red. masses --      3.9075                 2.0361                 5.3611
 Frc consts  --      0.0119                 0.0129                 0.0426
 IR Inten    --      1.6504                 2.1319                 0.9682

                      7                      8                      9
                      A                      A                      A
 Frequencies --    138.8057               183.9669               207.7923
 Red. masses --      6.0885                 3.9520                 1.9525
 Frc consts  --      0.0691                 0.0788                 0.0497
 IR Inten    --      2.8136                 3.7408                 6.4855

                     10                     11                     12
                      A                      A                      A
 Frequencies --    213.6102               225.2884               234.2330
 Red. masses --      3.7873                 1.8122                 2.6106
 Frc consts  --      0.1018                 0.0542                 0.0844
 IR Inten    --      2.6598                 3.3145                 4.6546

                     13                     14                     15
                      A                      A                      A
 Frequencies --    274.6690               288.1459               292.3861
 Red. masses --      1.3929                 4.3582                 3.3810
 Frc consts  --      0.0619                 0.2132                 0.1703
 IR Inten    --      4.3012                 2.3042                 2.3675

                     16                     17                     18
                      A                      A                      A
 Frequencies --    325.7439               369.3447               379.9154
 Red. masses --      3.1606                 5.2783                 5.3408
 Frc consts  --      0.1976                 0.4242                 0.4542
 IR Inten    --      4.4634                 1.4607                 1.8081

                     19                     20                     21
                      A                      A                      A
 Frequencies --    399.6799               436.7000               445.8782
 Red. masses --      5.2571                 5.6175                 3.0277
 Frc consts  --      0.4948                 0.6312                 0.3546
 IR Inten    --      4.2193                 9.7353                 1.4687

                     22                     23                     24
                      A                      A                      A
 Frequencies --    460.1888               506.6332               511.6056
 Red. masses --      4.0134                 5.7168                 1.4938
 Frc consts  --      0.5008                 0.8646                 0.2304
 IR Inten    --     28.2435                14.5420                13.5350

                     25                     26                     27
                      A                      A                      A
 Frequencies --    533.1304               555.8904               600.2664
 Red. masses --      4.7284                 1.6952                 4.1451
 Frc consts  --      0.7918                 0.3086                 0.8800
 IR Inten    --     18.9770               154.3478                39.9336

                     28                     29                     30
                      A                      A                      A
 Frequencies --    639.2832               641.3905               676.1412
 Red. masses --      3.3985                 4.1500                 4.4389
 Frc consts  --      0.8183                 1.0059                 1.1957
 IR Inten    --      2.0419                10.9644                 3.8340

                     31                     32                     33
                      A                      A                      A
 Frequencies --    686.1779               733.1261               756.7014
 Red. masses --      3.8973                 5.3912                 3.7789
 Frc consts  --      1.0812                 1.7072                 1.2749
 IR Inten    --     42.1823                94.7559                 2.2432

                     34                     35                     36
                      A                      A                      A
 Frequencies --    774.3200               790.1130               813.6069
 Red. masses --      4.2046                 1.4522                 1.6748
 Frc consts  --      1.4853                 0.5342                 0.6532
 IR Inten    --      6.9257                28.3272                18.7714

                     37                     38                     39
                      A                      A                      A
 Frequencies --    834.7302               846.1706               868.5418
 Red. masses --      2.8279                 1.5142                 3.8965
 Frc consts  --      1.1609                 0.6388                 1.7318
 IR Inten    --     38.1977                40.6755                13.3854

                     40                     41                     42
                      A                      A                      A
 Frequencies --    934.3498               963.4383               991.8083
 Red. masses --      1.2852                 3.4332                 1.7602
 Frc consts  --      0.6611                 1.8776                 1.0201
 IR Inten    --      0.4326                 0.6617                 2.6153

                     43                     44                     45
                      A                      A                      A
 Frequencies --   1012.9918              1016.3586              1070.3663
 Red. masses --      2.1420                 4.6286                 1.4960
 Frc consts  --      1.2950                 2.8170                 1.0098
 IR Inten    --     27.8238                 2.1113                12.1717

                     46                     47                     48
                      A                      A                      A
 Frequencies --   1076.6017              1092.8600              1103.7766
 Red. masses --      3.0560                 2.1354                 3.2251
 Frc consts  --      2.0870                 1.5027                 2.3151
 IR Inten    --     25.8415                14.4151                42.2234

                     49                     50                     51
                      A                      A                      A
 Frequencies --   1132.0508              1160.6987              1186.4327
 Red. masses --      6.5148                 1.4350                 1.2695
 Frc consts  --      4.9191                 1.1390                 1.0528
 IR Inten    --    139.1087                 4.0067                 0.7610

                     52                     53                     54
                      A                      A                      A
 Frequencies --   1200.2428              1225.0426              1250.4015
 Red. masses --      1.9392                 1.4527                 2.4990
 Frc consts  --      1.6459                 1.2845                 2.3021
 IR Inten    --     91.3988                 4.6011                37.1948

                     55                     56                     57
                      A                      A                      A
 Frequencies --   1261.2678              1279.7932              1284.0411
 Red. masses --      1.1389                 1.2285                 2.3743
 Frc consts  --      1.0675                 1.1855                 2.3064
 IR Inten    --      3.7320                15.2543               253.7860

                     58                     59                     60
                      A                      A                      A
 Frequencies --   1298.9029              1311.0027              1331.1837
 Red. masses --      2.5852                 2.8784                 1.6541
 Frc consts  --      2.5698                 2.9148                 1.7270
 IR Inten    --    100.1093                42.4237                35.7612

                     61                     62                     63
                      A                      A                      A
 Frequencies --   1339.5074              1372.8196              1397.0970
 Red. masses --      2.4193                 1.9601                 5.5179
 Frc consts  --      2.5576                 2.1765                 6.3457
 IR Inten    --      7.8009               215.6554                18.0809

                     64                     65                     66
                      A                      A                      A
 Frequencies --   1446.6481              1453.5556              1474.3517
 Red. masses --      1.4946                 1.2857                 2.3695
 Frc consts  --      1.8429                 1.6005                 3.0346
 IR Inten    --     67.1177                16.7198                85.1330

                     67                     68                     69
                      A                      A                      A
 Frequencies --   1488.2382              1489.4991              1504.3076
 Red. masses --      1.4808                 1.6961                 1.3871
 Frc consts  --      1.9324                 2.2170                 1.8494
 IR Inten    --     15.8156                 3.9824                 0.3842

                     70                     71                     72
                      A                      A                      A
 Frequencies --   1519.2020              1521.2968              1530.5044
 Red. masses --      1.0668                 1.0481                 1.0514
 Frc consts  --      1.4507                 1.4291                 1.4510
 IR Inten    --      1.2278                 5.0486                11.3713

                     73                     74                     75
                      A                      A                      A
 Frequencies --   1535.0776              1539.8597              1554.8544
 Red. masses --      1.1370                 1.0527                 2.7260
 Frc consts  --      1.5786                 1.4707                 3.8829
 IR Inten    --     64.1410                12.8922                27.3626

                     76                     77                     78
                      A                      A                      A
 Frequencies --   1599.6421              1640.7903              1698.0908
 Red. masses --      5.5333                 7.3462                 7.1149
 Frc consts  --      8.3422                11.6525                12.0875
 IR Inten    --      5.9822                41.2902               107.3910

                     79                     80                     81
                      A                      A                      A
 Frequencies --   3023.3454              3040.5630              3073.4304
 Red. masses --      1.0349                 1.0583                 1.0956
 Frc consts  --      5.5733                 5.7645                 6.0975
 IR Inten    --     71.1247                28.7212                 3.2735

                     82                     83                     84
                      A                      A                      A
 Frequencies --   3073.9522              3080.9723              3081.0442
 Red. masses --      1.0484                 1.0600                 1.1059
 Frc consts  --      5.8367                 5.9286                 6.1854
 IR Inten    --     28.6010                 6.6562                45.2976

                     85                     86                     87
                      A                      A                      A
 Frequencies --   3130.8723              3146.2770              3155.7820
 Red. masses --      1.1063                 1.0979                 1.0995
 Frc consts  --      6.3893                 6.4033                 6.4513
 IR Inten    --      1.6681                 5.0120                30.3244

                     88                     89                     90
                      A                      A                      A
 Frequencies --   3171.1905              3211.0380              3224.7365
 Red. masses --      1.1040                 1.0893                 1.0919
 Frc consts  --      6.5416                 6.6176                 6.6898
 IR Inten    --      4.4393                 6.7106                 2.4978

                     91                     92                     93
                      A                      A                      A
 Frequencies --   3235.2363              3556.6556              3633.4689
 Red. masses --      1.0918                 1.0759                 1.0798
 Frc consts  --      6.7327                 8.0187                 8.3989
 IR Inten    --     13.4144                33.1040                99.3085

 - Thermochemistry -
 -------------------
 Temperature   298.150 Kelvin.  Pressure   1.00000 Atm.
 Atom     1 has atomic number  6 and mass  12.00000

 Molecular mass:   269.08341 amu.
 Principal axes and moments of inertia in atomic units:
                           1         2         3
     Eigenvalues --  1991.047239924.95552**********
           X            0.99993  -0.01205   0.00109
           Y            0.01196   0.99823   0.05818
           Z           -0.00179  -0.05816   0.99831
 This molecule is an asymmetric top.
 Rotational symmetry number  1.
 Warning -- assumption of classical behavior for rotation
           may cause significant error
 Rotational temperatures (Kelvin)      0.04350     0.00873     0.00837
 Rotational constants (GHZ):           0.90643     0.18184     0.17436
 Zero-point vibrational energy     694864.3 (Joules/Mol)
                                  166.07655 (Kcal/Mol)
 Warning -- explicit consideration of  27 degrees of freedom as
           vibrations may cause significant error
 Vibrational temperatures:     26.91    46.92    82.57   103.65   149.15
          (Kelvin)            167.09   199.71   264.69   298.97   307.34
                              324.14   337.01   395.19   414.58   420.68
                              468.67   531.40   546.61   575.05   628.31
                              641.52   662.11   728.93   736.09   767.06
                              799.80   863.65   919.79   922.82   972.82
                              987.26  1054.80  1088.72  1114.07  1136.80
                             1170.60  1200.99  1217.45  1249.64  1344.32
                             1386.17  1426.99  1457.47  1462.31  1540.02
                             1548.99  1572.38  1588.09  1628.77  1669.99
                             1707.01  1726.88  1762.56  1799.05  1814.68
                             1841.34  1847.45  1868.83  1886.24  1915.28
                             1927.25  1975.18  2010.11  2081.40  2091.34
                             2121.26  2141.24  2143.06  2164.36  2185.79
                             2188.81  2202.05  2208.63  2215.51  2237.09
                             2301.53  2360.73  2443.17  4349.92  4374.69
                             4421.98  4422.73  4432.83  4432.94  4504.63
                             4526.79  4540.47  4562.64  4619.97  4639.68
                             4654.78  5117.23  5227.75

 Zero-point correction=                           0.264660 (Hartree/Particle)
 Thermal correction to Energy=                    0.281859
 Thermal correction to Enthalpy=                  0.282803
 Thermal correction to Gibbs Free Energy=         0.218399
 Sum of electronic and zero-point Energies=          -1216.057363
 Sum of electronic and thermal Energies=             -1216.040163
 Sum of electronic and thermal Enthalpies=           -1216.039219
 Sum of electronic and thermal Free Energies=        -1216.103624

                     E (Thermal)             CV                S
                      KCal/Mol        Cal/Mol-Kelvin    Cal/Mol-Kelvin
 Total                  176.869             65.443            135.551
 Electronic               0.000              0.000              0.000
 Translational            0.889              2.981             42.669
 Rotational               0.889              2.981             33.680
 Vibrational            175.092             59.481             59.202
 Vibration     1          0.593              1.986              6.767
 Vibration     2          0.594              1.983              5.664
 Vibration     3          0.596              1.975              4.545
 Vibration     4          0.598              1.967              4.097
 Vibration     5          0.605              1.946              3.384
 Vibration     6          0.608              1.936              3.164
 Vibration     7          0.614              1.915              2.820
 Vibration     8          0.631              1.862              2.288
 Vibration     9          0.641              1.829              2.063
 Vibration    10          0.644              1.820              2.013
 Vibration    11          0.650              1.803              1.916
 Vibration    12          0.654              1.788              1.846
 Vibration    13          0.677              1.720              1.567
 Vibration    14          0.685              1.696              1.485
 Vibration    15          0.688              1.688              1.460
 Vibration    16          0.710              1.624              1.281
 Vibration    17          0.742              1.535              1.083
 Vibration    18          0.750              1.513              1.040
 Vibration    19          0.766              1.471              0.964
 Vibration    20          0.797              1.390              0.837
 Vibration    21          0.805              1.370              0.808
 Vibration    22          0.818              1.338              0.766
 Vibration    23          0.862              1.235              0.642
 Vibration    24          0.867              1.224              0.630
 Vibration    25          0.888              1.177              0.580
 Vibration    26          0.911              1.127              0.532
 Vibration    27          0.958              1.031              0.449

 Optimization completed.
    -- Stationary point found.
 Normal termination of Gaussian 16 at Fri Dec 11 21:43:44 2020.

 ----------------------------------------------------------------------
 # B3LYP/6-311++G(d,p) empiricaldispersion=gd3bj scf=xqc pop=npa geom=c
 heck
 ----------------------------------------------------------------------

 ---------------------------------------
 CID_131938294_JID_8668_Energie_neutraal
 ---------------------------------------
 Structure from the checkpoint file:  "JID_8668.chk"
 Charge =  0 Multiplicity = 1

 SCF Done:  E(RB3LYP) =  -1216.58037358     A.U. after   15 cycles
 Normal termination of Gaussian 16 at Fri Dec 11 21:49:55 2020.

 ----------------------------------------------------------------------
 # B3LYP/6-311++G(d,p) empiricaldispersion=gd3bj scf=xqc pop=npa geom=c
 heck
 ----------------------------------------------------------------------

 -------------------------------------
 CID_131938294_JID_8668_Energie_kation
 -------------------------------------
 Structure from the checkpoint file:  "JID_8668.chk"
 Charge =  1 Multiplicity = 2

 SCF Done:  E(UB3LYP) =  -1216.30338264     A.U. after   21 cycles
 Normal termination of Gaussian 16 at Fri Dec 11 22:02:20 2020.
 Gaussian 16:  ES64L-G16RevA.03 25-Dec-2016

 ----------------------------------------------------------------------
 # B3LYP/6-311++G(d,p) empiricaldispersion=gd3bj scf=xqc pop=npa geom=c
 heck
 ----------------------------------------------------------------------

 ------------------------------------
 CID_131938294_JID_8668_Energie_anion
 ------------------------------------
 Structure from the checkpoint file:  "JID_8668.chk"
 Charge = -1 Multiplicity = 2

                         Standard orientation:
 ---------------------------------------------------------------------
 Center     Atomic      Atomic             Coordinates (Angstroms)
 Number     Number       Type             X           Y           Z
 ---------------------------------------------------------------------
      1          6           0       -2.223728    0.979381    2.137475
      2          6           0       -3.477236    0.444862    1.452326
      3         16           0       -3.161173   -0.797748    0.154585
      4          8           0       -1.953704   -1.538889    0.529412
      5          8           0       -4.423531   -1.490137   -0.119966
      6          7           0       -2.831105    0.019973   -1.295366
      7          6           0       -1.984530    1.218005   -1.358182
      8          6           0       -0.568831    0.967592   -0.943195
      9          7           0        0.203909    1.887433   -0.418432
     10          6           0        1.431941    1.255052   -0.230066
     11          6           0        1.354697   -0.095415   -0.657583
     12          7           0        0.067644   -0.237673   -1.150095
     13          6           0        2.421346   -0.980124   -0.554885
     14          6           0        3.607091   -0.477358   -0.010560
     15          6           0        3.710391    0.867099    0.410881
     16          6           0        2.627290    1.736447    0.303619
     17          8           0        4.633466   -1.378362    0.072890
     18          6           0        5.866268   -0.942839    0.616869
     19          1           0       -1.630936    0.152839    2.535984
     20          1           0       -2.524870    1.625608    2.968713
     21          1           0       -1.584462    1.558484    1.467646
     22          1           0       -4.116413   -0.102788    2.152119
     23          1           0       -4.088087    1.226013    0.988336
     24          1           0       -3.706955    0.117300   -1.801442
     25          1           0       -2.006758    1.529890   -2.410011
     26          1           0       -2.362887    2.062333   -0.767355
     27          1           0       -0.428644   -1.110431   -1.272771
     28          1           0        2.370193   -2.015813   -0.871520
     29          1           0        4.640416    1.235285    0.825806
     30          1           0        2.707082    2.767838    0.631708
     31          1           0        6.307982   -0.132162    0.022102
     32          1           0        5.754022   -0.605137    1.655770
     33          1           0        6.527899   -1.810526    0.589934
 ---------------------------------------------------------------------

 SCF Done:  E(UB3LYP) =  -1216.57716324     A.U. after   33 cycles
 SCF Done:  E(UB3LYP) =  -1216.57716324     a.u. after    1 cycles

 The electronic state is 2-A.
 Alpha  occ. eigenvalues --  -88.96380 -19.06613 -19.02107 -19.01889 -14.25675
 Alpha  occ. eigenvalues --  -14.24578 -14.19338 -10.14647 -10.13847 -10.13507
 Alpha  occ. eigenvalues --  -10.12479 -10.11786 -10.11330 -10.09149 -10.07810
 Alpha  occ. eigenvalues --  -10.07656 -10.07543 -10.07514  -8.02602  -5.98882
 Alpha  occ. eigenvalues --   -5.98842  -5.98674  -1.02239  -0.98212  -0.91654
 Alpha  occ. eigenvalues --   -0.91285  -0.82898  -0.77709  -0.75021  -0.70467
 Alpha  occ. eigenvalues --   -0.67067  -0.65980  -0.62809  -0.59825  -0.57796
 Alpha  occ. eigenvalues --   -0.53436  -0.51684  -0.50123  -0.48673  -0.45837
 Alpha  occ. eigenvalues --   -0.43581  -0.42589  -0.40984  -0.40387  -0.39098
 Alpha  occ. eigenvalues --   -0.38956  -0.37738  -0.36755  -0.36034  -0.35273
 Alpha  occ. eigenvalues --   -0.34385  -0.34067  -0.32596  -0.32032  -0.31286
 Alpha  occ. eigenvalues --   -0.29928  -0.29630  -0.28392  -0.27847  -0.27561
 Alpha  occ. eigenvalues --   -0.24731  -0.24728  -0.23046  -0.22181  -0.21537
 Alpha  occ. eigenvalues --   -0.20830  -0.20037  -0.18127  -0.17996  -0.13809
 Alpha  occ. eigenvalues --   -0.11428   0.03843
 Alpha virt. eigenvalues --    0.05056   0.06508   0.07144   0.07609   0.08651
 Alpha virt. eigenvalues --    0.09101   0.09252   0.09462   0.10200   0.10795
 Alpha virt. eigenvalues --    0.10874   0.11103   0.11517   0.12515   0.12923

  Beta  occ. eigenvalues --  -88.96377 -19.06608 -19.02084 -19.01885 -14.25661
  Beta  occ. eigenvalues --  -14.24510 -14.19298 -10.14635 -10.13818 -10.13402
  Beta  occ. eigenvalues --  -10.12446 -10.11740 -10.11341 -10.09158 -10.07792
  Beta  occ. eigenvalues --  -10.07652 -10.07468 -10.07454  -8.02598  -5.98878
  Beta  occ. eigenvalues --   -5.98838  -5.98672  -1.02203  -0.98193  -0.91586
  Beta  occ. eigenvalues --   -0.91235  -0.82780  -0.77634  -0.74938  -0.70407
  Beta  occ. eigenvalues --   -0.66966  -0.65866  -0.62732  -0.59764  -0.57706
  Beta  occ. eigenvalues --   -0.53340  -0.51582  -0.50080  -0.48567  -0.45785
  Beta  occ. eigenvalues --   -0.43528  -0.42472  -0.40937  -0.40312  -0.39040
  Beta  occ. eigenvalues --   -0.38917  -0.37700  -0.36678  -0.35958  -0.35184
  Beta  occ. eigenvalues --   -0.34329  -0.33982  -0.32522  -0.31968  -0.31227
  Beta  occ. eigenvalues --   -0.29872  -0.29580  -0.28336  -0.27759  -0.27489
  Beta  occ. eigenvalues --   -0.24705  -0.24664  -0.23010  -0.22043  -0.21471
  Beta  occ. eigenvalues --   -0.20772  -0.19829  -0.18041  -0.17936  -0.13575
  Beta  occ. eigenvalues --   -0.11104
  Beta virt. eigenvalues --    0.05182   0.06694   0.07392   0.07596   0.08227
  Beta virt. eigenvalues --    0.08747   0.09121   0.09393   0.10050   0.10258
  Beta virt. eigenvalues --    0.10963   0.11029   0.11468   0.11746   0.12512

 Mulliken charges and spin densities:
               1          2
     1  C   -0.527779   0.041913
     2  C    0.134113  -0.657440
     3  S    0.889828  -0.444319
     4  O   -0.264964   0.013308
     5  O   -0.299564   0.052932
     6  N   -0.484107   0.188482
     7  C    2.540780  -2.683223
     8  C   -1.212741   1.160882
     9  N   -0.094598   0.110289
    10  C    0.265960  -0.232572
    11  C    0.064009   0.234983
    12  N    0.034623   0.012405
    13  C   -1.081388   0.340839
    14  C   -0.551520   0.027741
    15  C    0.392366  -0.143576
    16  C   -0.447685   0.101473
    17  O   -0.172178   0.010485
    18  C   -0.063605  -0.245022
    19  H    0.213628  -0.025984
    20  H   -0.238791   0.388588
    21  H    0.256383  -0.094059
    22  H    0.012525   0.218529
    23  H   -0.312451   0.563879
    24  H   -0.168063   0.525948
    25  H   -0.715455   0.958809
    26  H    0.082234   0.133381
    27  H    0.272520   0.028387
    28  H    0.120354   0.028758
    29  H    0.102730   0.050834
    30  H    0.094081   0.050672
    31  H    0.020990   0.121722
    32  H    0.095942   0.044541
    33  H    0.041823   0.116417
 Sum of Mulliken charges =  -1.00000   1.00000

 Dipole moment (field-independent basis, Debye):
    X=              7.7228    Y=             -1.5387    Z=              3.0093  Tot=              8.4300
 Quadrupole moment (field-independent basis, Debye-Ang):
   XX=           -195.7578   YY=           -149.4387   ZZ=           -146.5471
   XY=              3.4607   XZ=             -7.1267   YZ=              6.4623

 Summary of Natural Population Analysis:

                                       Natural Population
                Natural  -----------------------------------------------
    Atom  No    Charge         Core      Valence    Rydberg      Total
 -----------------------------------------------------------------------
      C    1   -0.30167      0.99964     2.29458    0.00745     3.30167
      C    2   -0.28818      0.99959     2.27758    0.01101     3.28818
      S    3    1.09294      4.99929     1.80851    0.09926     6.90706
      O    4   -0.46764      0.99990     3.46197    0.00577     4.46764
      O    5   -0.46694      0.99991     3.46145    0.00558     4.46694
      N    6   -0.43864      0.99975     2.92460    0.01429     3.93864
      C    7   -0.11375      0.99956     2.09984    0.01435     3.11375
      C    8    0.21731      0.99961     1.76509    0.01799     2.78269
      N    9   -0.25681      0.99967     2.74867    0.00847     3.75681
      C   10    0.04415      0.99946     1.94434    0.01206     2.95585
      C   11    0.07364      0.99947     1.91707    0.00982     2.92636
      N   12   -0.27896      0.99962     2.77193    0.00742     3.77896
      C   13   -0.13210      0.99949     2.12432    0.00828     3.13210
      C   14    0.16081      0.99941     1.82791    0.01186     2.83919
      C   15   -0.15730      0.99954     2.14976    0.00799     3.15730
      C   16   -0.07691      0.99954     2.06860    0.00877     3.07691
      O   17   -0.27672      0.99986     3.26788    0.00898     4.27672
      C   18   -0.09927      0.99961     2.09149    0.00817     3.09927
      H   19    0.10924      0.00000     0.38980    0.00096     0.39076
      H   20    0.10329      0.00000     0.39566    0.00104     0.39671
      H   21    0.11333      0.00000     0.38502    0.00165     0.38667
      H   22    0.11636      0.00000     0.38236    0.00129     0.38364
      H   23    0.11611      0.00000     0.38185    0.00204     0.38389
      H   24    0.20925      0.00000     0.28161    0.00914     0.29075
      H   25    0.12213      0.00000     0.37266    0.00520     0.37787
      H   26    0.10247      0.00000     0.39557    0.00195     0.39753
      H   27    0.21426      0.00000     0.28343    0.00231     0.28574
      H   28    0.10577      0.00000     0.39257    0.00166     0.39423
      H   29    0.10005      0.00000     0.39879    0.00116     0.39995
      H   30    0.10033      0.00000     0.39821    0.00146     0.39967
      H   31    0.08187      0.00000     0.41597    0.00216     0.41813
      H   32    0.08149      0.00000     0.41666    0.00185     0.41851
      H   33    0.09009      0.00000     0.40877    0.00114     0.40991
 =======================================================================
   * Total *    0.00000     21.99293    48.70454    0.30254    71.00000

 Normal termination of Gaussian 16 at Fri Dec 11 22:21:56 2020.
