 Gaussian 16, Revision A.03,

 ----------------------------------------------------------------------
 # opt=(cartesian,calcfc) freq B3LYP/6-31G(d) empiricaldispersion=gd3bj
  scf=xqc
 ----------------------------------------------------------------------

 ------------------------------
 CID_61582910_JID_2019_neutraal
 ------------------------------
 Symbolic Z-matrix:
 Charge =  0 Multiplicity = 1

 SCF Done:  E(RB3LYP) =  -595.461565758     A.U. after   13 cycles
 SCF Done:  E(RB3LYP) =  -595.462038616     A.U. after   10 cycles
 SCF Done:  E(RB3LYP) =  -595.462149977     A.U. after   11 cycles
 SCF Done:  E(RB3LYP) =  -595.462161039     A.U. after   10 cycles
 SCF Done:  E(RB3LYP) =  -595.462068336     A.U. after   11 cycles
 SCF Done:  E(RB3LYP) =  -595.462206656     A.U. after    9 cycles
 SCF Done:  E(RB3LYP) =  -595.462180470     A.U. after   10 cycles
 SCF Done:  E(RB3LYP) =  -595.462220679     A.U. after   10 cycles
 SCF Done:  E(RB3LYP) =  -595.462229202     A.U. after    9 cycles
 SCF Done:  E(RB3LYP) =  -595.462203252     A.U. after   11 cycles
 SCF Done:  E(RB3LYP) =  -595.462241824     A.U. after    7 cycles
 SCF Done:  E(RB3LYP) =  -595.462241779     A.U. after    8 cycles
 SCF Done:  E(RB3LYP) =  -595.462241928     A.U. after    6 cycles
 SCF Done:  E(RB3LYP) =  -595.462241948     A.U. after    7 cycles
 SCF Done:  E(RB3LYP) =  -595.462241939     A.U. after    6 cycles
 SCF Done:  E(RB3LYP) =  -595.462241956     A.U. after    6 cycles
 Optimization completed.
    -- Stationary point found.
 Normal termination of Gaussian 16 at Wed Dec 30 15:08:46 2020.

 --------------------------------------------------------------------
 #N Geom=AllCheck Guess=TCheck SCRF=Check GenChk RB3LYP/6-31G(d) Freq
 --------------------------------------------------------------------

 Structure from the checkpoint file:  "JID_2019.chk"
 ------------------------------
 CID_61582910_JID_2019_neutraal
 ------------------------------
 Charge =  0 Multiplicity = 1

 SCF Done:  E(RB3LYP) =  -595.462241956     A.U. after    1 cycles

  Exact polarizability: 125.313   4.794  94.761  -0.390  -3.230  84.813
 Approx polarizability: 146.406   4.911 133.552   1.544  -7.167 127.364

                      1                      2                      3
                      A                      A                      A
 Frequencies --     28.4702                60.1207                70.6161
 Red. masses --      4.5039                 3.4765                 3.1317
 Frc consts  --      0.0022                 0.0074                 0.0092
 IR Inten    --      1.1093                 0.6239                 5.6600

                      4                      5                      6
                      A                      A                      A
 Frequencies --     99.7700               107.2263               121.3604
 Red. masses --      4.4142                 2.8348                 2.5505
 Frc consts  --      0.0259                 0.0192                 0.0221
 IR Inten    --      1.5820                 3.0191                 0.5081

                      7                      8                      9
                      A                      A                      A
 Frequencies --    158.9486               188.9188               213.8861
 Red. masses --      3.1566                 2.9147                 2.3620
 Frc consts  --      0.0470                 0.0613                 0.0637
 IR Inten    --      5.2056                 0.3963                 0.7186

                     10                     11                     12
                      A                      A                      A
 Frequencies --    238.7579               244.1880               277.3127
 Red. masses --      1.4980                 1.2667                 2.8666
 Frc consts  --      0.0503                 0.0445                 0.1299
 IR Inten    --      3.9171                 2.7722                 0.8875

                     13                     14                     15
                      A                      A                      A
 Frequencies --    317.6003               357.6590               395.3219
 Red. masses --      3.5476                 2.9913                 2.4873
 Frc consts  --      0.2108                 0.2254                 0.2290
 IR Inten    --      0.8539                 0.5849                 1.0103

                     16                     17                     18
                      A                      A                      A
 Frequencies --    419.2687               443.0142               463.3112
 Red. masses --      2.3451                 1.8289                 1.2835
 Frc consts  --      0.2429                 0.2115                 0.1623
 IR Inten    --      3.6313                33.6772               102.5464

                     19                     20                     21
                      A                      A                      A
 Frequencies --    507.6595               530.1871               679.8800
 Red. masses --      2.2275                 2.7661                 3.7064
 Frc consts  --      0.3382                 0.4581                 1.0094
 IR Inten    --     16.1153                19.0341                11.2279

                     22                     23                     24
                      A                      A                      A
 Frequencies --    792.1563               849.2061               853.3460
 Red. masses --      4.0337                 2.5194                 3.0852
 Frc consts  --      1.4913                 1.0705                 1.3237
 IR Inten    --     14.4466                 4.8693                12.1798

                     25                     26                     27
                      A                      A                      A
 Frequencies --    875.2525               918.3140               950.9716
 Red. masses --      2.3540                 2.1437                 2.7831
 Frc consts  --      1.0625                 1.0651                 1.4829
 IR Inten    --     15.7453                20.9375                 6.1754

                     28                     29                     30
                      A                      A                      A
 Frequencies --    963.5758               976.7508              1029.3456
 Red. masses --      2.2907                 2.1489                 2.8809
 Frc consts  --      1.2531                 1.2079                 1.7985
 IR Inten    --     32.0208                15.7747                17.1946

                     31                     32                     33
                      A                      A                      A
 Frequencies --   1087.3198              1098.8532              1111.2120
 Red. masses --      2.5983                 1.7444                 1.2579
 Frc consts  --      1.8099                 1.2410                 0.9152
 IR Inten    --    120.0448                14.1204                 9.0174

                     34                     35                     36
                      A                      A                      A
 Frequencies --   1121.2118              1138.4581              1155.3671
 Red. masses --      2.1184                 2.1037                 1.3758
 Frc consts  --      1.5690                 1.6064                 1.0820
 IR Inten    --      7.2882                18.8689                 3.6732

                     37                     38                     39
                      A                      A                      A
 Frequencies --   1161.5621              1169.7193              1186.7836
 Red. masses --      1.8663                 2.5004                 1.4109
 Frc consts  --      1.4836                 2.0157                 1.1708
 IR Inten    --     85.9845                73.3841                 3.3949

                     40                     41                     42
                      A                      A                      A
 Frequencies --   1190.5668              1204.6855              1222.8000
 Red. masses --      1.2804                 1.5059                 1.6671
 Frc consts  --      1.0693                 1.2876                 1.4686
 IR Inten    --      1.1677                 3.5382                30.6137

                     43                     44                     45
                      A                      A                      A
 Frequencies --   1246.5574              1273.5519              1290.6109
 Red. masses --      1.6611                 1.1677                 1.5959
 Frc consts  --      1.5208                 1.1158                 1.5662
 IR Inten    --     12.2321                16.3830                19.4837

                     46                     47                     48
                      A                      A                      A
 Frequencies --   1313.3719              1342.7964              1371.0471
 Red. masses --      1.6460                 1.5520                 1.3363
 Frc consts  --      1.6728                 1.6488                 1.4800
 IR Inten    --     24.1134                20.2142                 4.1465

                     49                     50                     51
                      A                      A                      A
 Frequencies --   1397.1062              1406.9901              1418.7202
 Red. masses --      1.6704                 1.3946                 1.3266
 Frc consts  --      1.9210                 1.6266                 1.5732
 IR Inten    --      8.5581                51.9591                24.1267

                     52                     53                     54
                      A                      A                      A
 Frequencies --   1429.3564              1452.7449              1464.1979
 Red. masses --      1.3213                 1.3189                 1.5406
 Frc consts  --      1.5905                 1.6400                 1.9460
 IR Inten    --      1.9913                40.3897                17.4867

                     55                     56                     57
                      A                      A                      A
 Frequencies --   1479.7007              1484.1785              1497.1688
 Red. masses --      1.0997                 1.1012                 1.1152
 Frc consts  --      1.4187                 1.4291                 1.4728
 IR Inten    --      5.4241                 4.9350                 6.9864

                     58                     59                     60
                      A                      A                      A
 Frequencies --   1502.3773              1515.2566              1517.7837
 Red. masses --      1.1501                 1.0487                 1.0967
 Frc consts  --      1.5295                 1.4186                 1.4886
 IR Inten    --      5.5158                 6.7503                 7.3789

                     61                     62                     63
                      A                      A                      A
 Frequencies --   1529.8589              1548.0040              1550.5482
 Red. masses --      1.0642                 1.0877                 1.0865
 Frc consts  --      1.4675                 1.5357                 1.5390
 IR Inten    --     13.9826                11.8585                 2.4137

                     64                     65                     66
                      A                      A                      A
 Frequencies --   1556.4203              2979.9920              2990.6960
 Red. masses --      1.2682                 1.0559                 1.0501
 Frc consts  --      1.8100                 5.5248                 5.5336
 IR Inten    --      4.0614                66.3840                24.7385

                     67                     68                     69
                      A                      A                      A
 Frequencies --   3003.3392              3007.7680              3017.3125
 Red. masses --      1.0413                 1.0663                 1.0693
 Frc consts  --      5.5339                 5.6836                 5.7355
 IR Inten    --     72.1857                68.8374                25.6372

                     70                     71                     72
                      A                      A                      A
 Frequencies --   3031.7761              3048.4160              3062.1468
 Red. masses --      1.1052                 1.1056                 1.0794
 Frc consts  --      5.9855                 6.0533                 5.9631
 IR Inten    --     76.7426                50.1755                58.6662

                     73                     74                     75
                      A                      A                      A
 Frequencies --   3073.1330              3082.1661              3091.4638
 Red. masses --      1.0923                 1.0940                 1.0921
 Frc consts  --      6.0780                 6.1235                 6.1494
 IR Inten    --      4.8634                11.7611                65.6692

                     76                     77                     78
                      A                      A                      A
 Frequencies --   3096.2623              3120.6990              3141.6870
 Red. masses --      1.0504                 1.1004                 1.0979
 Frc consts  --      5.9328                 6.3141                 6.3845
 IR Inten    --     39.1693                28.3070                28.6692

                     79                     80                     81
                      A                      A                      A
 Frequencies --   3174.3947              3190.8726              3701.3876
 Red. masses --      1.1158                 1.0941                 1.0651
 Frc consts  --      6.6247                 6.5635                 8.5972
 IR Inten    --     21.4961                16.1347                39.5811

 - Thermochemistry -
 -------------------
 Temperature   298.150 Kelvin.  Pressure   1.00000 Atm.
 Atom     1 has atomic number  6 and mass  12.00000

 Molecular mass:   175.12084 amu.
 Principal axes and moments of inertia in atomic units:
                           1         2         3
     Eigenvalues --   914.035074339.662074732.14888
           X            0.99998  -0.00001  -0.00628
           Y           -0.00025   0.99917  -0.04084
           Z            0.00628   0.04084   0.99915
 This molecule is an asymmetric top.
 Rotational symmetry number  1.
 Warning -- assumption of classical behavior for rotation
           may cause significant error
 Rotational temperatures (Kelvin)      0.09476     0.01996     0.01830
 Rotational constants (GHZ):           1.97448     0.41587     0.38138
 Zero-point vibrational energy     672198.4 (Joules/Mol)
                                  160.65927 (Kcal/Mol)
 Warning -- explicit consideration of  20 degrees of freedom as
           vibrations may cause significant error
 Vibrational temperatures:     40.96    86.50   101.60   143.55   154.27
          (Kelvin)            174.61   228.69   271.81   307.73   343.52
                              351.33   398.99   456.96   514.59   568.78
                              603.23   637.40   666.60   730.41   762.82
                              978.20  1139.74  1221.82  1227.77  1259.29
                             1321.25  1368.24  1386.37  1405.33  1481.00
                             1564.41  1581.00  1598.79  1613.17  1637.99
                             1662.32  1671.23  1682.97  1707.52  1712.96
                             1733.27  1759.34  1793.52  1832.36  1856.90
                             1889.65  1931.98  1972.63  2010.12  2024.34
                             2041.22  2056.53  2090.18  2106.65  2128.96
                             2135.40  2154.09  2161.59  2180.12  2183.75
                             2201.13  2227.23  2230.89  2239.34  4287.54
                             4302.94  4321.14  4327.51  4341.24  4362.05
                             4385.99  4405.75  4421.55  4434.55  4447.93
                             4454.83  4489.99  4520.19  4567.25  4590.95
                             5325.47

 Zero-point correction=                           0.256027 (Hartree/Particle)
 Thermal correction to Energy=                    0.269987
 Thermal correction to Enthalpy=                  0.270931
 Thermal correction to Gibbs Free Energy=         0.214533
 Sum of electronic and zero-point Energies=           -595.206215
 Sum of electronic and thermal Energies=              -595.192255
 Sum of electronic and thermal Enthalpies=            -595.191311
 Sum of electronic and thermal Free Energies=         -595.247709

                     E (Thermal)             CV                S
                      KCal/Mol        Cal/Mol-Kelvin    Cal/Mol-Kelvin
 Total                  169.419             50.091            118.699
 Electronic               0.000              0.000              0.000
 Translational            0.889              2.981             41.388
 Rotational               0.889              2.981             31.307
 Vibrational            167.642             44.130             46.004
 Vibration     1          0.593              1.984              5.933
 Vibration     2          0.597              1.973              4.453
 Vibration     3          0.598              1.968              4.136
 Vibration     4          0.604              1.949              3.459
 Vibration     5          0.606              1.943              3.319
 Vibration     6          0.609              1.931              3.079
 Vibration     7          0.621              1.893              2.562
 Vibration     8          0.633              1.855              2.238
 Vibration     9          0.644              1.820              2.010
 Vibration    10          0.657              1.781              1.812
 Vibration    11          0.660              1.772              1.772
 Vibration    12          0.678              1.715              1.550
 Vibration    13          0.704              1.640              1.322
 Vibration    14          0.733              1.560              1.132
 Vibration    15          0.762              1.480              0.980
 Vibration    16          0.782              1.428              0.894
 Vibration    17          0.803              1.376              0.817
 Vibration    18          0.821              1.331              0.757
 Vibration    19          0.863              1.233              0.639
 Vibration    20          0.885              1.183              0.587

 Normal termination of Gaussian 16 at Wed Dec 30 15:14:54 2020.

 ----------------------------------------------------------------------
 # B3LYP/6-311++G(d,p) empiricaldispersion=gd3bj scf=xqc pop=npa geom=c
 heck
 ----------------------------------------------------------------------

 --------------------------------------
 CID_61582910_JID_2019_Energie_neutraal
 --------------------------------------
 Structure from the checkpoint file:  "JID_2019.chk"
 Charge =  0 Multiplicity = 1

 SCF Done:  E(RB3LYP) =  -595.647078528     A.U. after   13 cycles
 Normal termination of Gaussian 16 at Wed Dec 30 15:17:07 2020.

 ----------------------------------------------------------------------
 # B3LYP/6-311++G(d,p) empiricaldispersion=gd3bj scf=xqc pop=npa geom=c
 heck
 ----------------------------------------------------------------------

 ------------------------------------
 CID_61582910_JID_2019_Energie_kation
 ------------------------------------
 Structure from the checkpoint file:  "JID_2019.chk"
 Charge =  1 Multiplicity = 2

 SCF Done:  E(UB3LYP) =  -595.371906058     A.U. after   18 cycles
 Normal termination of Gaussian 16 at Wed Dec 30 15:21:09 2020.
 Gaussian 16:  ES64L-G16RevA.03 25-Dec-2016

 ----------------------------------------------------------------------
 # B3LYP/6-311++G(d,p) empiricaldispersion=gd3bj scf=xqc pop=npa geom=c
 heck
 ----------------------------------------------------------------------

 -----------------------------------
 CID_61582910_JID_2019_Energie_anion
 -----------------------------------
 Structure from the checkpoint file:  "JID_2019.chk"
 Charge = -1 Multiplicity = 2

                         Standard orientation:
 ---------------------------------------------------------------------
 Center     Atomic      Atomic             Coordinates (Angstroms)
 Number     Number       Type             X           Y           Z
 ---------------------------------------------------------------------
      1          6           0       -1.455065    2.026079   -0.467279
      2          7           0       -0.889553    1.217380    0.597778
      3          6           0       -1.745434    0.139345    1.068561
      4          6           0       -2.313638   -0.794975    0.016349
      5          6           0       -3.641094   -1.398059    0.197432
      6          8           0       -3.464571   -0.300498   -0.702054
      7          6           0        0.537846    0.982336    0.509993
      8          6           0        1.060098    0.096492   -0.642296
      9          6           0        2.576879    0.186589   -0.781023
     10          8           0        3.125443   -0.385127    0.398864
     11          6           0        4.533289   -0.489697    0.363050
     12          8           0        0.694984   -1.272927   -0.471498
     13          1           0       -2.483021    2.297323   -0.206894
     14          1           0       -1.496199    1.529931   -1.451929
     15          1           0       -0.866782    2.946183   -0.572558
     16          1           0       -1.175320   -0.450919    1.795969
     17          1           0       -2.600078    0.585392    1.599958
     18          1           0       -1.585519   -1.312055   -0.604133
     19          1           0       -3.870241   -2.356849   -0.268335
     20          1           0       -4.214839   -1.174692    1.098635
     21          1           0        1.023316    1.965987    0.424563
     22          1           0        0.881462    0.543769    1.454720
     23          1           0        0.604006    0.415909   -1.585955
     24          1           0        2.907172   -0.382257   -1.664364
     25          1           0        2.909125    1.230727   -0.897819
     26          1           0        4.869862   -1.112574   -0.480216
     27          1           0        5.007197    0.500006    0.276071
     28          1           0        4.847584   -0.954397    1.300801
     29          1           0        1.305020   -1.613401    0.205818
 ---------------------------------------------------------------------

 SCF Done:  E(UB3LYP) =  -595.631721744     A.U. after   29 cycles

 The electronic state is 2-A.
 Alpha  occ. eigenvalues --  -19.04237 -19.03241 -19.02334 -14.20761 -10.13082
 Alpha  occ. eigenvalues --  -10.12532 -10.12242 -10.11714 -10.10714 -10.10380
 Alpha  occ. eigenvalues --  -10.09419 -10.09032  -0.98153  -0.95060  -0.92144
 Alpha  occ. eigenvalues --   -0.82667  -0.67526  -0.64265  -0.61379  -0.57749
 Alpha  occ. eigenvalues --   -0.56809  -0.53333  -0.50208  -0.48308  -0.42047
 Alpha  occ. eigenvalues --   -0.41471  -0.39875  -0.39204  -0.38475  -0.37031
 Alpha  occ. eigenvalues --   -0.36428  -0.35428  -0.32654  -0.31871  -0.31512
 Alpha  occ. eigenvalues --   -0.30485  -0.28848  -0.28189  -0.28065  -0.26560
 Alpha  occ. eigenvalues --   -0.26426  -0.23546  -0.23322  -0.22002  -0.19458
 Alpha  occ. eigenvalues --   -0.17931  -0.16922  -0.10975   0.04555
 Alpha virt. eigenvalues --    0.06078   0.07137   0.07864   0.08515   0.08870
 Alpha virt. eigenvalues --    0.09092   0.10355   0.10600   0.11132   0.11390
 Alpha virt. eigenvalues --    0.11980   0.12423   0.12969   0.14086   0.14513

  Beta  occ. eigenvalues --  -19.04234 -19.03225 -19.02324 -14.20759 -10.13062
  Beta  occ. eigenvalues --  -10.12529 -10.12234 -10.11682 -10.10650 -10.10367
  Beta  occ. eigenvalues --  -10.09405 -10.09019  -0.98147  -0.95037  -0.92120
  Beta  occ. eigenvalues --   -0.82657  -0.67492  -0.64241  -0.61336  -0.57706
  Beta  occ. eigenvalues --   -0.56737  -0.53276  -0.50151  -0.48277  -0.42030
  Beta  occ. eigenvalues --   -0.41417  -0.39829  -0.39170  -0.38444  -0.36989
  Beta  occ. eigenvalues --   -0.36404  -0.35393  -0.32624  -0.31848  -0.31466
  Beta  occ. eigenvalues --   -0.30456  -0.28812  -0.28167  -0.28043  -0.26536
  Beta  occ. eigenvalues --   -0.26410  -0.23502  -0.23248  -0.21985  -0.19444
  Beta  occ. eigenvalues --   -0.17918  -0.16886  -0.10962
  Beta virt. eigenvalues --    0.06521   0.07316   0.07792   0.08175   0.09010
  Beta virt. eigenvalues --    0.09538   0.09651   0.10781   0.10939   0.11395
  Beta virt. eigenvalues --    0.11910   0.12185   0.12726   0.13256   0.14294

 Mulliken charges and spin densities:
               1          2
     1  C   -0.110592  -0.255169
     2  N   -0.006002   0.190174
     3  C    0.879164  -1.256350
     4  C   -1.158934   1.234415
     5  C    0.509623  -0.902536
     6  O   -0.150480   0.011674
     7  C    0.171965  -0.943004
     8  C   -0.582449   0.964319
     9  C    0.247635  -1.083635
    10  O   -0.306369   0.136911
    11  C    1.508929  -1.772191
    12  O   -0.197197   0.003398
    13  H    0.066665   0.082560
    14  H    0.106427   0.025825
    15  H   -0.089102   0.226531
    16  H   -0.097107   0.203743
    17  H    0.111768   0.086284
    18  H    0.101461   0.194759
    19  H   -0.046363   0.175331
    20  H   -0.256722   0.390057
    21  H   -0.070311   0.218183
    22  H    0.193401   0.029529
    23  H    0.005987   0.186730
    24  H   -0.194462   0.363432
    25  H   -0.226826   0.392120
    26  H   -0.460761   0.599173
    27  H   -0.630700   0.775071
    28  H   -0.544877   0.685915
    29  H    0.226229   0.036752
 Sum of Mulliken charges =  -1.00000   1.00000

 Dipole moment (field-independent basis, Debye):
    X=             -7.5513    Y=             -0.0926    Z=             -0.0136  Tot=              7.5519
 Quadrupole moment (field-independent basis, Debye-Ang):
   XX=           -180.0262   YY=           -111.0535   ZZ=           -105.7961
   XY=             -1.2958   XZ=             -0.2369   YZ=             -0.3546

 Summary of Natural Population Analysis:

                                       Natural Population
                Natural  -----------------------------------------------
    Atom  No    Charge         Core      Valence    Rydberg      Total
 -----------------------------------------------------------------------
      C    1   -0.17761      0.99964     2.17100    0.00697     3.17761
      N    2   -0.27839      0.99973     2.76553    0.01313     3.77839
      C    3   -0.09228      0.99959     2.08023    0.01246     3.09228
      C    4    0.02737      0.99956     1.95935    0.01372     2.97263
      C    5   -0.03515      0.99958     2.02436    0.01120     3.03515
      O    6   -0.28646      0.99992     3.27859    0.00794     4.28646
      C    7   -0.09191      0.99958     2.07899    0.01334     3.09191
      C    8    0.04140      0.99956     1.94407    0.01498     2.95860
      C    9   -0.01799      0.99957     2.00595    0.01247     3.01799
      O   10   -0.30900      0.99988     3.29863    0.01049     4.30900
      C   11   -0.09463      0.99962     2.08584    0.00917     3.09463
      O   12   -0.37971      0.99990     3.37267    0.00713     4.37971
      H   13    0.09776      0.00000     0.40106    0.00118     0.40224
      H   14    0.08240      0.00000     0.41590    0.00171     0.41760
      H   15    0.09296      0.00000     0.40597    0.00107     0.40704
      H   16    0.10264      0.00000     0.39616    0.00120     0.39736
      H   17    0.09223      0.00000     0.40644    0.00133     0.40777
      H   18    0.10656      0.00000     0.39168    0.00176     0.39344
      H   19    0.08629      0.00000     0.41262    0.00109     0.41371
      H   20    0.08508      0.00000     0.41356    0.00137     0.41492
      H   21    0.09735      0.00000     0.40122    0.00143     0.40265
      H   22    0.09982      0.00000     0.39833    0.00185     0.40018
      H   23    0.08906      0.00000     0.40937    0.00157     0.41094
      H   24    0.08563      0.00000     0.41270    0.00167     0.41437
      H   25    0.08661      0.00000     0.41118    0.00221     0.41339
      H   26    0.08067      0.00000     0.41625    0.00308     0.41933
      H   27    0.08287      0.00000     0.41371    0.00342     0.41713
      H   28    0.09176      0.00000     0.40627    0.00197     0.40824
      H   29    0.23469      0.00000     0.26189    0.00342     0.26531
 =======================================================================
   * Total *    0.00000     11.99614    35.83952    0.16434    48.00000

 Normal termination of Gaussian 16 at Wed Dec 30 15:27:35 2020.
