 Gaussian 16, Revision A.03,

 -----------------------------------------------------------
 # opt freq B3LYP/6-31G(d) empiricaldispersion=gd3bj scf=xqc
 -----------------------------------------------------------

 -------------------------------
 CID_70622765_JID_10492_neutraal
 -------------------------------
 Symbolic Z-matrix:
 Charge =  0 Multiplicity = 1

 SCF Done:  E(RB3LYP) =  -901.661255745     A.U. after   15 cycles
 SCF Done:  E(RB3LYP) =  -901.668167312     A.U. after   12 cycles
 SCF Done:  E(RB3LYP) =  -901.669008681     A.U. after   12 cycles
 SCF Done:  E(RB3LYP) =  -901.669013305     A.U. after   12 cycles
 SCF Done:  E(RB3LYP) =  -901.669241394     A.U. after   11 cycles
 SCF Done:  E(RB3LYP) =  -901.669331683     A.U. after   12 cycles
 SCF Done:  E(RB3LYP) =  -901.669371992     A.U. after   10 cycles
 SCF Done:  E(RB3LYP) =  -901.669386211     A.U. after   10 cycles
 SCF Done:  E(RB3LYP) =  -901.669395743     A.U. after    9 cycles
 SCF Done:  E(RB3LYP) =  -901.669404449     A.U. after   10 cycles
 SCF Done:  E(RB3LYP) =  -901.669448846     A.U. after   10 cycles
 SCF Done:  E(RB3LYP) =  -901.669450034     A.U. after    9 cycles
 SCF Done:  E(RB3LYP) =  -901.669450559     A.U. after    8 cycles
 SCF Done:  E(RB3LYP) =  -901.669450628     A.U. after    7 cycles
 SCF Done:  E(RB3LYP) =  -901.669450627     A.U. after    6 cycles
 Optimization completed.
    -- Stationary point found.
 Normal termination of Gaussian 16 at Sun Dec 13 13:16:51 2020.

 --------------------------------------------------------------------
 #N Geom=AllCheck Guess=TCheck SCRF=Check GenChk RB3LYP/6-31G(d) Freq
 --------------------------------------------------------------------

 Structure from the checkpoint file:  "JID_10492.chk"
 -------------------------------
 CID_70622765_JID_10492_neutraal
 -------------------------------
 Charge =  0 Multiplicity = 1

 SCF Done:  E(RB3LYP) =  -901.669450627     A.U. after    1 cycles

  Exact polarizability: 244.647  -4.452 179.827  13.566   7.099 114.909
 Approx polarizability: 345.100  -8.345 299.352  25.969  19.610 177.417

                      1                      2                      3
                      A                      A                      A
 Frequencies --     26.9623                36.0896                47.8518
 Red. masses --      2.4428                 5.6951                 3.2791
 Frc consts  --      0.0010                 0.0044                 0.0044
 IR Inten    --      0.2163                 0.6853                 0.0512

                      4                      5                      6
                      A                      A                      A
 Frequencies --     70.6343               101.1155               136.2081
 Red. masses --      5.2302                 1.8108                 2.8245
 Frc consts  --      0.0154                 0.0109                 0.0309
 IR Inten    --      1.4102                 0.2425                 3.7420

                      7                      8                      9
                      A                      A                      A
 Frequencies --    152.5336               167.8767               182.2483
 Red. masses --      3.8395                 2.8654                 5.3842
 Frc consts  --      0.0526                 0.0476                 0.1054
 IR Inten    --      0.9202                 1.0299                 0.9216

                     10                     11                     12
                      A                      A                      A
 Frequencies --    201.2075               220.2567               238.1615
 Red. masses --      3.4935                 1.2747                 1.1520
 Frc consts  --      0.0833                 0.0364                 0.0385
 IR Inten    --      0.7157                 0.4526                 0.3304

                     13                     14                     15
                      A                      A                      A
 Frequencies --    244.7114               262.0862               281.0319
 Red. masses --      2.2389                 2.4096                 3.3840
 Frc consts  --      0.0790                 0.0975                 0.1575
 IR Inten    --      0.9828                 1.6639                 0.1339

                     16                     17                     18
                      A                      A                      A
 Frequencies --    293.9946               306.5214               317.5618
 Red. masses --      3.4550                 3.1819                 2.8937
 Frc consts  --      0.1759                 0.1761                 0.1719
 IR Inten    --      0.2129                 0.7118                 0.8364

                     19                     20                     21
                      A                      A                      A
 Frequencies --    360.3652               381.0329               421.3575
 Red. masses --      3.4937                 4.2506                 4.2875
 Frc consts  --      0.2673                 0.3636                 0.4485
 IR Inten    --      1.0627                 1.4149                 2.5617

                     22                     23                     24
                      A                      A                      A
 Frequencies --    447.0539               469.8014               504.1776
 Red. masses --      3.2478                 3.7868                 3.7126
 Frc consts  --      0.3824                 0.4924                 0.5560
 IR Inten    --      4.9866                 4.9273                 1.8354

                     25                     26                     27
                      A                      A                      A
 Frequencies --    538.7624               559.0117               566.8689
 Red. masses --      3.9582                 4.7653                 3.4394
 Frc consts  --      0.6769                 0.8774                 0.6512
 IR Inten    --     10.6107                 7.4507                 6.5022

                     28                     29                     30
                      A                      A                      A
 Frequencies --    584.4277               588.0374               602.9879
 Red. masses --      3.8318                 4.0012                 2.9707
 Frc consts  --      0.7711                 0.8152                 0.6364
 IR Inten    --      5.6233                 7.9520                40.3868

                     31                     32                     33
                      A                      A                      A
 Frequencies --    645.9762               656.4586               680.6133
 Red. masses --      3.1949                 3.0635                 1.8668
 Frc consts  --      0.7855                 0.7778                 0.5095
 IR Inten    --     26.9590                 7.4642                49.5254

                     34                     35                     36
                      A                      A                      A
 Frequencies --    701.1332               754.1063               771.7258
 Red. masses --      4.9104                 1.3627                 3.8635
 Frc consts  --      1.4222                 0.4566                 1.3557
 IR Inten    --      8.1198                45.7344                 0.4306

                     37                     38                     39
                      A                      A                      A
 Frequencies --    784.9993               797.1371               816.9203
 Red. masses --      3.8530                 3.7686                 3.3556
 Frc consts  --      1.3989                 1.4109                 1.3194
 IR Inten    --     31.8029                 5.2134                 1.1351

                     40                     41                     42
                      A                      A                      A
 Frequencies --    847.4732               855.3747               892.6828
 Red. masses --      2.8818                 1.5202                 2.1189
 Frc consts  --      1.2194                 0.6554                 0.9948
 IR Inten    --      3.5807                 0.0957                 4.0623

                     43                     44                     45
                      A                      A                      A
 Frequencies --    912.7589               918.1956               956.5978
 Red. masses --      2.0166                 1.3419                 2.2057
 Frc consts  --      0.9899                 0.6666                 1.1892
 IR Inten    --     10.7871                 0.7846                 7.3677

                     46                     47                     48
                      A                      A                      A
 Frequencies --    964.5174               992.1486              1028.7206
 Red. masses --      1.2373                 2.4359                 1.5893
 Frc consts  --      0.6782                 1.4128                 0.9910
 IR Inten    --      0.2111                 3.8637                 9.3829

                     49                     50                     51
                      A                      A                      A
 Frequencies --   1041.6909              1046.8357              1067.8804
 Red. masses --      2.5170                 2.2588                 2.5671
 Frc consts  --      1.6092                 1.4584                 1.7248
 IR Inten    --      6.5800                18.7302                18.7468

                     52                     53                     54
                      A                      A                      A
 Frequencies --   1073.2242              1076.7348              1098.5484
 Red. masses --      1.5389                 1.6807                 2.3832
 Frc consts  --      1.0444                 1.1481                 1.6945
 IR Inten    --     14.2830                 2.2067                95.6690

                     55                     56                     57
                      A                      A                      A
 Frequencies --   1132.0553              1137.9713              1143.9578
 Red. masses --      2.3285                 2.9333                 2.6588
 Frc consts  --      1.7582                 2.2381                 2.0500
 IR Inten    --     20.6014                57.4355                33.6480

                     58                     59                     60
                      A                      A                      A
 Frequencies --   1158.5010              1168.2345              1190.6714
 Red. masses --      1.5166                 2.7610                 1.2738
 Frc consts  --      1.1992                 2.2201                 1.0640
 IR Inten    --      0.6395                11.1718                10.6796

                     61                     62                     63
                      A                      A                      A
 Frequencies --   1205.4851              1223.3140              1249.9163
 Red. masses --      2.4644                 2.0537                 2.0960
 Frc consts  --      2.1100                 1.8108                 1.9293
 IR Inten    --     28.6858               201.0289                39.2041

                     64                     65                     66
                      A                      A                      A
 Frequencies --   1263.3198              1280.1325              1306.3416
 Red. masses --      2.6363                 1.4042                 1.2753
 Frc consts  --      2.4789                 1.3558                 1.2823
 IR Inten    --     37.1765                23.4261                 4.7742

                     67                     68                     69
                      A                      A                      A
 Frequencies --   1332.9926              1354.5480              1362.6563
 Red. masses --      1.5154                 1.3794                 1.7754
 Frc consts  --      1.5865                 1.4912                 1.9423
 IR Inten    --      7.8601                 5.7699                29.6367

                     70                     71                     72
                      A                      A                      A
 Frequencies --   1384.8398              1397.0168              1407.1440
 Red. masses --      2.5195                 1.7850                 5.7427
 Frc consts  --      2.8468                 2.0526                 6.6995
 IR Inten    --     59.6609                10.0266                19.6337

                     73                     74                     75
                      A                      A                      A
 Frequencies --   1417.7417              1421.7438              1439.4453
 Red. masses --      3.3996                 1.4171                 1.2600
 Frc consts  --      4.0260                 1.6877                 1.5382
 IR Inten    --     49.3520                11.5535                 2.1319

                     76                     77                     78
                      A                      A                      A
 Frequencies --   1441.0625              1452.4354              1456.2859
 Red. masses --      1.3078                 1.2758                 2.9368
 Frc consts  --      1.6001                 1.5857                 3.6696
 IR Inten    --     13.8145                 8.7341                 4.0486

                     79                     80                     81
                      A                      A                      A
 Frequencies --   1501.3684              1512.6771              1516.8193
 Red. masses --      2.3126                 1.1386                 1.0858
 Frc consts  --      3.0713                 1.5350                 1.4718
 IR Inten    --     54.3746                12.2384                 4.9586

                     82                     83                     84
                      A                      A                      A
 Frequencies --   1519.5645              1525.2108              1527.0947
 Red. masses --      1.0715                 1.0738                 1.3252
 Frc consts  --      1.4578                 1.4717                 1.8209
 IR Inten    --      4.1291                 3.8361                 2.9457

                     85                     86                     87
                      A                      A                      A
 Frequencies --   1531.3389              1533.5002              1535.4087
 Red. masses --      1.4378                 1.1949                 1.2679
 Frc consts  --      1.9865                 1.6556                 1.7611
 IR Inten    --      3.7444                 4.8943                 7.2212

                     88                     89                     90
                      A                      A                      A
 Frequencies --   1538.5305              1613.8591              1632.4749
 Red. masses --      1.0716                 6.2389                 6.2166
 Frc consts  --      1.4944                 9.5740                 9.7610
 IR Inten    --      8.1879                 0.7774                 0.1039

                     91                     92                     93
                      A                      A                      A
 Frequencies --   1671.8213              1828.2478              3028.8868
 Red. masses --      6.7838                 9.4880                 1.0701
 Frc consts  --     11.1713                18.6850                 5.7843
 IR Inten    --      1.6456               267.6583                38.1685

                     94                     95                     96
                      A                      A                      A
 Frequencies --   3034.1672              3039.3394              3076.8749
 Red. masses --      1.0445                 1.0616                 1.0355
 Frc consts  --      5.6654                 5.7778                 5.7762
 IR Inten    --     39.1631                40.1056                19.4804

                     97                     98                     99
                      A                      A                      A
 Frequencies --   3079.7848              3081.0767              3092.1715
 Red. masses --      1.0448                 1.0899                 1.1004
 Frc consts  --      5.8389                 6.0961                 6.1990
 IR Inten    --      3.5271                28.4633                30.4896

                    100                    101                    102
                      A                      A                      A
 Frequencies --   3103.3097              3126.0927              3138.7621
 Red. masses --      1.0838                 1.0975                 1.0973
 Frc consts  --      6.1497                 6.3191                 6.3694
 IR Inten    --      5.7391                39.1333                18.7437

                    103                    104                    105
                      A                      A                      A
 Frequencies --   3144.2923              3148.3526              3163.0794
 Red. masses --      1.1025                 1.0972                 1.1026
 Frc consts  --      6.4220                 6.4078                 6.4996
 IR Inten    --     20.4711                31.3107                11.6620

                    106                    107                    108
                      A                      A                      A
 Frequencies --   3178.7514              3181.4717              3189.8548
 Red. masses --      1.1022                 1.0849                 1.0880
 Frc consts  --      6.5621                 6.4697                 6.5227
 IR Inten    --      8.2095                 0.7903                 5.0274

                    109                    110                    111
                      A                      A                      A
 Frequencies --   3199.6018              3210.1748              3683.2102
 Red. masses --      1.0933                 1.0969                 1.0639
 Frc consts  --      6.5943                 6.6600                 8.5033
 IR Inten    --     37.4125                31.0727                52.9972

 - Thermochemistry -
 -------------------
 Temperature   298.150 Kelvin.  Pressure   1.00000 Atm.
 Atom     1 has atomic number  6 and mass  12.00000

 Molecular mass:   273.13649 amu.
 Principal axes and moments of inertia in atomic units:
                           1         2         3
     Eigenvalues --  2406.385957934.639848934.80285
           X            1.00000  -0.00173   0.00210
           Y            0.00172   1.00000   0.00263
           Z           -0.00210  -0.00262   0.99999
 This molecule is an asymmetric top.
 Rotational symmetry number  1.
 Warning -- assumption of classical behavior for rotation
           may cause significant error
 Rotational temperatures (Kelvin)      0.03599     0.01092     0.00969
 Rotational constants (GHZ):           0.74998     0.22745     0.20199
 Zero-point vibrational energy     860763.2 (Joules/Mol)
                                  205.72735 (Kcal/Mol)
 Warning -- explicit consideration of  30 degrees of freedom as
           vibrations may cause significant error
 Vibrational temperatures:     38.79    51.92    68.85   101.63   145.48
          (Kelvin)            195.97   219.46   241.54   262.21   289.49
                              316.90   342.66   352.09   377.08   404.34
                              422.99   441.02   456.90   518.49   548.22
                              606.24   643.21   675.94   725.40   775.16
                              804.29   815.60   840.86   846.05   867.57
                              929.42   944.50   979.25  1008.77  1084.99
                             1110.34  1129.44  1146.90  1175.37  1219.32
                             1230.69  1284.37  1313.26  1321.08  1376.33
                             1387.73  1427.48  1480.10  1498.76  1506.16
                             1536.44  1544.13  1549.18  1580.57  1628.78
                             1637.29  1645.90  1666.82  1680.83  1713.11
                             1734.42  1760.08  1798.35  1817.64  1841.83
                             1879.53  1917.88  1948.89  1960.56  1992.48
                             2010.00  2024.57  2039.81  2045.57  2071.04
                             2073.37  2089.73  2095.27  2160.13  2176.40
                             2182.36  2186.31  2194.44  2197.15  2203.26
                             2206.36  2209.11  2213.60  2321.98  2348.77
                             2405.38  2630.44  4357.89  4365.49  4372.93
                             4426.94  4431.12  4432.98  4448.95  4464.97
                             4497.75  4515.98  4523.94  4529.78  4550.97
                             4573.51  4577.43  4589.49  4603.51  4618.73
                             5299.32

 Zero-point correction=                           0.327847 (Hartree/Particle)
 Thermal correction to Energy=                    0.346170
 Thermal correction to Enthalpy=                  0.347114
 Thermal correction to Gibbs Free Energy=         0.281277
 Sum of electronic and zero-point Energies=           -901.341603
 Sum of electronic and thermal Energies=              -901.323281
 Sum of electronic and thermal Enthalpies=            -901.322337
 Sum of electronic and thermal Free Energies=         -901.388173

                     E (Thermal)             CV                S
                      KCal/Mol        Cal/Mol-Kelvin    Cal/Mol-Kelvin
 Total                  217.225             71.504            138.565
 Electronic               0.000              0.000              0.000
 Translational            0.889              2.981             42.713
 Rotational               0.889              2.981             33.500
 Vibrational            215.447             65.543             62.352
 Vibration     1          0.593              1.984              6.041
 Vibration     2          0.594              1.982              5.463
 Vibration     3          0.595              1.978              4.904
 Vibration     4          0.598              1.968              4.136
 Vibration     5          0.604              1.948              3.433
 Vibration     6          0.614              1.917              2.856
 Vibration     7          0.619              1.900              2.640
 Vibration     8          0.625              1.882              2.459
 Vibration     9          0.630              1.864              2.305
 Vibration    10          0.638              1.838              2.122
 Vibration    11          0.647              1.810              1.957
 Vibration    12          0.656              1.782              1.817
 Vibration    13          0.660              1.772              1.768
 Vibration    14          0.669              1.742              1.648
 Vibration    15          0.681              1.709              1.527
 Vibration    16          0.689              1.685              1.451
 Vibration    17          0.697              1.661              1.381
 Vibration    18          0.704              1.640              1.323
 Vibration    19          0.735              1.554              1.121
 Vibration    20          0.751              1.511              1.035
 Vibration    21          0.784              1.424              0.887
 Vibration    22          0.806              1.367              0.805
 Vibration    23          0.827              1.317              0.738
 Vibration    24          0.859              1.241              0.648
 Vibration    25          0.894              1.164              0.568
 Vibration    26          0.915              1.120              0.526
 Vibration    27          0.923              1.103              0.510
 Vibration    28          0.941              1.065              0.477
 Vibration    29          0.945              1.057              0.471
 Vibration    30          0.961              1.025              0.445

 Optimization completed.
    -- Stationary point found.
 Normal termination of Gaussian 16 at Sun Dec 13 13:41:33 2020.

 ----------------------------------------------------------------------
 # B3LYP/6-311++G(d,p) empiricaldispersion=gd3bj scf=xqc pop=npa geom=c
 heck
 ----------------------------------------------------------------------

 ---------------------------------------
 CID_70622765_JID_10492_Energie_neutraal
 ---------------------------------------
 Structure from the checkpoint file:  "JID_10492.chk"
 Charge =  0 Multiplicity = 1

 SCF Done:  E(RB3LYP) =  -901.918041809     A.U. after   15 cycles
 Normal termination of Gaussian 16 at Sun Dec 13 13:51:52 2020.

 ----------------------------------------------------------------------
 # B3LYP/6-311++G(d,p) empiricaldispersion=gd3bj scf=xqc pop=npa geom=c
 heck
 ----------------------------------------------------------------------

 -------------------------------------
 CID_70622765_JID_10492_Energie_kation
 -------------------------------------
 Structure from the checkpoint file:  "JID_10492.chk"
 Charge =  1 Multiplicity = 2

 SCF Done:  E(UB3LYP) =  -901.653906374     A.U. after   24 cycles
 Normal termination of Gaussian 16 at Sun Dec 13 14:15:19 2020.
 Gaussian 16:  ES64L-G16RevA.03 25-Dec-2016

 ----------------------------------------------------------------------
 # B3LYP/6-311++G(d,p) empiricaldispersion=gd3bj scf=xqc pop=npa geom=c
 heck
 ----------------------------------------------------------------------

 ------------------------------------
 CID_70622765_JID_10492_Energie_anion
 ------------------------------------
 Structure from the checkpoint file:  "JID_10492.chk"
 Charge = -1 Multiplicity = 2

                         Standard orientation:
 ---------------------------------------------------------------------
 Center     Atomic      Atomic             Coordinates (Angstroms)
 Number     Number       Type             X           Y           Z
 ---------------------------------------------------------------------
      1          6           0        0.567456   -2.704413   -0.492249
      2          6           0        0.963598   -1.267736   -0.324038
      3          6           0        0.176738   -0.133870   -0.336613
      4          6           0       -1.316510    0.041325   -0.544212
      5          8           0       -1.715428    1.411743   -0.339652
      6          6           0       -0.825339    2.388883   -0.846051
      7          6           0        0.477568    2.345976   -0.062546
      8          7           0        0.975261    0.986368   -0.109501
      9          6           0        2.283202    0.584272    0.067941
     10          6           0        3.433894    1.334216    0.327028
     11          6           0        4.634019    0.642053    0.453470
     12          6           0        4.685611   -0.760529    0.326388
     13          6           0        3.537371   -1.500452    0.070611
     14          6           0        2.311301   -0.830026   -0.063406
     15          6           0       -1.713843   -0.384839   -1.966337
     16          6           0       -2.102288   -0.739088    0.562464
     17          6           0       -1.585152   -0.430244    1.970878
     18          6           0       -3.593565   -0.477346    0.406739
     19          8           0       -4.303097   -1.001856   -0.426877
     20          8           0       -4.080730    0.408706    1.304523
     21          1           0        1.249601   -3.217190   -1.181399
     22          1           0       -0.442663   -2.821511   -0.891015
     23          1           0        0.609034   -3.249090    0.460863
     24          1           0       -0.627713    2.235336   -1.916668
     25          1           0       -1.324519    3.352912   -0.719697
     26          1           0        1.220761    3.018255   -0.505529
     27          1           0        0.301716    2.659143    0.975285
     28          1           0        3.396932    2.414264    0.434665
     29          1           0        5.547344    1.193457    0.657497
     30          1           0        5.639991   -1.268287    0.432831
     31          1           0        3.586666   -2.582024   -0.022467
     32          1           0       -1.487630   -1.439795   -2.138452
     33          1           0       -2.781553   -0.229909   -2.125461
     34          1           0       -1.147588    0.196938   -2.699698
     35          1           0       -1.977575   -1.803601    0.344645
     36          1           0       -1.630975    0.642990    2.167340
     37          1           0       -2.190604   -0.940081    2.725687
     38          1           0       -0.549865   -0.764905    2.072221
     39          1           0       -5.028506    0.500695    1.091499
 ---------------------------------------------------------------------

 SCF Done:  E(UB3LYP) =  -901.906792152     A.U. after   33 cycles
 SCF Done:  E(UB3LYP) =  -901.906792152     a.u. after    1 cycles

 The electronic state is 2-A.
 Alpha  occ. eigenvalues --  -19.07942 -19.04352 -19.02566 -14.26936 -10.21790
 Alpha  occ. eigenvalues --  -10.16684 -10.13457 -10.12219 -10.11946 -10.11275
 Alpha  occ. eigenvalues --  -10.10891 -10.08441 -10.08404 -10.08298 -10.08148
 Alpha  occ. eigenvalues --  -10.08019 -10.07966 -10.07918 -10.07376 -10.07192
 Alpha  occ. eigenvalues --   -1.02179  -0.96505  -0.93080  -0.89700  -0.76116
 Alpha  occ. eigenvalues --   -0.74929  -0.71276  -0.67641  -0.66622  -0.64758
 Alpha  occ. eigenvalues --   -0.62918  -0.60542  -0.57442  -0.57002  -0.53231
 Alpha  occ. eigenvalues --   -0.52381  -0.49781  -0.48673  -0.45496  -0.43334
 Alpha  occ. eigenvalues --   -0.42915  -0.40361  -0.40141  -0.39940  -0.38446
 Alpha  occ. eigenvalues --   -0.36782  -0.36351  -0.35708  -0.35247  -0.34802
 Alpha  occ. eigenvalues --   -0.34160  -0.33393  -0.33330  -0.32158  -0.31833
 Alpha  occ. eigenvalues --   -0.31163  -0.30559  -0.30078  -0.29506  -0.28755
 Alpha  occ. eigenvalues --   -0.28577  -0.27281  -0.26955  -0.25956  -0.24976
 Alpha  occ. eigenvalues --   -0.23802  -0.23403  -0.22734  -0.19169  -0.18762
 Alpha  occ. eigenvalues --   -0.18074  -0.13561  -0.11317   0.03989
 Alpha virt. eigenvalues --    0.05741   0.05956   0.06240   0.06920   0.07541
 Alpha virt. eigenvalues --    0.08111   0.08285   0.08693   0.09221   0.09410
 Alpha virt. eigenvalues --    0.09969   0.10222   0.10614   0.11196   0.12139

  Beta  occ. eigenvalues --  -19.07907 -19.04347 -19.02554 -14.26936 -10.21785
  Beta  occ. eigenvalues --  -10.16684 -10.13427 -10.12184 -10.11940 -10.11274
  Beta  occ. eigenvalues --  -10.10882 -10.08420 -10.08380 -10.08284 -10.08140
  Beta  occ. eigenvalues --  -10.08019 -10.07965 -10.07914 -10.07362 -10.07180
  Beta  occ. eigenvalues --   -1.02131  -0.96494  -0.93040  -0.89689  -0.76096
  Beta  occ. eigenvalues --   -0.74910  -0.71254  -0.67609  -0.66602  -0.64726
  Beta  occ. eigenvalues --   -0.62894  -0.60504  -0.57398  -0.56968  -0.53184
  Beta  occ. eigenvalues --   -0.52330  -0.49748  -0.48637  -0.45456  -0.43312
  Beta  occ. eigenvalues --   -0.42886  -0.40325  -0.40113  -0.39911  -0.38419
  Beta  occ. eigenvalues --   -0.36753  -0.36323  -0.35669  -0.35222  -0.34776
  Beta  occ. eigenvalues --   -0.34127  -0.33364  -0.33299  -0.32132  -0.31806
  Beta  occ. eigenvalues --   -0.31143  -0.30537  -0.30053  -0.29483  -0.28735
  Beta  occ. eigenvalues --   -0.28546  -0.27259  -0.26935  -0.25936  -0.24956
  Beta  occ. eigenvalues --   -0.23772  -0.23374  -0.22710  -0.19128  -0.18735
  Beta  occ. eigenvalues --   -0.18045  -0.13540  -0.11287
  Beta virt. eigenvalues --    0.05858   0.06200   0.06605   0.06908   0.07463
  Beta virt. eigenvalues --    0.07865   0.08308   0.08525   0.09032   0.09487
  Beta virt. eigenvalues --    0.09797   0.10166   0.10544   0.10729   0.11410

 Mulliken charges and spin densities:
               1          2
     1  C   -0.668916   0.008052
     2  C    0.538657  -0.510231
     3  C    0.502411  -0.452138
     4  C   -0.665192   0.334157
     5  O    0.030270   0.034370
     6  C    0.694837  -0.777753
     7  C    0.477088  -0.656533
     8  N    0.160826   0.222965
     9  C    0.361795  -0.030702
    10  C   -0.527528   0.286126
    11  C    0.193335  -0.592258
    12  C   -0.312182  -0.292250
    13  C   -0.803553   0.410135
    14  C    0.309177   0.050885
    15  C    0.749225  -0.996300
    16  C   -0.017163  -0.060307
    17  C   -0.324238  -0.582402
    18  C    0.092704  -0.178841
    19  O   -0.266561   0.014726
    20  O   -0.143241   0.037106
    21  H   -0.029431   0.179156
    22  H   -0.219653   0.321845
    23  H    0.059493   0.139258
    24  H    0.162529  -0.028519
    25  H   -0.800869   1.017074
    26  H   -0.585085   0.759657
    27  H    0.171608   0.025877
    28  H   -0.540470   0.704999
    29  H   -0.058144   0.214850
    30  H    0.003837   0.131435
    31  H   -0.067689   0.223788
    32  H    0.280939  -0.136781
    33  H    0.117450   0.078127
    34  H   -0.078275   0.228433
    35  H    0.220938   0.018469
    36  H    0.169046   0.042814
    37  H   -0.124909   0.314679
    38  H    0.177573  -0.037969
    39  H   -0.240641   0.533999
 Sum of Mulliken charges =  -1.00000   1.00000

 Dipole moment (field-independent basis, Debye):
    X=              1.5505    Y=             -4.7525    Z=              0.1125  Tot=              5.0003
 Quadrupole moment (field-independent basis, Debye-Ang):
   XX=           -206.0692   YY=           -177.8135   ZZ=           -151.2427
   XY=             -3.3059   XZ=              4.0911   YZ=              0.7516

 Summary of Natural Population Analysis:

                                       Natural Population
                Natural  -----------------------------------------------
    Atom  No    Charge         Core      Valence    Rydberg      Total
 -----------------------------------------------------------------------
      C    1   -0.29099      0.99964     2.28647    0.00489     3.29099
      C    2   -0.07309      0.99947     2.05811    0.01551     3.07309
      C    3    0.08849      0.99942     1.89734    0.01475     2.91151
      C    4    0.14113      0.99947     1.84383    0.01557     2.85887
      O    5   -0.30682      0.99988     3.29621    0.01073     4.30682
      C    6   -0.01126      0.99957     1.99855    0.01314     3.01126
      C    7   -0.09044      0.99961     2.07982    0.01101     3.09044
      N    8   -0.20926      0.99958     2.69958    0.01009     3.70926
      C    9    0.07232      0.99951     1.91371    0.01446     2.92768
      C   10   -0.11486      0.99952     2.10608    0.00926     3.11486
      C   11   -0.10741      0.99958     2.09780    0.01004     3.10741
      C   12   -0.11757      0.99957     2.10794    0.01005     3.11757
      C   13   -0.11471      0.99958     2.09922    0.01592     3.11471
      C   14    0.01746      0.99947     1.97166    0.01141     2.98254
      C   15   -0.29342      0.99960     2.28762    0.00620     3.29342
      C   16   -0.15564      0.99950     2.14324    0.01290     3.15564
      C   17   -0.28886      0.99965     2.28354    0.00567     3.28886
      C   18    0.41608      0.99968     1.55705    0.02719     2.58392
      O   19   -0.31190      0.99987     3.30607    0.00597     4.31190
      O   20   -0.33724      0.99987     3.33056    0.00680     4.33724
      H   21    0.10406      0.00000     0.39464    0.00130     0.39594
      H   22    0.10170      0.00000     0.39713    0.00118     0.39830
      H   23    0.10216      0.00000     0.39653    0.00130     0.39784
      H   24    0.08263      0.00000     0.41574    0.00162     0.41737
      H   25    0.10082      0.00000     0.39721    0.00196     0.39918
      H   26    0.10741      0.00000     0.38936    0.00323     0.39259
      H   27    0.09730      0.00000     0.40121    0.00149     0.40270
      H   28    0.10678      0.00000     0.39172    0.00150     0.39322
      H   29    0.09896      0.00000     0.40020    0.00084     0.40104
      H   30    0.09738      0.00000     0.40183    0.00079     0.40262
      H   31    0.10004      0.00000     0.39880    0.00116     0.39996
      H   32    0.10269      0.00000     0.39640    0.00091     0.39731
      H   33    0.11331      0.00000     0.38559    0.00111     0.38669
      H   34    0.10217      0.00000     0.39674    0.00109     0.39783
      H   35    0.11375      0.00000     0.38443    0.00182     0.38625
      H   36    0.11021      0.00000     0.38812    0.00167     0.38979
      H   37    0.10287      0.00000     0.39623    0.00090     0.39713
      H   38    0.10564      0.00000     0.39341    0.00096     0.39436
      H   39    0.24131      0.00000     0.25096    0.00773     0.25869
 =======================================================================
   * Total *    0.00319     19.99205    52.74066    0.26411    72.99681

 Normal termination of Gaussian 16 at Sun Dec 13 14:47:23 2020.
