 Gaussian 16, Revision A.03,

 -----------------------------------------------------------
 # opt freq B3LYP/6-31G(d) empiricaldispersion=gd3bj scf=xqc
 -----------------------------------------------------------

 -------------------------------
 CID_131236645_JID_2417_neutraal
 -------------------------------
 Symbolic Z-matrix:
 Charge =  0 Multiplicity = 1

 SCF Done:  E(RB3LYP) =  -538.632587402     A.U. after   14 cycles
 SCF Done:  E(RB3LYP) =  -538.650228490     A.U. after   13 cycles
 SCF Done:  E(RB3LYP) =  -538.652459023     A.U. after   13 cycles
 SCF Done:  E(RB3LYP) =  -538.654632417     A.U. after   14 cycles
 SCF Done:  E(RB3LYP) =  -538.657140944     A.U. after   14 cycles
 SCF Done:  E(RB3LYP) =  -538.660266583     A.U. after   14 cycles
 SCF Done:  E(RB3LYP) =  -538.663373210     A.U. after   16 cycles
 SCF Done:  E(RB3LYP) =  -538.663934317     A.U. after   12 cycles
 SCF Done:  E(RB3LYP) =  -538.664257184     A.U. after   12 cycles
 SCF Done:  E(RB3LYP) =  -538.664302478     A.U. after   12 cycles
 SCF Done:  E(RB3LYP) =  -538.664500656     A.U. after    8 cycles
 SCF Done:  E(RB3LYP) =  -538.664500786     A.U. after    7 cycles
 SCF Done:  E(RB3LYP) =  -538.664500920     A.U. after    7 cycles
 SCF Done:  E(RB3LYP) =  -538.664500975     A.U. after    6 cycles
 SCF Done:  E(RB3LYP) =  -538.664501018     A.U. after    7 cycles
 Optimization completed.
    -- Stationary point found.
 Normal termination of Gaussian 16 at Wed Dec  9 17:26:24 2020.

 --------------------------------------------------------------------
 #N Geom=AllCheck Guess=TCheck SCRF=Check GenChk RB3LYP/6-31G(d) Freq
 --------------------------------------------------------------------

 Structure from the checkpoint file:  "JID_2417.chk"
 -------------------------------
 CID_131236645_JID_2417_neutraal
 -------------------------------
 Charge =  0 Multiplicity = 1

 SCF Done:  E(RB3LYP) =  -538.664501018     A.U. after    1 cycles

  Exact polarizability: 143.962   0.997  98.012  -6.715   0.773  89.382
 Approx polarizability: 182.010   2.375 149.749 -15.405   5.820 141.167

                      1                      2                      3
                      A                      A                      A
 Frequencies --     39.0576                50.3740                57.7131
 Red. masses --      3.7402                 5.4844                 4.5898
 Frc consts  --      0.0034                 0.0082                 0.0090
 IR Inten    --      0.4375                 2.6258                 4.4130

                      4                      5                      6
                      A                      A                      A
 Frequencies --     64.3026                95.0388               123.2805
 Red. masses --      4.2453                 5.2619                 1.0470
 Frc consts  --      0.0103                 0.0280                 0.0094
 IR Inten    --      0.8911                 0.5775                 0.0403

                      7                      8                      9
                      A                      A                      A
 Frequencies --    134.5546               180.0317               245.8697
 Red. masses --      1.0640                 3.2187                 3.1413
 Frc consts  --      0.0113                 0.0615                 0.1119
 IR Inten    --      0.0988                 1.5404                 8.4012

                     10                     11                     12
                      A                      A                      A
 Frequencies --    293.3266               317.8434               358.7483
 Red. masses --      2.9414                 3.7277                 3.2479
 Frc consts  --      0.1491                 0.2219                 0.2463
 IR Inten    --      0.0516                 3.6317                 1.4216

                     13                     14                     15
                      A                      A                      A
 Frequencies --    389.3463               431.7666               495.7617
 Red. masses --      3.1006                 5.0391                 2.7520
 Frc consts  --      0.2769                 0.5535                 0.3985
 IR Inten    --      0.7579                 8.2713                 5.8839

                     16                     17                     18
                      A                      A                      A
 Frequencies --    504.9986               551.9989               591.4296
 Red. masses --      4.2119                 4.0757                 3.2677
 Frc consts  --      0.6329                 0.7317                 0.6734
 IR Inten    --      6.4602                 0.3155                 8.9482

                     19                     20                     21
                      A                      A                      A
 Frequencies --    612.1833               655.5440               746.5076
 Red. masses --      2.7674                 2.5217                 2.7201
 Frc consts  --      0.6111                 0.6385                 0.8931
 IR Inten    --      6.2605                 0.7333                 4.2204

                     22                     23                     24
                      A                      A                      A
 Frequencies --    762.3887               865.3651               895.2776
 Red. masses --      2.0012                 4.3788                 1.3686
 Frc consts  --      0.6853                 1.9320                 0.6463
 IR Inten    --      3.5832                 5.4314                 7.8047

                     25                     26                     27
                      A                      A                      A
 Frequencies --    924.3827               959.4046               983.8695
 Red. masses --      1.5986                 1.9239                 2.7632
 Frc consts  --      0.8048                 1.0434                 1.5759
 IR Inten    --     11.9596                 7.8159                23.5618

                     28                     29                     30
                      A                      A                      A
 Frequencies --    990.7667               998.9135              1029.6795
 Red. masses --      2.2734                 2.8191                 1.7734
 Frc consts  --      1.3148                 1.6573                 1.1078
 IR Inten    --     21.0200                72.6563                 2.1226

                     31                     32                     33
                      A                      A                      A
 Frequencies --   1054.8009              1060.8600              1069.2475
 Red. masses --      1.7106                 1.5566                 1.6483
 Frc consts  --      1.1213                 1.0321                 1.1103
 IR Inten    --     15.7910                 0.8466                 2.5334

                     34                     35                     36
                      A                      A                      A
 Frequencies --   1073.3023              1074.7951              1087.4616
 Red. masses --      1.9012                 1.7554                 1.4322
 Frc consts  --      1.2904                 1.1948                 0.9979
 IR Inten    --      0.1234                18.3704                 3.9296

                     37                     38                     39
                      A                      A                      A
 Frequencies --   1112.4747              1123.9839              1196.8771
 Red. masses --      1.3324                 1.3451                 1.9649
 Frc consts  --      0.9716                 1.0012                 1.6584
 IR Inten    --      9.4341                 2.7369               130.4902

                     40                     41                     42
                      A                      A                      A
 Frequencies --   1262.8035              1266.7422              1339.8573
 Red. masses --      1.7572                 2.8222                 1.8285
 Frc consts  --      1.6510                 2.6682                 1.9341
 IR Inten    --      3.0980               124.7032                 4.2198

                     43                     44                     45
                      A                      A                      A
 Frequencies --   1392.6877              1410.9468              1414.3060
 Red. masses --      1.7327                 1.3210                 1.4877
 Frc consts  --      1.9800                 1.5495                 1.7533
 IR Inten    --     59.9234                48.2029                82.0375

                     46                     47                     48
                      A                      A                      A
 Frequencies --   1468.3929              1490.5551              1494.0939
 Red. masses --      1.1677                 1.2439                 1.0644
 Frc consts  --      1.4834                 1.6283                 1.3999
 IR Inten    --      4.7637                 6.0239                 7.5415

                     49                     50                     51
                      A                      A                      A
 Frequencies --   1503.0389              1505.0313              1509.4682
 Red. masses --      1.0488                 1.0966                 1.0610
 Frc consts  --      1.3960                 1.4634                 1.4243
 IR Inten    --     10.7240                 5.4767                 6.4656

                     52                     53                     54
                      A                      A                      A
 Frequencies --   1801.3789              1806.9507              1954.7991
 Red. masses --     10.6346                10.1799                11.5484
 Frc consts  --     20.3320                19.5834                26.0002
 IR Inten    --    238.1289               146.3609                 3.3450

                     55                     56                     57
                      A                      A                      A
 Frequencies --   3047.6338              3055.8172              3104.9146
 Red. masses --      1.0381                 1.0404                 1.0994
 Frc consts  --      5.6807                 5.7242                 6.2446
 IR Inten    --      2.8749                 2.7609                 8.3476

                     58                     59                     60
                      A                      A                      A
 Frequencies --   3121.8109              3127.5601              3128.6995
 Red. masses --      1.0952                 1.0523                 1.0526
 Frc consts  --      6.2884                 6.0646                 6.0708
 IR Inten    --      8.7768                 2.8243                17.9077

                     61                     62                     63
                      A                      A                      A
 Frequencies --   3153.1837              3169.5546              3170.5090
 Red. masses --      1.0881                 1.1016                 1.1024
 Frc consts  --      6.3741                 6.5205                 6.5288
 IR Inten    --     11.5608                12.1762                 8.7742

                     64                     65                     66
                      A                      A                      A
 Frequencies --   3172.0054              3205.0417              3213.4009
 Red. masses --      1.0893                 1.1157                 1.1171
 Frc consts  --      6.4577                 6.7525                 6.7962
 IR Inten    --      4.9498                 6.1105                 3.4472

 - Thermochemistry -
 -------------------
 Temperature   298.150 Kelvin.  Pressure   1.00000 Atm.
 Atom     1 has atomic number  6 and mass  12.00000

 Molecular mass:   164.08373 amu.
 Principal axes and moments of inertia in atomic units:
                           1         2         3
     Eigenvalues --   822.994254424.517294526.65871
           X            1.00000  -0.00164   0.00075
           Y            0.00165   0.99988  -0.01543
           Z           -0.00073   0.01543   0.99988
 This molecule is an asymmetric top.
 Rotational symmetry number  1.
 Warning -- assumption of classical behavior for rotation
           may cause significant error
 Rotational temperatures (Kelvin)      0.10524     0.01958     0.01913
 Rotational constants (GHZ):           2.19290     0.40790     0.39869
 Zero-point vibrational energy     511371.9 (Joules/Mol)
                                  122.22083 (Kcal/Mol)
 Warning -- explicit consideration of  19 degrees of freedom as
           vibrations may cause significant error
 Vibrational temperatures:     56.20    72.48    83.04    92.52   136.74
          (Kelvin)            177.37   193.59   259.03   353.75   422.03
                              457.31   516.16   560.18   621.22   713.29
                              726.58   794.20   850.94   880.80   943.18
                             1074.06  1096.91  1245.07  1288.10  1329.98
                             1380.37  1415.57  1425.49  1437.21  1481.48
                             1517.62  1526.34  1538.41  1544.24  1546.39
                             1564.61  1600.60  1617.16  1722.04  1816.89
                             1822.56  1927.76  2003.77  2030.04  2034.87
                             2112.69  2144.58  2149.67  2162.54  2165.40
                             2171.79  2591.78  2599.80  2812.52  4384.87
                             4396.64  4467.28  4491.59  4499.86  4501.50
                             4536.73  4560.28  4561.66  4563.81  4611.34
                             4623.37

 Zero-point correction=                           0.194771 (Hartree/Particle)
 Thermal correction to Energy=                    0.207839
 Thermal correction to Enthalpy=                  0.208783
 Thermal correction to Gibbs Free Energy=         0.153675
 Sum of electronic and zero-point Energies=           -538.469730
 Sum of electronic and thermal Energies=              -538.456662
 Sum of electronic and thermal Enthalpies=            -538.455718
 Sum of electronic and thermal Free Energies=         -538.510826

                     E (Thermal)             CV                S
                      KCal/Mol        Cal/Mol-Kelvin    Cal/Mol-Kelvin
 Total                  130.421             46.472            115.985
 Electronic               0.000              0.000              0.000
 Translational            0.889              2.981             41.194
 Rotational               0.889              2.981             31.178
 Vibrational            128.643             40.510             43.613
 Vibration     1          0.594              1.981              5.306
 Vibration     2          0.595              1.977              4.803
 Vibration     3          0.596              1.974              4.534
 Vibration     4          0.597              1.971              4.321
 Vibration     5          0.603              1.953              3.554
 Vibration     6          0.610              1.930              3.048
 Vibration     7          0.613              1.919              2.880
 Vibration     8          0.629              1.867              2.328
 Vibration     9          0.660              1.770              1.760
 Vibration    10          0.688              1.686              1.455
 Vibration    11          0.704              1.639              1.321
 Vibration    12          0.734              1.557              1.128
 Vibration    13          0.757              1.493              1.003
 Vibration    14          0.793              1.401              0.853
 Vibration    15          0.851              1.259              0.669
 Vibration    16          0.860              1.239              0.646
 Vibration    17          0.907              1.135              0.540
 Vibration    18          0.949              1.050              0.465
 Vibration    19          0.971              1.006              0.429

                           ! Non-Optimized Parameters !
 Normal termination of Gaussian 16 at Wed Dec  9 17:31:11 2020.

 ----------------------------------------------------------------------
 # B3LYP/6-311++G(d,p) empiricaldispersion=gd3bj scf=xqc pop=npa geom=c
 heck
 ----------------------------------------------------------------------

 ---------------------------------------
 CID_131236645_JID_2417_Energie_neutraal
 ---------------------------------------
 Structure from the checkpoint file:  "JID_2417.chk"
 Charge =  0 Multiplicity = 1

 SCF Done:  E(RB3LYP) =  -538.818153069     A.U. after   15 cycles
 Normal termination of Gaussian 16 at Wed Dec  9 17:33:50 2020.

 ----------------------------------------------------------------------
 # B3LYP/6-311++G(d,p) empiricaldispersion=gd3bj scf=xqc pop=npa geom=c
 heck
 ----------------------------------------------------------------------

 -------------------------------------
 CID_131236645_JID_2417_Energie_kation
 -------------------------------------
 Structure from the checkpoint file:  "JID_2417.chk"
 Charge =  1 Multiplicity = 2

 SCF Done:  E(UB3LYP) =  -538.500053193     A.U. after   23 cycles
 Normal termination of Gaussian 16 at Wed Dec  9 17:39:22 2020.
 Gaussian 16:  ES64L-G16RevA.03 25-Dec-2016

 ----------------------------------------------------------------------
 # B3LYP/6-311++G(d,p) empiricaldispersion=gd3bj scf=xqc pop=npa geom=c
 heck
 ----------------------------------------------------------------------

 ------------------------------------
 CID_131236645_JID_2417_Energie_anion
 ------------------------------------
 Structure from the checkpoint file:  "JID_2417.chk"
 Charge = -1 Multiplicity = 2

                         Standard orientation:
 ---------------------------------------------------------------------
 Center     Atomic      Atomic             Coordinates (Angstroms)
 Number     Number       Type             X           Y           Z
 ---------------------------------------------------------------------
      1          6           0       -3.909401    0.976806    0.557020
      2          6           0       -2.976964   -0.019373   -0.101695
      3          8           0       -3.135046   -0.401575   -1.246652
      4          6           0       -1.825267   -0.497164    0.739126
      5          6           0       -1.068687   -1.754112    0.261694
      6          6           0       -0.464978   -0.437315    0.139693
      7          6           0        0.508474    0.345955   -0.247809
      8          6           0        1.090355    1.675312   -0.369316
      9          6           0        1.861167    0.417032   -0.852129
     10          6           0        3.058066   -0.095419   -0.107135
     11          8           0        3.946588   -0.676178   -0.703649
     12          6           0        3.127502    0.138918    1.392850
     13          1           0       -4.681444    1.288700   -0.148500
     14          1           0       -3.344853    1.851612    0.903258
     15          1           0       -4.377876    0.528306    1.442300
     16          1           0       -1.905680   -0.320971    1.810675
     17          1           0       -0.706790   -2.441952    1.023413
     18          1           0       -1.470093   -2.214517   -0.639519
     19          1           0        0.727885    2.344798   -1.147184
     20          1           0        1.452288    2.182497    0.523360
     21          1           0        1.943880    0.272835   -1.927233
     22          1           0        3.449592    1.169338    1.589869
     23          1           0        2.154379   -0.002704    1.873101
     24          1           0        3.864773   -0.539768    1.825070
 ---------------------------------------------------------------------

 SCF Done:  E(UB3LYP) =  -538.810133116     A.U. after   33 cycles
 SCF Done:  E(UB3LYP) =  -538.810133116     a.u. after    1 cycles

 The electronic state is 2-A.
 Alpha  occ. eigenvalues --  -19.00425 -19.00099 -10.15620 -10.15278 -10.09699
 Alpha  occ. eigenvalues --  -10.09430 -10.09393 -10.09233 -10.08754 -10.08621
 Alpha  occ. eigenvalues --  -10.07262 -10.06614  -0.93937  -0.93636  -0.78858
 Alpha  occ. eigenvalues --   -0.76410  -0.64597  -0.64362  -0.58019  -0.54798
 Alpha  occ. eigenvalues --   -0.53502  -0.46159  -0.44118  -0.41948  -0.40280
 Alpha  occ. eigenvalues --   -0.38372  -0.37894  -0.34447  -0.33761  -0.32931
 Alpha  occ. eigenvalues --   -0.32373  -0.31591  -0.31044  -0.28606  -0.28070
 Alpha  occ. eigenvalues --   -0.27841  -0.26707  -0.25990  -0.22651  -0.20893
 Alpha  occ. eigenvalues --   -0.18223  -0.17151  -0.14797  -0.14194   0.04403
 Alpha virt. eigenvalues --    0.06775   0.07026   0.07675   0.07699   0.08216
 Alpha virt. eigenvalues --    0.09230   0.10022   0.10690   0.10998   0.11671
 Alpha virt. eigenvalues --    0.11773   0.12360   0.13413   0.13659   0.14439

  Beta  occ. eigenvalues --  -19.00331 -19.00026 -10.15535 -10.15209 -10.09677
  Beta  occ. eigenvalues --  -10.09416 -10.09381 -10.09190 -10.08737 -10.08603
  Beta  occ. eigenvalues --  -10.07244 -10.06576  -0.93760  -0.93493  -0.78796
  Beta  occ. eigenvalues --   -0.76352  -0.64477  -0.64258  -0.57951  -0.54687
  Beta  occ. eigenvalues --   -0.53395  -0.46040  -0.44008  -0.41864  -0.40188
  Beta  occ. eigenvalues --   -0.38258  -0.37793  -0.34225  -0.33560  -0.32831
  Beta  occ. eigenvalues --   -0.32282  -0.31530  -0.30990  -0.28541  -0.27986
  Beta  occ. eigenvalues --   -0.27743  -0.26456  -0.25779  -0.22455  -0.20803
  Beta  occ. eigenvalues --   -0.18084  -0.17068  -0.14713  -0.14100
  Beta virt. eigenvalues --    0.07018   0.07473   0.07759   0.08092   0.08392
  Beta virt. eigenvalues --    0.08605   0.09739   0.10153   0.11315   0.11548
  Beta virt. eigenvalues --    0.11997   0.12237   0.12388   0.13625   0.13998

 Mulliken charges and spin densities:
               1          2
     1  C    1.526952  -2.097057
     2  C   -0.826897   0.871728
     3  O   -0.313768  -0.000373
     4  C   -0.414484   0.797012
     5  C    0.253688  -1.027039
     6  C    0.672772  -0.498869
     7  C   -0.770202   1.018565
     8  C    1.452673  -2.118130
     9  C   -0.235159   0.412946
    10  C   -0.379304   0.316602
    11  O   -0.310252   0.025959
    12  C    0.256010  -0.801103
    13  H   -0.032720   0.179000
    14  H   -0.258136   0.422074
    15  H   -0.501466   0.670690
    16  H   -0.916211   1.187656
    17  H   -0.036895   0.206405
    18  H    0.126298   0.057886
    19  H   -0.241864   0.428543
    20  H   -0.079804   0.231243
    21  H    0.155240   0.091308
    22  H    0.010682   0.150157
    23  H   -0.243940   0.423973
    24  H    0.106786   0.050824
 Sum of Mulliken charges =  -1.00000   1.00000

 Dipole moment (field-independent basis, Debye):
    X=              2.9059    Y=             -0.8419    Z=             -2.8200  Tot=              4.1358
 Quadrupole moment (field-independent basis, Debye-Ang):
   XX=           -144.6660   YY=            -97.4603   ZZ=           -112.0835
   XY=              6.6427   XZ=             11.4339   YZ=             -2.5500

 Summary of Natural Population Analysis:

                                       Natural Population
                Natural  -----------------------------------------------
    Atom  No    Charge         Core      Valence    Rydberg      Total
 -----------------------------------------------------------------------
      C    1   -0.33086      0.99962     2.32576    0.00548     3.33086
      C    2    0.29826      0.99966     1.68090    0.02118     2.70174
      O    3   -0.29053      0.99987     3.28447    0.00619     4.29053
      C    4   -0.16396      0.99953     2.15231    0.01211     3.16396
      C    5   -0.18809      0.99960     2.18096    0.00753     3.18809
      C    6    0.01049      0.99942     1.97716    0.01294     2.98951
      C    7   -0.00460      0.99941     1.99266    0.01253     3.00460
      C    8   -0.18673      0.99961     2.17969    0.00743     3.18673
      C    9   -0.15701      0.99954     2.14667    0.01080     3.15701
      C   10    0.29731      0.99965     1.68177    0.02127     2.70269
      O   11   -0.28581      0.99988     3.27955    0.00639     4.28581
      C   12   -0.33865      0.99963     2.33364    0.00538     3.33865
      H   13    0.10589      0.00000     0.39316    0.00096     0.39411
      H   14    0.11218      0.00000     0.38635    0.00147     0.38782
      H   15    0.11430      0.00000     0.38249    0.00321     0.38570
      H   16    0.11922      0.00000     0.37289    0.00789     0.38078
      H   17    0.10834      0.00000     0.39070    0.00096     0.39166
      H   18    0.11512      0.00000     0.38368    0.00120     0.38488
      H   19    0.11076      0.00000     0.38789    0.00134     0.38924
      H   20    0.10800      0.00000     0.39062    0.00137     0.39200
      H   21    0.11405      0.00000     0.38497    0.00098     0.38595
      H   22    0.10865      0.00000     0.39044    0.00091     0.39135
      H   23    0.11441      0.00000     0.38390    0.00169     0.38559
      H   24    0.10927      0.00000     0.38973    0.00100     0.39073
 =======================================================================
   * Total *   -0.00000     11.99542    31.85237    0.15221    44.00000

 Normal termination of Gaussian 16 at Wed Dec  9 17:45:58 2020.
