 Gaussian 16, Revision A.03,

 -----------------------------------------------------------
 # opt freq B3LYP/6-31G(d) empiricaldispersion=gd3bj scf=xqc
 -----------------------------------------------------------

 -------------------------------
 CID_114472568_JID_2444_neutraal
 -------------------------------
 Symbolic Z-matrix:
 Charge =  0 Multiplicity = 1

 SCF Done:  E(RB3LYP) =  -882.536600457     A.U. after   15 cycles
 SCF Done:  E(RB3LYP) =  -882.541943982     A.U. after   13 cycles
 SCF Done:  E(RB3LYP) =  -882.543218064     A.U. after   13 cycles
 SCF Done:  E(RB3LYP) =  -882.544197459     A.U. after   12 cycles
 SCF Done:  E(RB3LYP) =  -882.544548307     A.U. after   12 cycles
 SCF Done:  E(RB3LYP) =  -882.544450462     A.U. after   12 cycles
 SCF Done:  E(RB3LYP) =  -882.544607029     A.U. after   12 cycles
 SCF Done:  E(RB3LYP) =  -882.544666188     A.U. after   10 cycles
 SCF Done:  E(RB3LYP) =  -882.544672148     A.U. after   10 cycles
 SCF Done:  E(RB3LYP) =  -882.544675636     A.U. after   10 cycles
 SCF Done:  E(RB3LYP) =  -882.544676948     A.U. after   10 cycles
 SCF Done:  E(RB3LYP) =  -882.544677648     A.U. after    9 cycles
 SCF Done:  E(RB3LYP) =  -882.544677736     A.U. after    7 cycles
 Optimization completed.
    -- Stationary point found.
 Normal termination of Gaussian 16 at Wed Dec  9 17:22:32 2020.

 --------------------------------------------------------------------
 #N Geom=AllCheck Guess=TCheck SCRF=Check GenChk RB3LYP/6-31G(d) Freq
 --------------------------------------------------------------------

 Structure from the checkpoint file:  "JID_2444.chk"
 -------------------------------
 CID_114472568_JID_2444_neutraal
 -------------------------------
 Charge =  0 Multiplicity = 1

 SCF Done:  E(RB3LYP) =  -882.544677736     A.U. after    1 cycles

  Exact polarizability: 138.560   4.083 117.360   8.793  -3.073 111.327
 Approx polarizability: 172.593   7.749 175.914  19.434   1.274 181.357

                      1                      2                      3
                      A                      A                      A
 Frequencies --     18.8894                28.4287                42.0780
 Red. masses --      4.1471                 2.9858                 3.7559
 Frc consts  --      0.0009                 0.0014                 0.0039
 IR Inten    --      1.9053                 0.0717                 1.6402

                      4                      5                      6
                      A                      A                      A
 Frequencies --     80.1578               105.1497               144.1802
 Red. masses --      4.6708                 3.5060                 2.9896
 Frc consts  --      0.0177                 0.0228                 0.0366
 IR Inten    --      1.9534                 1.8339                 0.9805

                      7                      8                      9
                      A                      A                      A
 Frequencies --    186.6002               198.2992               206.5056
 Red. masses --      1.8299                 1.2793                 1.2526
 Frc consts  --      0.0375                 0.0296                 0.0315
 IR Inten    --      0.2949                 0.1186                 2.5227

                     10                     11                     12
                      A                      A                      A
 Frequencies --    216.8963               236.6876               274.1410
 Red. masses --      2.2209                 2.7560                 1.9063
 Frc consts  --      0.0616                 0.0910                 0.0844
 IR Inten    --      2.7391                 4.1498                 8.6427

                     13                     14                     15
                      A                      A                      A
 Frequencies --    284.7720               308.7621               321.9936
 Red. masses --      1.6778                 2.7008                 3.2610
 Frc consts  --      0.0802                 0.1517                 0.1992
 IR Inten    --      3.1616                 3.1058                 6.6088

                     16                     17                     18
                      A                      A                      A
 Frequencies --    352.5658               382.8905               427.2152
 Red. masses --      2.0811                 2.2315                 3.1691
 Frc consts  --      0.1524                 0.1928                 0.3408
 IR Inten    --      5.5005                 0.1945                 2.4428

                     19                     20                     21
                      A                      A                      A
 Frequencies --    433.2348               448.6509               565.2810
 Red. masses --      2.3013                 2.5564                 3.3314
 Frc consts  --      0.2545                 0.3032                 0.6272
 IR Inten    --      0.9618                 1.8036                 8.0825

                     22                     23                     24
                      A                      A                      A
 Frequencies --    576.7509               617.5311               673.3955
 Red. masses --      2.2860                 2.9085                 4.7576
 Frc consts  --      0.4480                 0.6535                 1.2711
 IR Inten    --      2.3931                 7.2322                12.1089

                     25                     26                     27
                      A                      A                      A
 Frequencies --    726.8936               769.0814               812.7897
 Red. masses --      1.2114                 1.5596                 1.7935
 Frc consts  --      0.3771                 0.5435                 0.6981
 IR Inten    --      1.4144                43.5776                64.4607

                     28                     29                     30
                      A                      A                      A
 Frequencies --    861.6194               886.9140               921.2269
 Red. masses --      2.0690                 2.5306                 1.4080
 Frc consts  --      0.9050                 1.1728                 0.7040
 IR Inten    --      4.3707                 3.4738                36.9275

                     31                     32                     33
                      A                      A                      A
 Frequencies --    928.5147               948.5635               967.9809
 Red. masses --      1.7891                 1.8548                 1.3511
 Frc consts  --      0.9088                 0.9833                 0.7459
 IR Inten    --      2.8721                12.9316                 4.8917

                     34                     35                     36
                      A                      A                      A
 Frequencies --    982.0218               997.3166              1004.3621
 Red. masses --      1.3827                 1.4768                 1.6873
 Frc consts  --      0.7856                 0.8654                 1.0028
 IR Inten    --     37.9030                 6.1981                 3.6207

                     37                     38                     39
                      A                      A                      A
 Frequencies --   1045.6072              1059.2468              1073.3430
 Red. masses --      1.4520                 1.7190                 5.5614
 Frc consts  --      0.9353                 1.1363                 3.7750
 IR Inten    --      4.6812                24.3259                78.7404

                     40                     41                     42
                      A                      A                      A
 Frequencies --   1080.7746              1088.8151              1128.6532
 Red. masses --      1.6320                 1.7320                 2.4231
 Frc consts  --      1.1232                 1.2098                 1.8186
 IR Inten    --      5.2743                 5.9406                31.9187

                     43                     44                     45
                      A                      A                      A
 Frequencies --   1165.6652              1175.5606              1233.3435
 Red. masses --      1.7142                 2.6758                 1.5088
 Frc consts  --      1.3723                 2.1787                 1.3522
 IR Inten    --      7.2140                29.7531                10.9551

                     46                     47                     48
                      A                      A                      A
 Frequencies --   1263.8182              1299.5658              1307.5839
 Red. masses --      1.1381                 1.3103                 1.8333
 Frc consts  --      1.0710                 1.3038                 1.8468
 IR Inten    --      8.0669                 0.1663                 3.7206

                     49                     50                     51
                      A                      A                      A
 Frequencies --   1348.9321              1360.1789              1361.9818
 Red. masses --      1.2292                 1.5107                 1.2656
 Frc consts  --      1.3178                 1.6467                 1.3833
 IR Inten    --     11.7118                 2.0321                28.6614

                     52                     53                     54
                      A                      A                      A
 Frequencies --   1385.7665              1404.9446              1420.2395
 Red. masses --      1.3915                 1.2419                 1.2701
 Frc consts  --      1.5744                 1.4443                 1.5094
 IR Inten    --      2.1700                18.6923                 4.3427

                     55                     56                     57
                      A                      A                      A
 Frequencies --   1438.9254              1441.6521              1471.5979
 Red. masses --      1.2419                 1.2770                 1.2001
 Frc consts  --      1.5150                 1.5637                 1.5313
 IR Inten    --      4.5519                 5.2634                 0.8646

                     58                     59                     60
                      A                      A                      A
 Frequencies --   1483.1023              1500.7729              1505.6572
 Red. masses --      1.0506                 1.0824                 1.1283
 Frc consts  --      1.3615                 1.4364                 1.5070
 IR Inten    --      4.1341                14.3067                 6.4552

                     61                     62                     63
                      A                      A                      A
 Frequencies --   1506.8825              1510.0280              1518.4369
 Red. masses --      1.0684                 1.0723                 1.0902
 Frc consts  --      1.4294                 1.4405                 1.4810
 IR Inten    --      8.0345                 1.2478                 5.6962

                     64                     65                     66
                      A                      A                      A
 Frequencies --   1526.1451              1529.0755              1540.6825
 Red. masses --      1.0615                 1.0706                 1.1089
 Frc consts  --      1.4567                 1.4749                 1.5508
 IR Inten    --      8.5091                13.5833                19.8348

                     67                     68                     69
                      A                      A                      A
 Frequencies --   1543.8895              1735.5912              2959.3317
 Red. masses --      1.0527                 4.8466                 1.0723
 Frc consts  --      1.4784                 8.6016                 5.5327
 IR Inten    --      1.4884                12.2353                66.2324

                     70                     71                     72
                      A                      A                      A
 Frequencies --   3035.1268              3047.2135              3048.6728
 Red. masses --      1.0386                 1.0592                 1.0398
 Frc consts  --      5.6368                 5.7948                 5.6943
 IR Inten    --     22.7572                22.7529                20.1144

                     73                     74                     75
                      A                      A                      A
 Frequencies --   3051.2964              3058.6710              3067.0993
 Red. masses --      1.0608                 1.0823                 1.0290
 Frc consts  --      5.8192                 5.9655                 5.7031
 IR Inten    --     26.2390                14.8076                17.4554

                     76                     77                     78
                      A                      A                      A
 Frequencies --   3079.0236              3081.4280              3085.8837
 Red. masses --      1.0885                 1.0987                 1.1026
 Frc consts  --      6.0798                 6.1467                 6.1861
 IR Inten    --      0.4788                33.0801                21.6381

                     79                     80                     81
                      A                      A                      A
 Frequencies --   3099.8151              3107.2560              3126.6596
 Red. masses --      1.1063                 1.1010                 1.1005
 Frc consts  --      6.2631                 6.2630                 6.3386
 IR Inten    --     41.6130                23.5320                29.1506

                     82                     83                     84
                      A                      A                      A
 Frequencies --   3139.1847              3155.1227              3162.5447
 Red. masses --      1.1003                 1.0600                 1.1048
 Frc consts  --      6.3883                 6.2174                 6.5104
 IR Inten    --     18.4687                 9.1790                 7.8911

                     85                     86                     87
                      A                      A                      A
 Frequencies --   3185.8382              3231.3685              3500.3382
 Red. masses --      1.1083                 1.1159                 1.0734
 Frc consts  --      6.6275                 6.8652                 7.7486
 IR Inten    --      4.5248                18.8880                 0.3765

 - Thermochemistry -
 -------------------
 Temperature   298.150 Kelvin.  Pressure   1.00000 Atm.
 Atom     1 has atomic number  6 and mass  12.00000

 Molecular mass:   189.11874 amu.
 Principal axes and moments of inertia in atomic units:
                           1         2         3
     Eigenvalues --  1163.915734949.643415284.06069
           X            0.99993  -0.00451  -0.01098
           Y            0.00413   0.99939  -0.03455
           Z            0.01113   0.03450   0.99934
 This molecule is an asymmetric top.
 Rotational symmetry number  1.
 Warning -- assumption of classical behavior for rotation
           may cause significant error
 Rotational temperatures (Kelvin)      0.07442     0.01750     0.01639
 Rotational constants (GHZ):           1.55058     0.36462     0.34154
 Zero-point vibrational energy     721447.9 (Joules/Mol)
                                  172.43019 (Kcal/Mol)
 Warning -- explicit consideration of  23 degrees of freedom as
           vibrations may cause significant error
 Vibrational temperatures:     27.18    40.90    60.54   115.33   151.29
          (Kelvin)            207.44   268.48   285.31   297.12   312.07
                              340.54   394.43   409.72   444.24   463.28
                              507.26   550.89   614.67   623.33   645.51
                              813.31   829.82   888.49   968.87  1045.84
                             1106.54  1169.42  1239.68  1276.07  1325.44
                             1335.93  1364.77  1392.71  1412.91  1434.92
                             1445.05  1504.40  1524.02  1544.30  1554.99
                             1566.56  1623.88  1677.13  1691.37  1774.51
                             1818.35  1869.79  1881.32  1940.81  1956.99
                             1959.59  1993.81  2021.40  2043.41  2070.29
                             2074.22  2117.30  2133.85  2159.28  2166.30
                             2168.07  2172.59  2184.69  2195.78  2200.00
                             2216.70  2221.31  2497.13  4257.82  4366.87
                             4384.26  4386.36  4390.13  4400.75  4412.87
                             4430.03  4433.49  4439.90  4459.94  4470.65
                             4498.57  4516.59  4539.52  4550.20  4583.71
                             4649.22  5036.21

 Zero-point correction=                           0.274785 (Hartree/Particle)
 Thermal correction to Energy=                    0.290022
 Thermal correction to Enthalpy=                  0.290966
 Thermal correction to Gibbs Free Energy=         0.230900
 Sum of electronic and zero-point Energies=           -882.269893
 Sum of electronic and thermal Energies=              -882.254656
 Sum of electronic and thermal Enthalpies=            -882.253712
 Sum of electronic and thermal Free Energies=         -882.313778

                     E (Thermal)             CV                S
                      KCal/Mol        Cal/Mol-Kelvin    Cal/Mol-Kelvin
 Total                  181.992             55.580            126.420
 Electronic               0.000              0.000              0.000
 Translational            0.889              2.981             41.617
 Rotational               0.889              2.981             31.788
 Vibrational            180.214             49.619             53.015
 Vibration     1          0.593              1.986              6.748
 Vibration     2          0.593              1.984              5.936
 Vibration     3          0.595              1.980              5.159
 Vibration     4          0.600              1.963              3.887
 Vibration     5          0.605              1.945              3.357
 Vibration     6          0.616              1.909              2.748
 Vibration     7          0.632              1.858              2.261
 Vibration     8          0.637              1.842              2.149
 Vibration     9          0.641              1.831              2.074
 Vibration    10          0.646              1.815              1.985
 Vibration    11          0.656              1.785              1.828
 Vibration    12          0.676              1.721              1.570
 Vibration    13          0.683              1.702              1.505
 Vibration    14          0.698              1.657              1.369
 Vibration    15          0.707              1.631              1.300
 Vibration    16          0.729              1.570              1.155
 Vibration    17          0.752              1.507              1.028
 Vibration    18          0.789              1.411              0.868
 Vibration    19          0.794              1.398              0.848
 Vibration    20          0.808              1.364              0.800
 Vibration    21          0.921              1.106              0.513
 Vibration    22          0.933              1.082              0.491
 Vibration    23          0.977              0.995              0.420

                           ! Non-Optimized Parameters !
 Normal termination of Gaussian 16 at Wed Dec  9 17:29:51 2020.

 ----------------------------------------------------------------------
 # B3LYP/6-311++G(d,p) empiricaldispersion=gd3bj scf=xqc pop=npa geom=c
 heck
 ----------------------------------------------------------------------

 ---------------------------------------
 CID_114472568_JID_2444_Energie_neutraal
 ---------------------------------------
 Structure from the checkpoint file:  "JID_2444.chk"
 Charge =  0 Multiplicity = 1

 SCF Done:  E(RB3LYP) =  -882.718594875     A.U. after   15 cycles
 Normal termination of Gaussian 16 at Wed Dec  9 17:33:14 2020.

 ----------------------------------------------------------------------
 # B3LYP/6-311++G(d,p) empiricaldispersion=gd3bj scf=xqc pop=npa geom=c
 heck
 ----------------------------------------------------------------------

 -------------------------------------
 CID_114472568_JID_2444_Energie_kation
 -------------------------------------
 Structure from the checkpoint file:  "JID_2444.chk"
 Charge =  1 Multiplicity = 2

 SCF Done:  E(UB3LYP) =  -882.430117595     A.U. after   24 cycles
 Normal termination of Gaussian 16 at Wed Dec  9 17:40:22 2020.
 Gaussian 16:  ES64L-G16RevA.03 25-Dec-2016

 ----------------------------------------------------------------------
 # B3LYP/6-311++G(d,p) empiricaldispersion=gd3bj scf=xqc pop=npa geom=c
 heck
 ----------------------------------------------------------------------

 ------------------------------------
 CID_114472568_JID_2444_Energie_anion
 ------------------------------------
 Structure from the checkpoint file:  "JID_2444.chk"
 Charge = -1 Multiplicity = 2

                         Standard orientation:
 ---------------------------------------------------------------------
 Center     Atomic      Atomic             Coordinates (Angstroms)
 Number     Number       Type             X           Y           Z
 ---------------------------------------------------------------------
      1          6           0       -1.369853    2.127866    0.563760
      2          6           0       -1.522840    1.040952   -0.494584
      3          6           0       -0.278232    0.197836   -0.774325
      4          7           0        0.370924   -0.285919    0.440391
      5          6           0        1.300520   -1.393288    0.231365
      6          6           0        2.552936   -1.103319   -0.631158
      7          6           0        3.431696   -0.011205   -0.050999
      8          6           0        4.305739   -0.271458    0.926412
      9          6           0        3.256947    1.380323   -0.605496
     10         16           0       -3.007618   -0.056812   -0.163524
     11          8           0       -2.831465   -1.266243   -1.065674
     12          6           0       -2.621516   -0.600519    1.544263
     13          1           0       -1.020490    1.716158    1.514446
     14          1           0       -2.317986    2.647304    0.743883
     15          1           0       -0.642769    2.877908    0.229275
     16          1           0       -1.820594    1.502252   -1.444635
     17          1           0       -0.606640   -0.676036   -1.349845
     18          1           0        0.389215    0.784752   -1.430105
     19          1           0        0.854431    0.473394    0.915328
     20          1           0        1.634290   -1.733315    1.218730
     21          1           0        0.733510   -2.215160   -0.222123
     22          1           0        3.122849   -2.037442   -0.706457
     23          1           0        2.244299   -0.840303   -1.650441
     24          1           0        4.919391    0.508280    1.370208
     25          1           0        4.443309   -1.277840    1.315345
     26          1           0        3.456645    1.396837   -1.685310
     27          1           0        2.227474    1.739823   -0.478681
     28          1           0        3.928229    2.096993   -0.122767
     29          1           0       -1.593583   -0.964731    1.582090
     30          1           0       -2.768634    0.232924    2.237039
     31          1           0       -3.338183   -1.394561    1.767635
 ---------------------------------------------------------------------

 SCF Done:  E(UB3LYP) =  -882.707931490     A.U. after   32 cycles

 The electronic state is 2-A.
 Alpha  occ. eigenvalues --  -88.84273 -18.98181 -14.20467 -10.10857 -10.10195
 Alpha  occ. eigenvalues --  -10.09907 -10.09144 -10.08881 -10.07642 -10.07340
 Alpha  occ. eigenvalues --  -10.06696 -10.06214  -7.92022  -5.88296  -5.88153
 Alpha  occ. eigenvalues --   -5.87605  -0.90963  -0.81754  -0.72271  -0.70697
 Alpha  occ. eigenvalues --   -0.65491  -0.63168  -0.59218  -0.58872  -0.55089
 Alpha  occ. eigenvalues --   -0.51945  -0.46777  -0.43121  -0.40568  -0.39598
 Alpha  occ. eigenvalues --   -0.37100  -0.36057  -0.35508  -0.34948  -0.33401
 Alpha  occ. eigenvalues --   -0.32699  -0.32269  -0.31548  -0.30638  -0.30373
 Alpha  occ. eigenvalues --   -0.29475  -0.27754  -0.27232  -0.26764  -0.25834
 Alpha  occ. eigenvalues --   -0.25470  -0.24151  -0.23723  -0.17091  -0.16171
 Alpha  occ. eigenvalues --   -0.13955  -0.12728   0.04184
 Alpha virt. eigenvalues --    0.06321   0.06957   0.07543   0.08348   0.08824
 Alpha virt. eigenvalues --    0.09185   0.09988   0.10181   0.10406   0.11108
 Alpha virt. eigenvalues --    0.11476   0.11717   0.11761   0.12781   0.13068

  Beta  occ. eigenvalues --  -88.84270 -18.98173 -14.20452 -10.10849 -10.10186
  Beta  occ. eigenvalues --  -10.09894 -10.09119 -10.08880 -10.07629 -10.07280
  Beta  occ. eigenvalues --  -10.06646 -10.06188  -7.92019  -5.88294  -5.88147
  Beta  occ. eigenvalues --   -5.87601  -0.90949  -0.81729  -0.72244  -0.70664
  Beta  occ. eigenvalues --   -0.65458  -0.63127  -0.59142  -0.58808  -0.55042
  Beta  occ. eigenvalues --   -0.51903  -0.46732  -0.43060  -0.40533  -0.39557
  Beta  occ. eigenvalues --   -0.37070  -0.36021  -0.35468  -0.34903  -0.33365
  Beta  occ. eigenvalues --   -0.32661  -0.32243  -0.31502  -0.30591  -0.30340
  Beta  occ. eigenvalues --   -0.29438  -0.27715  -0.27194  -0.26724  -0.25810
  Beta  occ. eigenvalues --   -0.25445  -0.24122  -0.23694  -0.17061  -0.16136
  Beta  occ. eigenvalues --   -0.13930  -0.12705
  Beta virt. eigenvalues --    0.06398   0.07098   0.07626   0.07972   0.08812
  Beta virt. eigenvalues --    0.09216   0.09524   0.10336   0.10449   0.10741
  Beta virt. eigenvalues --    0.11550   0.11650   0.12003   0.12197   0.12817

 Mulliken charges and spin densities:
               1          2
     1  C    1.362102  -2.146371
     2  C   -1.062660   1.295397
     3  C   -0.344786  -0.635499
     4  N   -0.015586  -0.050850
     5  C    0.093761  -0.317993
     6  C   -0.399856   0.094016
     7  C   -1.609563   2.309934
     8  C    0.678196  -1.345601
     9  C    1.750924  -2.483970
    10  S    0.962704  -0.343284
    11  O   -0.472092   0.012328
    12  C   -0.222035  -0.530338
    13  H   -0.168956   0.343284
    14  H   -0.505923   0.677191
    15  H   -0.480690   0.645565
    16  H   -0.133861   0.440311
    17  H    0.212257   0.044702
    18  H   -0.032830   0.154767
    19  H    0.168070   0.073927
    20  H    0.003214   0.172132
    21  H    0.143358  -0.012907
    22  H   -0.179029   0.379046
    23  H    0.091358   0.055518
    24  H   -0.278890   0.405023
    25  H    0.071073   0.040384
    26  H   -0.381960   0.537457
    27  H    0.236576  -0.047684
    28  H   -0.428371   0.576711
    29  H    0.092102   0.202545
    30  H   -0.269734   0.420972
    31  H    0.121128   0.033287
 Sum of Mulliken charges =  -1.00000   1.00000

 Dipole moment (field-independent basis, Debye):
    X=             -1.7094    Y=             -4.8009    Z=              0.3274  Tot=              5.1067
 Quadrupole moment (field-independent basis, Debye-Ang):
   XX=           -159.2753   YY=           -136.0195   ZZ=           -119.7531
   XY=             -6.5924   XZ=             -0.4570   YZ=             -4.8041

 Summary of Natural Population Analysis:

                                       Natural Population
                Natural  -----------------------------------------------
    Atom  No    Charge         Core      Valence    Rydberg      Total
 -----------------------------------------------------------------------
      C    1   -0.30001      0.99963     2.29257    0.00781     3.30001
      C    2   -0.18410      0.99956     2.16749    0.01704     3.18410
      C    3   -0.10533      0.99957     2.09292    0.01285     3.10533
      N    4   -0.34836      0.99974     2.83763    0.01099     3.84836
      C    5   -0.07714      0.99962     2.06728    0.01024     3.07714
      C    6   -0.21598      0.99958     2.20741    0.00899     3.21598
      C    7   -0.00333      0.99953     1.99070    0.01310     3.00333
      C    8   -0.20005      0.99947     2.19304    0.00753     3.20005
      C    9   -0.29941      0.99961     2.29242    0.00738     3.29941
      S   10    0.57567      4.99944     2.37112    0.05377     7.42433
      O   11   -0.48955      0.99993     3.48364    0.00598     4.48955
      C   12   -0.38633      0.99961     2.37867    0.00804     3.38633
      H   13    0.10396      0.00000     0.39402    0.00203     0.39604
      H   14    0.10510      0.00000     0.39222    0.00268     0.39490
      H   15    0.11204      0.00000     0.38536    0.00260     0.38796
      H   16    0.10630      0.00000     0.39205    0.00165     0.39370
      H   17    0.11333      0.00000     0.38521    0.00146     0.38667
      H   18    0.08889      0.00000     0.40952    0.00159     0.41111
      H   19    0.17729      0.00000     0.31932    0.00339     0.32271
      H   20    0.09259      0.00000     0.40628    0.00113     0.40741
      H   21    0.09347      0.00000     0.40548    0.00106     0.40653
      H   22    0.10398      0.00000     0.39496    0.00106     0.39602
      H   23    0.10003      0.00000     0.39864    0.00133     0.39997
      H   24    0.09446      0.00000     0.40451    0.00103     0.40554
      H   25    0.09100      0.00000     0.40787    0.00113     0.40900
      H   26    0.10444      0.00000     0.39404    0.00152     0.39556
      H   27    0.10291      0.00000     0.39481    0.00228     0.39709
      H   28    0.10429      0.00000     0.39432    0.00139     0.39571
      H   29    0.12553      0.00000     0.37306    0.00142     0.37447
      H   30    0.10776      0.00000     0.38992    0.00232     0.39224
      H   31    0.10656      0.00000     0.39234    0.00110     0.39344
 =======================================================================
   * Total *    0.00000     15.99530    35.80883    0.19586    52.00000

 Normal termination of Gaussian 16 at Wed Dec  9 17:50:11 2020.
