 Gaussian 16, Revision A.03,

 -----------------------------------------------------------
 # opt freq B3LYP/6-31G(d) empiricaldispersion=gd3bj scf=xqc
 -----------------------------------------------------------

 -------------------------------
 CID_107181557_JID_4067_neutraal
 -------------------------------
 Symbolic Z-matrix:
 Charge =  0 Multiplicity = 1

 SCF Done:  E(RB3LYP) =  -941.565936261     A.U. after   14 cycles
 SCF Done:  E(RB3LYP) =  -941.570248876     A.U. after   12 cycles
 SCF Done:  E(RB3LYP) =  -941.569227377     A.U. after   12 cycles
 SCF Done:  E(RB3LYP) =  -941.571011533     A.U. after   12 cycles
 SCF Done:  E(RB3LYP) =  -941.571811075     A.U. after   12 cycles
 SCF Done:  E(RB3LYP) =  -941.571961416     A.U. after   11 cycles
 SCF Done:  E(RB3LYP) =  -941.572025195     A.U. after   11 cycles
 SCF Done:  E(RB3LYP) =  -941.572041202     A.U. after    9 cycles
 SCF Done:  E(RB3LYP) =  -941.572045329     A.U. after   10 cycles
 SCF Done:  E(RB3LYP) =  -941.572046054     A.U. after    8 cycles
 SCF Done:  E(RB3LYP) =  -941.572047829     A.U. after    8 cycles
 SCF Done:  E(RB3LYP) =  -941.572048521     A.U. after    9 cycles
 SCF Done:  E(RB3LYP) =  -941.572048846     A.U. after    8 cycles
 SCF Done:  E(RB3LYP) =  -941.572049099     A.U. after    8 cycles
 SCF Done:  E(RB3LYP) =  -941.572049159     A.U. after    7 cycles
 Optimization completed.
    -- Stationary point found.
 Normal termination of Gaussian 16 at Thu Dec 10 09:20:27 2020.

 --------------------------------------------------------------------
 #N Geom=AllCheck Guess=TCheck SCRF=Check GenChk RB3LYP/6-31G(d) Freq
 --------------------------------------------------------------------

 Structure from the checkpoint file:  "JID_4067.chk"
 -------------------------------
 CID_107181557_JID_4067_neutraal
 -------------------------------
 Charge =  0 Multiplicity = 1

 SCF Done:  E(RB3LYP) =  -941.572049159     A.U. after    1 cycles

  Exact polarizability: 164.321  11.094 120.021   3.465  -9.932 123.181
 Approx polarizability: 222.205  18.923 185.320   9.345 -29.716 214.840

                      1                      2                      3
                      A                      A                      A
 Frequencies --     30.2083                37.9506                60.7408
 Red. masses --      2.5450                 5.7814                 3.9790
 Frc consts  --      0.0014                 0.0049                 0.0086
 IR Inten    --      0.1077                 0.0786                 0.5227

                      4                      5                      6
                      A                      A                      A
 Frequencies --     98.7271               153.2326               188.6417
 Red. masses --      3.7601                 2.4072                 3.8961
 Frc consts  --      0.0216                 0.0333                 0.0817
 IR Inten    --      0.1322                 0.4085                 0.7021

                      7                      8                      9
                      A                      A                      A
 Frequencies --    209.4338               238.7451               270.3298
 Red. masses --      4.3486                 1.2304                 2.1395
 Frc consts  --      0.1124                 0.0413                 0.0921
 IR Inten    --      0.5261                 0.0129                 0.7404

                     10                     11                     12
                      A                      A                      A
 Frequencies --    288.1372               299.8770               307.5681
 Red. masses --      2.2026                 1.4377                 1.4243
 Frc consts  --      0.1077                 0.0762                 0.0794
 IR Inten    --     15.3069                18.8979                 9.2308

                     13                     14                     15
                      A                      A                      A
 Frequencies --    335.8987               355.0320               372.4933
 Red. masses --      1.9451                 2.4141                 2.2491
 Frc consts  --      0.1293                 0.1793                 0.1839
 IR Inten    --     31.8335                36.1766                 2.5785

                     16                     17                     18
                      A                      A                      A
 Frequencies --    380.4162               477.5301               491.4765
 Red. masses --      3.5710                 2.9312                 3.2407
 Frc consts  --      0.3045                 0.3938                 0.4612
 IR Inten    --     22.4419                 3.7924                 8.7100

                     19                     20                     21
                      A                      A                      A
 Frequencies --    542.2004               568.5037               591.2849
 Red. masses --      3.8841                 3.2885                 4.0529
 Frc consts  --      0.6728                 0.6262                 0.8348
 IR Inten    --      1.9639                 0.8787                 2.0012

                     22                     23                     24
                      A                      A                      A
 Frequencies --    645.7038               672.6455               708.6226
 Red. masses --      5.0129                 3.0552                 1.1830
 Frc consts  --      1.2314                 0.8144                 0.3500
 IR Inten    --     12.3214                 2.3256                58.2333

                     25                     26                     27
                      A                      A                      A
 Frequencies --    747.5258               750.2419               796.1747
 Red. masses --      2.9781                 3.5338                 3.0649
 Frc consts  --      0.9805                 1.1719                 1.1447
 IR Inten    --      0.3773                 2.2861                20.0896

                     28                     29                     30
                      A                      A                      A
 Frequencies --    825.5193               840.8324               864.4736
 Red. masses --      1.8894                 1.3680                 3.5324
 Frc consts  --      0.7586                 0.5699                 1.5553
 IR Inten    --      8.7910                 6.8375                 9.5283

                     31                     32                     33
                      A                      A                      A
 Frequencies --    881.2625               908.3047               909.9645
 Red. masses --      2.2963                 1.6150                 1.9951
 Frc consts  --      1.0507                 0.7850                 0.9734
 IR Inten    --      3.3978                 2.9694                 1.2664

                     34                     35                     36
                      A                      A                      A
 Frequencies --    918.1790               943.6422               965.5338
 Red. masses --      2.2572                 2.0405                 1.4220
 Frc consts  --      1.1212                 1.0705                 0.7811
 IR Inten    --      0.2921                 1.1417                 0.2571

                     37                     38                     39
                      A                      A                      A
 Frequencies --    991.1941              1003.0878              1029.5752
 Red. masses --      2.1964                 1.7856                 1.9009
 Frc consts  --      1.2714                 1.0585                 1.1872
 IR Inten    --     17.4668                15.2168                16.0785

                     40                     41                     42
                      A                      A                      A
 Frequencies --   1042.6415              1062.9811              1069.2749
 Red. masses --      2.3387                 2.2221                 1.9092
 Frc consts  --      1.4979                 1.4794                 1.2861
 IR Inten    --     64.9115                 7.8334                 4.2252

                     43                     44                     45
                      A                      A                      A
 Frequencies --   1106.4690              1112.3278              1143.3260
 Red. masses --      1.6250                 1.3471                 1.6501
 Frc consts  --      1.1721                 0.9820                 1.2709
 IR Inten    --      2.5143                 4.3201                 8.8262

                     46                     47                     48
                      A                      A                      A
 Frequencies --   1165.7467              1195.6862              1207.1175
 Red. masses --      2.2931                 1.4597                 1.7158
 Frc consts  --      1.8360                 1.2296                 1.4731
 IR Inten    --      2.5785                 5.9181                10.0980

                     49                     50                     51
                      A                      A                      A
 Frequencies --   1244.6176              1264.2323              1275.2923
 Red. masses --      1.5876                 1.5625                 1.3890
 Frc consts  --      1.4490                 1.4713                 1.3310
 IR Inten    --      6.6915                30.5506                 2.6189

                     52                     53                     54
                      A                      A                      A
 Frequencies --   1277.1045              1292.9241              1295.2338
 Red. masses --      1.7046                 1.4580                 1.4278
 Frc consts  --      1.6380                 1.4360                 1.4113
 IR Inten    --      0.4971                24.7285                 1.6234

                     55                     56                     57
                      A                      A                      A
 Frequencies --   1333.8676              1345.5596              1358.1037
 Red. masses --      1.5024                 1.3596                 1.4284
 Frc consts  --      1.5750                 1.4503                 1.5522
 IR Inten    --      6.8881                 0.4810                 1.1165

                     58                     59                     60
                      A                      A                      A
 Frequencies --   1371.4642              1398.6424              1425.1000
 Red. masses --      1.6161                 2.0839                 1.3416
 Frc consts  --      1.7909                 2.4018                 1.6054
 IR Inten    --      1.2626                 1.0948                 3.2094

                     61                     62                     63
                      A                      A                      A
 Frequencies --   1430.7571              1442.4448              1454.2481
 Red. masses --      1.2423                 1.2299                 1.2213
 Frc consts  --      1.4984                 1.5077                 1.5217
 IR Inten    --      6.6245                44.9780                12.6092

                     64                     65                     66
                      A                      A                      A
 Frequencies --   1496.9209              1514.0414              1516.6663
 Red. masses --      6.4785                 1.0557                 1.0565
 Frc consts  --      8.5530                 1.4259                 1.4318
 IR Inten    --      7.4465                 3.8941                 0.0531

                     67                     68                     69
                      A                      A                      A
 Frequencies --   1524.9235              1533.9029              1536.6239
 Red. masses --      1.0662                 1.0721                 1.0618
 Frc consts  --      1.4608                 1.4862                 1.4771
 IR Inten    --      3.7729                 8.0959                 3.1904

                     70                     71                     72
                      A                      A                      A
 Frequencies --   1543.4855              1553.0652              1598.5434
 Red. masses --      1.0563                 1.0961                 5.0613
 Frc consts  --      1.4827                 1.5577                 7.6201
 IR Inten    --      9.5700                 4.9723                 0.4861

                     73                     74                     75
                      A                      A                      A
 Frequencies --   3039.7220              3041.6604              3044.6697
 Red. masses --      1.0625                 1.0552                 1.0600
 Frc consts  --      5.7845                 5.7520                 5.7896
 IR Inten    --     30.7700                12.7057                11.4791

                     76                     77                     78
                      A                      A                      A
 Frequencies --   3051.8375              3062.3587              3078.1620
 Red. masses --      1.0452                 1.0668                 1.0779
 Frc consts  --      5.7354                 5.8944                 6.0174
 IR Inten    --     36.1695                22.7240                23.5312

                     79                     80                     81
                      A                      A                      A
 Frequencies --   3079.4118              3086.6029              3103.5039
 Red. masses --      1.0808                 1.0924                 1.1028
 Frc consts  --      6.0384                 6.1319                 6.2584
 IR Inten    --     53.1225                24.5993                35.2489

                     82                     83                     84
                      A                      A                      A
 Frequencies --   3105.1978              3113.3995              3120.8469
 Red. masses --      1.1017                 1.0970                 1.1001
 Frc consts  --      6.2587                 6.2653                 6.3129
 IR Inten    --     17.5915                74.0198                35.7148

                     85                     86                     87
                      A                      A                      A
 Frequencies --   3136.2092              3141.3564              3217.4179
 Red. masses --      1.1018                 1.0968                 1.0881
 Frc consts  --      6.3849                 6.3767                 6.6364
 IR Inten    --     22.3967                15.0443                10.0068

                     88                     89                     90
                      A                      A                      A
 Frequencies --   3231.4972              3271.0388              3725.5074
 Red. masses --      1.0949                 1.0971                 1.0660
 Frc consts  --      6.7365                 6.9162                 8.7171
 IR Inten    --      6.6670                 1.3902                13.2219

 - Thermochemistry -
 -------------------
 Temperature   298.150 Kelvin.  Pressure   1.00000 Atm.
 Atom     1 has atomic number  6 and mass  12.00000

 Molecular mass:   210.10784 amu.
 Principal axes and moments of inertia in atomic units:
                           1         2         3
     Eigenvalues --  1579.087994473.580764997.74381
           X            0.99997   0.00268  -0.00684
           Y           -0.00264   0.99998   0.00550
           Z            0.00685  -0.00548   0.99996
 This molecule is an asymmetric top.
 Rotational symmetry number  1.
 Warning -- assumption of classical behavior for rotation
           may cause significant error
 Rotational temperatures (Kelvin)      0.05485     0.01936     0.01733
 Rotational constants (GHZ):           1.14290     0.40342     0.36111
 Zero-point vibrational energy     732620.9 (Joules/Mol)
                                  175.10059 (Kcal/Mol)
 Warning -- explicit consideration of  21 degrees of freedom as
           vibrations may cause significant error
 Vibrational temperatures:     43.46    54.60    87.39   142.05   220.47
          (Kelvin)            271.41   301.33   343.50   388.94   414.57
                              431.46   442.52   483.28   510.81   535.93
                              547.33   687.06   707.13   780.11   817.95
                              850.73   929.02   967.79  1019.55  1075.52
                             1079.43  1145.52  1187.74  1209.77  1243.78
                             1267.94  1306.85  1309.24  1321.05  1357.69
                             1389.19  1426.11  1443.22  1481.33  1500.13
                             1529.39  1538.45  1591.96  1600.39  1644.99
                             1677.25  1720.33  1736.77  1790.73  1818.95
                             1834.86  1837.47  1860.23  1863.55  1919.14
                             1935.96  1954.01  1973.23  2012.33  2050.40
                             2058.54  2075.36  2092.34  2153.74  2178.37
                             2182.14  2194.02  2206.94  2210.86  2220.73
                             2234.51  2299.95  4373.48  4376.27  4380.60
                             4390.91  4406.05  4428.79  4430.59  4440.93
                             4465.25  4467.69  4479.49  4490.20  4512.31
                             4519.71  4629.15  4649.40  4706.30  5360.17

 Zero-point correction=                           0.279041 (Hartree/Particle)
 Thermal correction to Energy=                    0.293197
 Thermal correction to Enthalpy=                  0.294141
 Thermal correction to Gibbs Free Energy=         0.237486
 Sum of electronic and zero-point Energies=           -941.293009
 Sum of electronic and thermal Energies=              -941.278852
 Sum of electronic and thermal Enthalpies=            -941.277908
 Sum of electronic and thermal Free Energies=         -941.334563

                     E (Thermal)             CV                S
                      KCal/Mol        Cal/Mol-Kelvin    Cal/Mol-Kelvin
 Total                  183.984             55.430            119.242
 Electronic               0.000              0.000              0.000
 Translational            0.889              2.981             41.931
 Rotational               0.889              2.981             31.935
 Vibrational            182.206             49.469             45.376
 Vibration     1          0.594              1.984              5.816
 Vibration     2          0.594              1.982              5.363
 Vibration     3          0.597              1.973              4.433
 Vibration     4          0.604              1.950              3.479
 Vibration     5          0.619              1.899              2.632
 Vibration     6          0.633              1.855              2.241
 Vibration     7          0.642              1.826              2.049
 Vibration     8          0.657              1.781              1.812
 Vibration     9          0.674              1.728              1.594
 Vibration    10          0.685              1.696              1.485
 Vibration    11          0.692              1.674              1.418
 Vibration    12          0.697              1.659              1.375
 Vibration    13          0.717              1.604              1.232
 Vibration    14          0.731              1.565              1.144
 Vibration    15          0.744              1.529              1.070
 Vibration    16          0.750              1.512              1.038
 Vibration    17          0.834              1.300              0.717
 Vibration    18          0.847              1.269              0.680
 Vibration    19          0.897              1.157              0.561
 Vibration    20          0.925              1.099              0.507
 Vibration    21          0.949              1.050              0.465

 Optimization completed.
    -- Stationary point found.
 Normal termination of Gaussian 16 at Thu Dec 10 09:30:26 2020.

 ----------------------------------------------------------------------
 # B3LYP/6-311++G(d,p) empiricaldispersion=gd3bj scf=xqc pop=npa geom=c
 heck
 ----------------------------------------------------------------------

 ---------------------------------------
 CID_107181557_JID_4067_Energie_neutraal
 ---------------------------------------
 Structure from the checkpoint file:  "JID_4067.chk"
 Charge =  0 Multiplicity = 1

 SCF Done:  E(RB3LYP) =  -941.755268696     A.U. after   15 cycles
 Normal termination of Gaussian 16 at Thu Dec 10 09:35:14 2020.

 ----------------------------------------------------------------------
 # B3LYP/6-311++G(d,p) empiricaldispersion=gd3bj scf=xqc pop=npa geom=c
 heck
 ----------------------------------------------------------------------

 -------------------------------------
 CID_107181557_JID_4067_Energie_kation
 -------------------------------------
 Structure from the checkpoint file:  "JID_4067.chk"
 Charge =  1 Multiplicity = 2

 SCF Done:  E(UB3LYP) =  -941.445232042     A.U. after   28 cycles
 Normal termination of Gaussian 16 at Thu Dec 10 09:46:27 2020.
 Gaussian 16:  ES64L-G16RevA.03 25-Dec-2016

 ----------------------------------------------------------------------
 # B3LYP/6-311++G(d,p) empiricaldispersion=gd3bj scf=xqc pop=npa geom=c
 heck
 ----------------------------------------------------------------------

 ------------------------------------
 CID_107181557_JID_4067_Energie_anion
 ------------------------------------
 Structure from the checkpoint file:  "JID_4067.chk"
 Charge = -1 Multiplicity = 2

                         Standard orientation:
 ---------------------------------------------------------------------
 Center     Atomic      Atomic             Coordinates (Angstroms)
 Number     Number       Type             X           Y           Z
 ---------------------------------------------------------------------
      1          6           0        0.651926   -1.811546   -0.886151
      2          6           0        1.688008   -0.938657   -0.167395
      3          6           0        2.651131   -0.277042   -1.178530
      4          6           0        3.361286    0.842437   -0.398607
      5          6           0        2.371596    1.250058    0.726693
      6          6           0        1.145795    0.298791    0.625453
      7          6           0       -0.058246    1.007920   -0.040642
      8          6           0       -1.359222    0.267389    0.135151
      9          6           0       -1.786761   -0.513756    1.179520
     10          6           0       -3.134931   -0.965299    1.038070
     11          6           0       -3.723297   -0.517907   -0.112018
     12         16           0       -2.638150    0.470414   -1.035952
     13          8           0       -0.226402    2.357981    0.423752
     14          6           0        2.477682   -1.831034    0.809105
     15          1           0        0.061649   -1.244855   -1.612557
     16          1           0        1.168024   -2.610112   -1.433455
     17          1           0       -0.046786   -2.280581   -0.187367
     18          1           0        3.343611   -1.004092   -1.618297
     19          1           0        2.069236    0.146894   -2.007495
     20          1           0        3.620440    1.687450   -1.044041
     21          1           0        4.300912    0.475559    0.028005
     22          1           0        2.045182    2.287439    0.636948
     23          1           0        2.843036    1.152441    1.709849
     24          1           0        0.832316   -0.009028    1.630679
     25          1           0        0.151594    1.131187   -1.108277
     26          1           0       -1.157062   -0.780162    2.020563
     27          1           0       -3.637567   -1.599499    1.759974
     28          1           0       -4.724908   -0.710427   -0.471593
     29          1           0       -0.584904    2.298259    1.324367
     30          1           0        2.973901   -2.647367    0.271012
     31          1           0        3.247285   -1.272572    1.351933
     32          1           0        1.805860   -2.279137    1.551071
 ---------------------------------------------------------------------

 SCF Done:  E(UB3LYP) =  -941.741746826     A.U. after   33 cycles
 SCF Done:  E(UB3LYP) =  -941.741746826     a.u. after    1 cycles

 The electronic state is 2-A.
 Alpha  occ. eigenvalues --  -88.76641 -19.02103 -10.12872 -10.09209 -10.08890
 Alpha  occ. eigenvalues --  -10.07819 -10.07008 -10.06889 -10.06724 -10.05999
 Alpha  occ. eigenvalues --  -10.05887 -10.05399 -10.05077 -10.04907  -7.85279
 Alpha  occ. eigenvalues --   -5.81560  -5.81200  -5.80890  -0.92378  -0.77444
 Alpha  occ. eigenvalues --   -0.74688  -0.65721  -0.65318  -0.62901  -0.60958
 Alpha  occ. eigenvalues --   -0.58184  -0.56261  -0.53107  -0.47253  -0.45433
 Alpha  occ. eigenvalues --   -0.44423  -0.42725  -0.41057  -0.38373  -0.37032
 Alpha  occ. eigenvalues --   -0.35491  -0.34464  -0.33062  -0.31739  -0.30541
 Alpha  occ. eigenvalues --   -0.29827  -0.29120  -0.27907  -0.27717  -0.26904
 Alpha  occ. eigenvalues --   -0.26406  -0.25034  -0.24031  -0.23992  -0.22830
 Alpha  occ. eigenvalues --   -0.21806  -0.21353  -0.21104  -0.20445  -0.17656
 Alpha  occ. eigenvalues --   -0.14962  -0.13121   0.04606
 Alpha virt. eigenvalues --    0.06664   0.07131   0.07652   0.08065   0.08539
 Alpha virt. eigenvalues --    0.08933   0.09706   0.10397   0.10641   0.10768
 Alpha virt. eigenvalues --    0.11404   0.12325   0.12887   0.13202   0.13809

  Beta  occ. eigenvalues --  -88.76626 -19.02069 -10.12866 -10.09135 -10.08778
  Beta  occ. eigenvalues --  -10.07816 -10.07000 -10.06878 -10.06684 -10.05984
  Beta  occ. eigenvalues --  -10.05870 -10.05385 -10.05043 -10.04895  -7.85265
  Beta  occ. eigenvalues --   -5.81554  -5.81195  -5.80843  -0.92291  -0.77334
  Beta  occ. eigenvalues --   -0.74664  -0.65615  -0.65289  -0.62804  -0.60864
  Beta  occ. eigenvalues --   -0.58124  -0.56211  -0.53053  -0.47167  -0.45323
  Beta  occ. eigenvalues --   -0.44325  -0.42668  -0.40972  -0.38320  -0.36996
  Beta  occ. eigenvalues --   -0.35454  -0.34399  -0.32976  -0.31701  -0.30499
  Beta  occ. eigenvalues --   -0.29759  -0.29088  -0.27853  -0.27634  -0.26694
  Beta  occ. eigenvalues --   -0.26366  -0.24991  -0.23953  -0.23937  -0.22784
  Beta  occ. eigenvalues --   -0.21777  -0.21321  -0.21060  -0.20413  -0.17611
  Beta  occ. eigenvalues --   -0.14713  -0.12644
  Beta virt. eigenvalues --    0.06839   0.07272   0.07937   0.08208   0.08521
  Beta virt. eigenvalues --    0.08957   0.09277   0.10187   0.10744   0.10938
  Beta virt. eigenvalues --    0.11007   0.11631   0.12441   0.13136   0.13467

 Mulliken charges and spin densities:
               1          2
     1  C    0.054218  -0.671027
     2  C   -1.734251   2.193825
     3  C   -0.553229   0.275039
     4  C    0.485657  -0.979173
     5  C   -0.062371  -0.492071
     6  C    0.932969  -0.674204
     7  C   -0.302093  -0.247721
     8  C    0.169670  -0.003698
     9  C   -0.125667   0.164181
    10  C    0.417123  -0.925549
    11  C    0.002113  -0.158738
    12  S   -0.126076   0.045256
    13  O   -0.116000  -0.016761
    14  C    1.396571  -1.995613
    15  H   -0.082345   0.209510
    16  H    0.151137  -0.003652
    17  H    0.045182   0.141485
    18  H   -0.236209   0.398490
    19  H    0.091178   0.031921
    20  H   -0.032408   0.178332
    21  H    0.036503   0.114375
    22  H    0.199567  -0.026269
    23  H   -0.400147   0.566162
    24  H    0.036245   0.223726
    25  H    0.115449   0.110180
    26  H   -0.293626   0.430476
    27  H   -0.501109   0.656393
    28  H   -0.145779   0.359850
    29  H    0.151700   0.072349
    30  H   -0.191305   0.329300
    31  H   -0.089412   0.241171
    32  H   -0.293257   0.452454
 Sum of Mulliken charges =  -1.00000   1.00000

 Dipole moment (field-independent basis, Debye):
    X=             -1.1204    Y=              2.4849    Z=             -2.8901  Tot=              3.9727
 Quadrupole moment (field-independent basis, Debye-Ang):
   XX=           -161.7575   YY=           -135.6218   ZZ=           -128.7548
   XY=              0.6885   XZ=             -0.6781   YZ=              5.5871

 Summary of Natural Population Analysis:

                                       Natural Population
                Natural  -----------------------------------------------
    Atom  No    Charge         Core      Valence    Rydberg      Total
 -----------------------------------------------------------------------
      C    1   -0.28686      0.99962     2.27972    0.00753     3.28686
      C    2   -0.04134      0.99956     2.02832    0.01345     3.04134
      C    3   -0.18869      0.99959     2.18008    0.00902     3.18869
      C    4   -0.19454      0.99964     2.18732    0.00758     3.19454
      C    5   -0.19649      0.99962     2.18770    0.00917     3.19649
      C    6   -0.11389      0.99954     2.10020    0.01414     3.11389
      C    7    0.04735      0.99945     1.93821    0.01500     2.95265
      C    8   -0.09742      0.99948     2.08315    0.01480     3.09742
      C    9   -0.12695      0.99944     2.11605    0.01146     3.12695
      C   10   -0.12992      0.99953     2.11902    0.01137     3.12992
      C   11   -0.17926      0.99954     2.16788    0.01185     3.17926
      S   12    0.20884      4.99939     2.77189    0.01988     7.79116
      O   13   -0.36765      0.99990     3.36171    0.00603     4.36765
      C   14   -0.28416      0.99962     2.27683    0.00771     3.28416
      H   15    0.10107      0.00000     0.39770    0.00122     0.39893
      H   16    0.09774      0.00000     0.40140    0.00086     0.40226
      H   17    0.10701      0.00000     0.39178    0.00120     0.39299
      H   18    0.10081      0.00000     0.39824    0.00095     0.39919
      H   19    0.09469      0.00000     0.40410    0.00121     0.40531
      H   20    0.09635      0.00000     0.40279    0.00086     0.40365
      H   21    0.09655      0.00000     0.40223    0.00122     0.40345
      H   22    0.11058      0.00000     0.38814    0.00128     0.38942
      H   23    0.10004      0.00000     0.39880    0.00116     0.39996
      H   24    0.10145      0.00000     0.39602    0.00253     0.39855
      H   25    0.09234      0.00000     0.40590    0.00177     0.40766
      H   26    0.11006      0.00000     0.38825    0.00169     0.38994
      H   27    0.10630      0.00000     0.39238    0.00132     0.39370
      H   28    0.10642      0.00000     0.39267    0.00091     0.39358
      H   29    0.22819      0.00000     0.26903    0.00278     0.27181
      H   30    0.09847      0.00000     0.40046    0.00107     0.40153
      H   31    0.10085      0.00000     0.39776    0.00139     0.39915
      H   32    0.10209      0.00000     0.39645    0.00146     0.39791
 =======================================================================
   * Total *    0.00000     17.99393    38.82218    0.18389    57.00000

 Normal termination of Gaussian 16 at Thu Dec 10 09:59:26 2020.
