 Gaussian 16, Revision A.03,

 -----------------------------------------------------------
 # opt freq B3LYP/6-31G(d) empiricaldispersion=gd3bj scf=xqc
 -----------------------------------------------------------

 -------------------------------
 CID_142610567_JID_4571_neutraal
 -------------------------------
 Symbolic Z-matrix:
 Charge =  0 Multiplicity = 1

 SCF Done:  E(RB3LYP) =  -592.464502652     A.U. after   16 cycles
 SCF Done:  E(RB3LYP) =  -592.473343704     A.U. after   13 cycles
 SCF Done:  E(RB3LYP) =  -592.474747049     A.U. after   12 cycles
 SCF Done:  E(RB3LYP) =  -592.475307772     A.U. after   12 cycles
 SCF Done:  E(RB3LYP) =  -592.475610113     A.U. after   11 cycles
 SCF Done:  E(RB3LYP) =  -592.475733630     A.U. after   11 cycles
 SCF Done:  E(RB3LYP) =  -592.475747217     A.U. after    9 cycles
 SCF Done:  E(RB3LYP) =  -592.475747921     A.U. after    9 cycles
 SCF Done:  E(RB3LYP) =  -592.475748267     A.U. after    8 cycles
 SCF Done:  E(RB3LYP) =  -592.475748305     A.U. after    7 cycles
 SCF Done:  E(RB3LYP) =  -592.475748399     A.U. after    7 cycles
 Optimization completed.
    -- Stationary point found.
 Normal termination of Gaussian 16 at Thu Dec 10 10:05:41 2020.

 --------------------------------------------------------------------
 #N Geom=AllCheck Guess=TCheck SCRF=Check GenChk RB3LYP/6-31G(d) Freq
 --------------------------------------------------------------------

 Structure from the checkpoint file:  "JID_4571.chk"
 -------------------------------
 CID_142610567_JID_4571_neutraal
 -------------------------------
 Charge =  0 Multiplicity = 1

 SCF Done:  E(RB3LYP) =  -592.475748399     A.U. after    1 cycles

  Exact polarizability: 161.931  -1.941 170.040  -1.320  -5.526  79.296
 Approx polarizability: 220.830   0.371 322.294  -4.318 -19.063 115.050

                      1                      2                      3
                      A                      A                      A
 Frequencies --     66.0622                80.7187               127.3831
 Red. masses --      3.4792                 3.5123                 3.3414
 Frc consts  --      0.0089                 0.0135                 0.0319
 IR Inten    --      1.0721                 0.2755                 0.3033

                      4                      5                      6
                      A                      A                      A
 Frequencies --    176.1905               198.2659               224.9887
 Red. masses --      3.6174                 3.1741                 2.9432
 Frc consts  --      0.0662                 0.0735                 0.0878
 IR Inten    --      3.2145                 1.5454                 1.8127

                      7                      8                      9
                      A                      A                      A
 Frequencies --    241.6985               252.4234               264.1473
 Red. masses --      1.2126                 1.0877                 2.9366
 Frc consts  --      0.0417                 0.0408                 0.1207
 IR Inten    --      0.4961                 0.3387                 3.5659

                     10                     11                     12
                      A                      A                      A
 Frequencies --    288.9410               302.9545               328.3789
 Red. masses --      1.5653                 1.6349                 2.7569
 Frc consts  --      0.0770                 0.0884                 0.1752
 IR Inten    --      6.1495                17.8983                 4.5057

                     13                     14                     15
                      A                      A                      A
 Frequencies --    335.2636               437.0788               454.8418
 Red. masses --      2.9762                 5.1329                 3.6603
 Frc consts  --      0.1971                 0.5777                 0.4462
 IR Inten    --      0.9644                 2.5323                 2.3201

                     16                     17                     18
                      A                      A                      A
 Frequencies --    479.0159               491.9904               526.2195
 Red. masses --      3.4588                 1.3155                 3.9462
 Frc consts  --      0.4676                 0.1876                 0.6438
 IR Inten    --     15.0857               190.4407                 8.9423

                     19                     20                     21
                      A                      A                      A
 Frequencies --    564.9009               573.5407               606.8963
 Red. masses --      4.0572                 3.8837                 3.8609
 Frc consts  --      0.7628                 0.7527                 0.8379
 IR Inten    --      3.1084                22.6527                 1.8216

                     22                     23                     24
                      A                      A                      A
 Frequencies --    629.9389               647.2157               693.1303
 Red. masses --      4.0762                 3.9399                 1.1855
 Frc consts  --      0.9530                 0.9724                 0.3356
 IR Inten    --     48.4883                15.6478                 1.9241

                     25                     26                     27
                      A                      A                      A
 Frequencies --    736.0639               757.3065               797.6218
 Red. masses --      3.9784                 2.9234                 1.7802
 Frc consts  --      1.2700                 0.9878                 0.6673
 IR Inten    --      9.5693                 4.7722                99.5835

                     28                     29                     30
                      A                      A                      A
 Frequencies --    806.4673               825.2159               844.4919
 Red. masses --      1.6949                 1.5179                 1.9807
 Frc consts  --      0.6495                 0.6090                 0.8323
 IR Inten    --     58.0298                36.3747                72.8100

                     31                     32                     33
                      A                      A                      A
 Frequencies --    858.5139               886.4145               919.4954
 Red. masses --      1.8652                 1.5810                 2.3631
 Frc consts  --      0.8100                 0.7319                 1.1772
 IR Inten    --     95.8593                 2.9095                 4.2078

                     34                     35                     36
                      A                      A                      A
 Frequencies --    963.2740               992.0053              1019.6856
 Red. masses --      2.0088                 1.8868                 2.1141
 Frc consts  --      1.0982                 1.0939                 1.2951
 IR Inten    --      0.9578                 7.9111                12.5400

                     37                     38                     39
                      A                      A                      A
 Frequencies --   1027.7439              1039.5294              1082.1473
 Red. masses --      1.7194                 1.9274                 1.9016
 Frc consts  --      1.0700                 1.2272                 1.3120
 IR Inten    --      2.1498                 4.3096                10.2083

                     40                     41                     42
                      A                      A                      A
 Frequencies --   1122.7696              1136.0926              1169.2498
 Red. masses --      2.0338                 2.4273                 1.3210
 Frc consts  --      1.5106                 1.8459                 1.0641
 IR Inten    --     15.9114                 2.8699                 5.6889

                     43                     44                     45
                      A                      A                      A
 Frequencies --   1170.9165              1201.0353              1246.3438
 Red. masses --      2.5873                 1.9223                 2.0455
 Frc consts  --      2.0900                 1.6337                 1.8721
 IR Inten    --      7.2408                 0.6242                36.9226

                     46                     47                     48
                      A                      A                      A
 Frequencies --   1263.9083              1315.1322              1326.0395
 Red. masses --      1.8906                 1.9614                 1.3519
 Frc consts  --      1.7794                 1.9987                 1.4006
 IR Inten    --     15.5251                 2.0926                 1.8246

                     49                     50                     51
                      A                      A                      A
 Frequencies --   1361.4771              1379.5711              1405.6494
 Red. masses --      1.3973                 1.8833                 2.2952
 Frc consts  --      1.5260                 2.1119                 2.6720
 IR Inten    --      1.8465                 4.3548                 0.3250

                     52                     53                     54
                      A                      A                      A
 Frequencies --   1411.2024              1421.6076              1433.4728
 Red. masses --      1.3642                 1.6694                 1.2523
 Frc consts  --      1.6007                 1.9878                 1.5161
 IR Inten    --      2.2425                11.1077                 1.5233

                     55                     56                     57
                      A                      A                      A
 Frequencies --   1437.2739              1463.5052              1518.9266
 Red. masses --      1.4725                 1.4213                 2.2258
 Frc consts  --      1.7922                 1.7936                 3.0255
 IR Inten    --      5.8705                 6.0256               191.8667

                     58                     59                     60
                      A                      A                      A
 Frequencies --   1522.1957              1525.8108              1531.1424
 Red. masses --      1.1048                 1.0437                 1.0584
 Frc consts  --      1.5082                 1.4316                 1.4619
 IR Inten    --     40.9751                 7.1342                 1.4468

                     61                     62                     63
                      A                      A                      A
 Frequencies --   1531.9184              1646.8752              1661.5912
 Red. masses --      1.1530                 4.9068                 1.8533
 Frc consts  --      1.5942                 7.8409                 3.0146
 IR Inten    --     40.1553                 0.9794                11.5803

                     64                     65                     66
                      A                      A                      A
 Frequencies --   1685.0194              1703.9014              1752.9554
 Red. masses --      2.2196                 5.9311                 5.8863
 Frc consts  --      3.7130                10.1456                10.6569
 IR Inten    --     70.0933                12.6213               264.6807

                     67                     68                     69
                      A                      A                      A
 Frequencies --   3009.5750              3046.7281              3049.3065
 Red. masses --      1.0834                 1.0740                 1.0375
 Frc consts  --      5.7816                 5.8738                 5.6839
 IR Inten    --     32.4966                 8.3913                34.9105

                     70                     71                     72
                      A                      A                      A
 Frequencies --   3051.9821              3116.5583              3120.9930
 Red. masses --      1.0435                 1.1013                 1.1017
 Frc consts  --      5.7267                 6.3022                 6.3225
 IR Inten    --     42.8722                20.0372                28.7400

                     73                     74                     75
                      A                      A                      A
 Frequencies --   3121.4759              3132.7806              3133.6822
 Red. masses --      1.0897                 1.1027                 1.1030
 Frc consts  --      6.2557                 6.3761                 6.3819
 IR Inten    --     34.8516                26.4999                22.4013

                     76                     77                     78
                      A                      A                      A
 Frequencies --   3175.9504              3193.3612              3274.4245
 Red. masses --      1.0608                 1.0900                 1.1132
 Frc consts  --      6.3042                 6.5492                 7.0320
 IR Inten    --      9.3500                21.4814                 9.3979

                     79                     80                     81
                      A                      A                      A
 Frequencies --   3487.4935              3567.6511              3607.3858
 Red. masses --      1.0531                 1.0758                 1.0904
 Frc consts  --      7.5467                 8.0679                 8.3600
 IR Inten    --      3.3397                17.0569                 8.7616

 - Thermochemistry -
 -------------------
 Temperature   298.150 Kelvin.  Pressure   1.00000 Atm.
 Atom     1 has atomic number  6 and mass  12.00000

 Molecular mass:   189.12660 amu.
 Principal axes and moments of inertia in atomic units:
                           1         2         3
     Eigenvalues --  1726.841493076.978084007.49433
           X            0.99975  -0.02129   0.00678
           Y            0.02119   0.99965   0.01569
           Z           -0.00711  -0.01554   0.99985
 This molecule is an asymmetric top.
 Rotational symmetry number  1.
 Warning -- assumption of classical behavior for rotation
           may cause significant error
 Rotational temperatures (Kelvin)      0.05016     0.02815     0.02161
 Rotational constants (GHZ):           1.04511     0.58653     0.45034
 Zero-point vibrational energy     651863.7 (Joules/Mol)
                                  155.79915 (Kcal/Mol)
 Warning -- explicit consideration of  21 degrees of freedom as
           vibrations may cause significant error
 Vibrational temperatures:     95.05   116.14   183.28   253.50   285.26
          (Kelvin)            323.71   347.75   363.18   380.05   415.72
                              435.88   472.46   482.37   628.86   654.42
                              689.20   707.86   757.11   812.77   825.20
                              873.19   906.34   931.20   997.26  1059.03
                             1089.60  1147.60  1160.33  1187.30  1215.04
                             1235.21  1275.35  1322.95  1385.94  1427.27
                             1467.10  1478.69  1495.65  1556.97  1615.41
                             1634.58  1682.29  1684.69  1728.02  1793.21
                             1818.48  1892.18  1907.88  1958.86  1984.90
                             2022.42  2030.41  2045.38  2062.45  2067.92
                             2105.66  2185.40  2190.10  2195.30  2202.97
                             2204.09  2369.49  2390.66  2424.37  2451.53
                             2522.11  4330.11  4383.56  4387.27  4391.12
                             4484.03  4490.41  4491.11  4507.37  4508.67
                             4569.48  4594.53  4711.17  5017.73  5133.05
                             5190.22

 Zero-point correction=                           0.248282 (Hartree/Particle)
 Thermal correction to Energy=                    0.261333
 Thermal correction to Enthalpy=                  0.262277
 Thermal correction to Gibbs Free Energy=         0.209965
 Sum of electronic and zero-point Energies=           -592.227467
 Sum of electronic and thermal Energies=              -592.214415
 Sum of electronic and thermal Enthalpies=            -592.213471
 Sum of electronic and thermal Free Energies=         -592.265784

                     E (Thermal)             CV                S
                      KCal/Mol        Cal/Mol-Kelvin    Cal/Mol-Kelvin
 Total                  163.989             52.446            110.102
 Electronic               0.000              0.000              0.000
 Translational            0.889              2.981             41.618
 Rotational               0.889              2.981             31.432
 Vibrational            162.212             46.484             37.052
 Vibration     1          0.597              1.970              4.267
 Vibration     2          0.600              1.962              3.873
 Vibration     3          0.611              1.926              2.985
 Vibration     4          0.628              1.872              2.368
 Vibration     5          0.637              1.842              2.149
 Vibration     6          0.650              1.803              1.919
 Vibration     7          0.658              1.776              1.790
 Vibration     8          0.664              1.759              1.714
 Vibration     9          0.671              1.739              1.634
 Vibration    10          0.686              1.694              1.480
 Vibration    11          0.694              1.668              1.401
 Vibration    12          0.712              1.619              1.268
 Vibration    13          0.716              1.605              1.235
 Vibration    14          0.797              1.389              0.836
 Vibration    15          0.813              1.350              0.781
 Vibration    16          0.835              1.297              0.713
 Vibration    17          0.848              1.268              0.678
 Vibration    18          0.881              1.192              0.596
 Vibration    19          0.921              1.107              0.514
 Vibration    20          0.930              1.088              0.497
 Vibration    21          0.966              1.017              0.438

 Optimization completed.
    -- Stationary point found.
 Normal termination of Gaussian 16 at Thu Dec 10 10:14:18 2020.

 ----------------------------------------------------------------------
 # B3LYP/6-311++G(d,p) empiricaldispersion=gd3bj scf=xqc pop=npa geom=c
 heck
 ----------------------------------------------------------------------

 ---------------------------------------
 CID_142610567_JID_4571_Energie_neutraal
 ---------------------------------------
 Structure from the checkpoint file:  "JID_4571.chk"
 Charge =  0 Multiplicity = 1

 SCF Done:  E(RB3LYP) =  -592.643087441     A.U. after   16 cycles
 Normal termination of Gaussian 16 at Thu Dec 10 10:18:38 2020.

 ----------------------------------------------------------------------
 # B3LYP/6-311++G(d,p) empiricaldispersion=gd3bj scf=xqc pop=npa geom=c
 heck
 ----------------------------------------------------------------------

 -------------------------------------
 CID_142610567_JID_4571_Energie_kation
 -------------------------------------
 Structure from the checkpoint file:  "JID_4571.chk"
 Charge =  1 Multiplicity = 2

 SCF Done:  E(UB3LYP) =  -592.409938768     A.U. after   21 cycles
 Normal termination of Gaussian 16 at Thu Dec 10 10:27:02 2020.
 Gaussian 16:  ES64L-G16RevA.03 25-Dec-2016

 ----------------------------------------------------------------------
 # B3LYP/6-311++G(d,p) empiricaldispersion=gd3bj scf=xqc pop=npa geom=c
 heck
 ----------------------------------------------------------------------

 ------------------------------------
 CID_142610567_JID_4571_Energie_anion
 ------------------------------------
 Structure from the checkpoint file:  "JID_4571.chk"
 Charge = -1 Multiplicity = 2

                         Standard orientation:
 ---------------------------------------------------------------------
 Center     Atomic      Atomic             Coordinates (Angstroms)
 Number     Number       Type             X           Y           Z
 ---------------------------------------------------------------------
      1          6           0        2.593719   -0.163993    1.829890
      2          6           0        2.518135   -0.245088    0.292683
      3          6           0        2.259801    1.142328   -0.262125
      4          7           0        1.096214    1.636825   -0.454077
      5          6           0       -0.036692    0.835286   -0.188557
      6          6           0        0.076082   -0.513086   -0.054672
      7          6           0        1.410674   -1.200649   -0.190185
      8          6           0        1.624499   -1.652214   -1.647243
      9          7           0       -1.043170   -1.327058    0.078073
     10          6           0       -2.306337   -0.745073    0.198336
     11          6           0       -2.471103    0.590691    0.076433
     12          6           0       -1.347483    1.503904   -0.112722
     13          6           0       -1.490035    2.841738   -0.226026
     14          7           0       -3.311291   -1.686174    0.480995
     15          1           0        3.386783    0.520144    2.148950
     16          1           0        2.802825   -1.151553    2.258052
     17          1           0        1.646923    0.198851    2.242511
     18          1           0        3.483147   -0.607055   -0.083978
     19          1           0        3.119733    1.784853   -0.466054
     20          1           0        1.421780   -2.092163    0.454810
     21          1           0        2.567082   -2.202904   -1.747598
     22          1           0        0.806174   -2.299796   -1.976813
     23          1           0        1.658527   -0.784032   -2.313567
     24          1           0       -0.917898   -2.203882    0.570520
     25          1           0       -3.476587    1.000730    0.093545
     26          1           0       -2.470840    3.304443   -0.170017
     27          1           0       -0.630898    3.480492   -0.385490
     28          1           0       -4.222715   -1.248086    0.560352
     29          1           0       -3.353857   -2.428254   -0.215037
 ---------------------------------------------------------------------

 SCF Done:  E(UB3LYP) =  -592.637326164     A.U. after   33 cycles
 SCF Done:  E(UB3LYP) =  -592.637326164     a.u. after    1 cycles

 The electronic state is 2-A.
 Alpha  occ. eigenvalues --  -14.23454 -14.21204 -14.18455 -10.13059 -10.09322
 Alpha  occ. eigenvalues --  -10.08434 -10.08040 -10.07839 -10.07069 -10.06749
 Alpha  occ. eigenvalues --  -10.05986 -10.05600 -10.04172 -10.01505  -0.86885
 Alpha  occ. eigenvalues --   -0.81793  -0.78439  -0.71172  -0.68483  -0.65283
 Alpha  occ. eigenvalues --   -0.61372  -0.58788  -0.55397  -0.52039  -0.51157
 Alpha  occ. eigenvalues --   -0.46924  -0.43909  -0.42576  -0.41117  -0.37678
 Alpha  occ. eigenvalues --   -0.36753  -0.35738  -0.35026  -0.33378  -0.32003
 Alpha  occ. eigenvalues --   -0.31501  -0.29915  -0.29185  -0.28753  -0.27750
 Alpha  occ. eigenvalues --   -0.26689  -0.25516  -0.24994  -0.23885  -0.23332
 Alpha  occ. eigenvalues --   -0.21278  -0.19148  -0.18072  -0.13594  -0.11081
 Alpha  occ. eigenvalues --   -0.05891   0.04249
 Alpha virt. eigenvalues --    0.06288   0.06775   0.08243   0.08708   0.09318
 Alpha virt. eigenvalues --    0.09847   0.10432   0.10886   0.11446   0.11790
 Alpha virt. eigenvalues --    0.12102   0.12336   0.13399   0.13786   0.14272

  Beta  occ. eigenvalues --  -14.23402 -14.21139 -14.18391 -10.13042 -10.09201
  Beta  occ. eigenvalues --  -10.08274 -10.08035 -10.07844 -10.07050 -10.06721
  Beta  occ. eigenvalues --  -10.05985 -10.05555 -10.04141 -10.01515  -0.86780
  Beta  occ. eigenvalues --   -0.81611  -0.78321  -0.71092  -0.68417  -0.65146
  Beta  occ. eigenvalues --   -0.61266  -0.58738  -0.55251  -0.51947  -0.50995
  Beta  occ. eigenvalues --   -0.46829  -0.43837  -0.42477  -0.41003  -0.37582
  Beta  occ. eigenvalues --   -0.36675  -0.35648  -0.34886  -0.33302  -0.31938
  Beta  occ. eigenvalues --   -0.31443  -0.29729  -0.29136  -0.28665  -0.27657
  Beta  occ. eigenvalues --   -0.26638  -0.25442  -0.24782  -0.23624  -0.23279
  Beta  occ. eigenvalues --   -0.21200  -0.18965  -0.17843  -0.13476  -0.10720
  Beta  occ. eigenvalues --   -0.05744
  Beta virt. eigenvalues --    0.06868   0.07390   0.07597   0.08795   0.09204
  Beta virt. eigenvalues --    0.09725   0.10167   0.10682   0.11007   0.11706
  Beta virt. eigenvalues --    0.11968   0.12237   0.12589   0.13544   0.13845

 Mulliken charges and spin densities:
               1          2
     1  C   -0.661873  -0.030075
     2  C    0.414682  -0.048336
     3  C   -0.171369   0.112230
     4  N   -0.044755   0.038823
     5  C   -0.044353  -0.491955
     6  C   -0.200429  -0.505848
     7  C   -1.134369   1.089286
     8  C    0.211729  -0.881257
     9  N   -0.121297   0.077924
    10  C    0.298929  -0.469809
    11  C    0.127761  -0.382845
    12  C    1.241912  -0.303219
    13  C    0.128003  -0.477430
    14  N   -0.469224   0.154722
    15  H    0.131941  -0.003857
    16  H    0.083888   0.034769
    17  H    0.164092  -0.002190
    18  H    0.107966   0.084108
    19  H    0.143344   0.010220
    20  H   -0.222802   0.417929
    21  H   -0.286038   0.413678
    22  H   -0.164727   0.320013
    23  H    0.131293   0.051794
    24  H   -0.306895   0.580607
    25  H   -0.072733   0.185146
    26  H    0.093634   0.001180
    27  H    0.147113  -0.007608
    28  H   -0.133783   0.385899
    29  H   -0.391641   0.646100
 Sum of Mulliken charges =  -1.00000   1.00000

 Dipole moment (field-independent basis, Debye):
    X=              4.5035    Y=              3.3232    Z=              2.0358  Tot=              5.9556
 Quadrupole moment (field-independent basis, Debye-Ang):
   XX=           -128.9229   YY=           -139.9649   ZZ=           -108.4871
   XY=             -7.7543   XZ=              3.4086   YZ=             -0.6346

 Summary of Natural Population Analysis:

                                       Natural Population
                Natural  -----------------------------------------------
    Atom  No    Charge         Core      Valence    Rydberg      Total
 -----------------------------------------------------------------------
      C    1   -0.27738      0.99964     2.27266    0.00507     3.27738
      C    2   -0.13896      0.99959     2.12954    0.00983     3.13896
      C    3    0.09313      0.99962     1.89018    0.01708     2.90687
      N    4   -0.22301      0.99967     2.71215    0.01119     3.72301
      C    5    0.02983      0.99934     1.95783    0.01300     2.97017
      C    6    0.12261      0.99942     1.86553    0.01244     2.87739
      C    7   -0.12173      0.99957     2.10890    0.01326     3.12173
      C    8   -0.27900      0.99964     2.27337    0.00599     3.27900
      N    9   -0.29599      0.99963     2.78396    0.01240     3.79599
      C   10    0.19492      0.99948     1.79270    0.01289     2.80508
      C   11   -0.15820      0.99946     2.14897    0.00977     3.15820
      C   12   -0.02636      0.99950     2.01408    0.01278     3.02636
      C   13   -0.24633      0.99956     2.23941    0.00736     3.24633
      N   14   -0.40636      0.99973     2.89622    0.01041     3.90636
      H   15    0.09558      0.00000     0.40366    0.00076     0.40442
      H   16    0.09613      0.00000     0.40310    0.00077     0.40387
      H   17    0.10378      0.00000     0.39532    0.00090     0.39622
      H   18    0.09897      0.00000     0.39944    0.00158     0.40103
      H   19    0.07728      0.00000     0.42164    0.00108     0.42272
      H   20    0.10205      0.00000     0.39507    0.00288     0.39795
      H   21    0.09647      0.00000     0.40209    0.00144     0.40353
      H   22    0.10473      0.00000     0.39408    0.00119     0.39527
      H   23    0.10199      0.00000     0.39708    0.00093     0.39801
      H   24    0.19800      0.00000     0.29746    0.00454     0.30200
      H   25    0.09723      0.00000     0.40135    0.00142     0.40277
      H   26    0.08469      0.00000     0.41439    0.00092     0.41531
      H   27    0.10109      0.00000     0.39799    0.00092     0.39891
      H   28    0.18571      0.00000     0.31209    0.00220     0.31429
      H   29    0.18909      0.00000     0.30159    0.00931     0.31091
 =======================================================================
   * Total *    0.00000     13.99386    36.82184    0.18430    51.00000

 Normal termination of Gaussian 16 at Thu Dec 10 10:44:39 2020.
