 Gaussian 16, Revision A.03,

 -----------------------------------------------------------
 # opt freq B3LYP/6-31G(d) empiricaldispersion=gd3bj scf=xqc
 -----------------------------------------------------------

 -------------------------------
 CID_114779135_JID_6311_neutraal
 -------------------------------
 Symbolic Z-matrix:
 Charge =  0 Multiplicity = 1

 SCF Done:  E(RB3LYP) =  -1146.27354320     A.U. after   15 cycles
 SCF Done:  E(RB3LYP) =  -1146.28317152     A.U. after   12 cycles
 SCF Done:  E(RB3LYP) =  -1146.28494503     A.U. after   12 cycles
 SCF Done:  E(RB3LYP) =  -1146.28576917     A.U. after   12 cycles
 SCF Done:  E(RB3LYP) =  -1146.28646723     A.U. after   12 cycles
 SCF Done:  E(RB3LYP) =  -1146.28651236     A.U. after   14 cycles
 SCF Done:  E(RB3LYP) =  -1146.28867018     A.U. after   12 cycles
 SCF Done:  E(RB3LYP) =  -1146.28985019     A.U. after   12 cycles
 SCF Done:  E(RB3LYP) =  -1146.29035174     A.U. after   12 cycles
 SCF Done:  E(RB3LYP) =  -1146.29045076     A.U. after   11 cycles
 SCF Done:  E(RB3LYP) =  -1146.29094019     A.U. after    8 cycles
 SCF Done:  E(RB3LYP) =  -1146.29094019     A.U. after    8 cycles
 SCF Done:  E(RB3LYP) =  -1146.29094017     A.U. after    8 cycles
 SCF Done:  E(RB3LYP) =  -1146.29094015     A.U. after    8 cycles
 SCF Done:  E(RB3LYP) =  -1146.29094014     A.U. after    8 cycles
 SCF Done:  E(RB3LYP) =  -1146.29094015     A.U. after    6 cycles
 Optimization completed.
    -- Stationary point found.
 Normal termination of Gaussian 16 at Thu Dec 10 22:24:13 2020.

 --------------------------------------------------------------------
 #N Geom=AllCheck Guess=TCheck SCRF=Check GenChk RB3LYP/6-31G(d) Freq
 --------------------------------------------------------------------

 Structure from the checkpoint file:  "JID_6311.chk"
 -------------------------------
 CID_114779135_JID_6311_neutraal
 -------------------------------
 Charge =  0 Multiplicity = 1

 SCF Done:  E(RB3LYP) =  -1146.29094015     A.U. after    1 cycles

  Exact polarizability: 144.736  -4.886 132.527  -0.716  -2.948 125.412
 Approx polarizability: 195.238   0.601 196.653   2.251 -10.969 192.348

                      1                      2                      3
                      A                      A                      A
 Frequencies --     10.6452                57.3406                84.2115
 Red. masses --      4.7757                 3.1415                 4.1324
 Frc consts  --      0.0003                 0.0061                 0.0173
 IR Inten    --      2.1150                 0.9792                 2.1520

                      4                      5                      6
                      A                      A                      A
 Frequencies --     96.2962               112.5030               146.2708
 Red. masses --      5.1482                 3.3369                 3.1900
 Frc consts  --      0.0281                 0.0249                 0.0402
 IR Inten    --      4.7307                 0.2740                 1.8887

                      7                      8                      9
                      A                      A                      A
 Frequencies --    161.9021               194.5719               209.0301
 Red. masses --      2.6769                 2.1312                 3.2268
 Frc consts  --      0.0413                 0.0475                 0.0831
 IR Inten    --      0.9971                 1.3010                 0.1107

                     10                     11                     12
                      A                      A                      A
 Frequencies --    225.7816               236.7362               252.9932
 Red. masses --      2.0872                 1.6134                 5.1624
 Frc consts  --      0.0627                 0.0533                 0.1947
 IR Inten    --      2.0717                 0.4843                 5.5426

                     13                     14                     15
                      A                      A                      A
 Frequencies --    284.3415               298.0035               314.7094
 Red. masses --      1.6181                 2.4916                 2.9238
 Frc consts  --      0.0771                 0.1304                 0.1706
 IR Inten    --      1.9141                 0.2855                 1.6529

                     16                     17                     18
                      A                      A                      A
 Frequencies --    326.3929               346.0199               362.3952
 Red. masses --      3.4130                 5.3723                 3.5138
 Frc consts  --      0.2142                 0.3790                 0.2719
 IR Inten    --      9.2949                 3.2679                 4.6722

                     19                     20                     21
                      A                      A                      A
 Frequencies --    396.2586               423.9886               445.7769
 Red. masses --      2.3151                 2.3966                 2.9548
 Frc consts  --      0.2142                 0.2538                 0.3460
 IR Inten    --      4.7029                 4.9689                 2.7690

                     22                     23                     24
                      A                      A                      A
 Frequencies --    473.0650               477.7372               502.4856
 Red. masses --      1.1471                 4.6224                 4.2756
 Frc consts  --      0.1512                 0.6216                 0.6361
 IR Inten    --     67.1031                23.2875                 0.1202

                     25                     26                     27
                      A                      A                      A
 Frequencies --    515.9181               543.1820               576.1261
 Red. masses --      3.2187                 5.7394                 3.3364
 Frc consts  --      0.5048                 0.9977                 0.6525
 IR Inten    --     25.4749                15.8573                10.9003

                     28                     29                     30
                      A                      A                      A
 Frequencies --    632.5589               707.5712               749.2799
 Red. masses --      5.0367                 3.8020                 3.1306
 Frc consts  --      1.1874                 1.1215                 1.0355
 IR Inten    --     14.4097                70.2898                26.6969

                     31                     32                     33
                      A                      A                      A
 Frequencies --    786.0737               796.6051               833.4913
 Red. masses --      1.4417                 2.3423                 1.1931
 Frc consts  --      0.5249                 0.8758                 0.4883
 IR Inten    --      8.1316                74.7861                 6.7568

                     34                     35                     36
                      A                      A                      A
 Frequencies --    844.1949               909.9793               914.6165
 Red. masses --      2.4751                 2.2123                 2.6615
 Frc consts  --      1.0393                 1.0793                 1.3118
 IR Inten    --      3.1055                40.4949                10.4831

                     37                     38                     39
                      A                      A                      A
 Frequencies --    922.1959               942.3087               948.3849
 Red. masses --      3.3788                 2.0522                 1.6513
 Frc consts  --      1.6930                 1.0737                 0.8751
 IR Inten    --     33.9635                46.2152                10.2315

                     40                     41                     42
                      A                      A                      A
 Frequencies --    964.0072               972.1106              1017.5832
 Red. masses --      4.0438                 1.9186                 1.7298
 Frc consts  --      2.2141                 1.0683                 1.0553
 IR Inten    --      2.4082                34.8884                44.7291

                     43                     44                     45
                      A                      A                      A
 Frequencies --   1037.1974              1065.0355              1077.0358
 Red. masses --      1.6679                 1.6883                 1.2968
 Frc consts  --      1.0572                 1.1283                 0.8863
 IR Inten    --      7.0942                13.3777                 0.7362

                     46                     47                     48
                      A                      A                      A
 Frequencies --   1097.2966              1098.6300              1102.5224
 Red. masses --      1.3872                 1.3789                 3.4390
 Frc consts  --      0.9841                 0.9806                 2.4630
 IR Inten    --     25.4966                 3.4346               129.5676

                     49                     50                     51
                      A                      A                      A
 Frequencies --   1119.7856              1123.3924              1139.5195
 Red. masses --      7.9301                 1.1655                 2.2008
 Frc consts  --      5.8587                 0.8666                 1.6837
 IR Inten    --    163.9119                 3.7771                11.9148

                     52                     53                     54
                      A                      A                      A
 Frequencies --   1148.0449              1182.9886              1202.4947
 Red. masses --      3.2438                 6.3334                 1.3525
 Frc consts  --      2.5190                 5.2221                 1.1523
 IR Inten    --     94.4490                14.8993                 2.4417

                     55                     56                     57
                      A                      A                      A
 Frequencies --   1220.8863              1235.5936              1238.4987
 Red. masses --      2.1734                 1.9628                 2.8233
 Frc consts  --      1.9088                 1.7656                 2.5516
 IR Inten    --      5.5586                 6.9254                27.2991

                     58                     59                     60
                      A                      A                      A
 Frequencies --   1243.0942              1272.7153              1295.7773
 Red. masses --      1.2518                 1.8703                 1.5474
 Frc consts  --      1.1397                 1.7849                 1.5308
 IR Inten    --     18.5110                19.6981                41.7762

                     61                     62                     63
                      A                      A                      A
 Frequencies --   1323.6241              1328.3837              1358.4815
 Red. masses --     11.5700                 1.3390                 1.6946
 Frc consts  --     11.9430                 1.3921                 1.8426
 IR Inten    --    151.1390                 2.1790                15.5894

                     64                     65                     66
                      A                      A                      A
 Frequencies --   1362.0027              1382.9332              1393.3720
 Red. masses --      1.2991                 1.4112                 1.3069
 Frc consts  --      1.4199                 1.5902                 1.4949
 IR Inten    --      4.8249                22.1876                24.9461

                     67                     68                     69
                      A                      A                      A
 Frequencies --   1416.3007              1420.8988              1428.5361
 Red. masses --      1.2268                 1.3116                 1.3512
 Frc consts  --      1.4499                 1.5602                 1.6246
 IR Inten    --      4.4293                 6.4697                 9.1913

                     70                     71                     72
                      A                      A                      A
 Frequencies --   1446.6472              1467.9977              1482.2927
 Red. masses --      1.2432                 1.3148                 1.0890
 Frc consts  --      1.5329                 1.6693                 1.4098
 IR Inten    --     16.6973                58.9127                 3.0074

                     73                     74                     75
                      A                      A                      A
 Frequencies --   1505.8711              1513.5932              1514.9705
 Red. masses --      1.0612                 1.0822                 1.0683
 Frc consts  --      1.4178                 1.4607                 1.4446
 IR Inten    --      0.9013                 1.4351                 2.4368

                     76                     77                     78
                      A                      A                      A
 Frequencies --   1523.2570              1527.5086              1529.4811
 Red. masses --      1.2751                 1.0585                 1.0892
 Frc consts  --      1.7431                 1.4551                 1.5012
 IR Inten    --      3.2040                 4.0685                10.0626

                     79                     80                     81
                      A                      A                      A
 Frequencies --   1538.2187              1562.6063              3025.8878
 Red. masses --      1.0690                 1.0782                 1.0715
 Frc consts  --      1.4902                 1.5512                 5.7802
 IR Inten    --     10.7638                 2.9155                21.7286

                     82                     83                     84
                      A                      A                      A
 Frequencies --   3028.6358              3038.2585              3061.5780
 Red. masses --      1.0649                 1.0711                 1.0361
 Frc consts  --      5.7551                 5.8252                 5.7221
 IR Inten    --     68.8496                16.8793                15.0079

                     85                     86                     87
                      A                      A                      A
 Frequencies --   3067.6023              3068.5971              3084.7516
 Red. masses --      1.0629                 1.0630                 1.0961
 Frc consts  --      5.8933                 5.8976                 6.1450
 IR Inten    --      9.6187                16.6046                83.0263

                     88                     89                     90
                      A                      A                      A
 Frequencies --   3128.2148              3136.8776              3142.6705
 Red. masses --      1.1013                 1.1022                 1.0961
 Frc consts  --      6.3496                 6.3901                 6.3782
 IR Inten    --      4.7626                28.7698                 7.4021

                     91                     92                     93
                      A                      A                      A
 Frequencies --   3143.0581              3161.6685              3168.1015
 Red. masses --      1.1009                 1.0926                 1.0921
 Frc consts  --      6.4077                 6.4351                 6.4584
 IR Inten    --     16.6779                 6.9225                22.1772

                     94                     95                     96
                      A                      A                      A
 Frequencies --   3171.5945              3173.0160              3194.2867
 Red. masses --      1.0594                 1.0574                 1.0900
 Frc consts  --      6.2785                 6.2727                 6.5526
 IR Inten    --      8.2125                 9.6736                 0.0982

                     97                     98                     99
                      A                      A                      A
 Frequencies --   3254.1046              3264.3800              3688.1899
 Red. masses --      1.1173                 1.1147                 1.0648
 Frc consts  --      6.9707                 6.9987                 8.5338
 IR Inten    --      0.4029                 3.8666                41.6944

 - Thermochemistry -
 -------------------
 Temperature   298.150 Kelvin.  Pressure   1.00000 Atm.
 Atom     1 has atomic number  6 and mass  12.00000

 Molecular mass:   249.10348 amu.
 Principal axes and moments of inertia in atomic units:
                           1         2         3
     Eigenvalues --  2541.770734909.896905467.02036
           X            0.99919  -0.03985  -0.00617
           Y            0.03974   0.99906  -0.01718
           Z            0.00685   0.01693   0.99983
 This molecule is an asymmetric top.
 Rotational symmetry number  1.
 Warning -- assumption of classical behavior for rotation
           may cause significant error
 Rotational temperatures (Kelvin)      0.03408     0.01764     0.01584
 Rotational constants (GHZ):           0.71003     0.36757     0.33011
 Zero-point vibrational energy     783222.7 (Joules/Mol)
                                  187.19471 (Kcal/Mol)
 Warning -- explicit consideration of  27 degrees of freedom as
           vibrations may cause significant error
 Vibrational temperatures:     15.32    82.50   121.16   138.55   161.87
          (Kelvin)            210.45   232.94   279.95   300.75   324.85
                              340.61   364.00   409.10   428.76   452.80
                              469.61   497.85   521.41   570.13   610.02
                              641.37   680.64   687.36   722.96   742.29
                              781.52   828.92   910.11  1018.04  1078.05
                             1130.98  1146.14  1199.21  1214.61  1309.26
                             1315.93  1326.83  1355.77  1364.51  1386.99
                             1398.65  1464.08  1492.30  1532.35  1549.61
                             1578.77  1580.68  1586.28  1611.12  1616.31
                             1639.51  1651.78  1702.06  1730.12  1756.58
                             1777.74  1781.92  1788.54  1831.15  1864.33
                             1904.40  1911.25  1954.55  1959.62  1989.73
                             2004.75  2037.74  2044.36  2055.34  2081.40
                             2112.12  2132.69  2166.61  2177.72  2179.70
                             2191.63  2197.74  2200.58  2213.15  2248.24
                             4353.58  4357.53  4371.38  4404.93  4413.60
                             4415.03  4438.27  4500.80  4513.27  4521.60
                             4522.16  4548.94  4558.19  4563.22  4565.26
                             4595.87  4681.93  4696.71  5306.48

 Zero-point correction=                           0.298314 (Hartree/Particle)
 Thermal correction to Energy=                    0.315023
 Thermal correction to Enthalpy=                  0.315967
 Thermal correction to Gibbs Free Energy=         0.253681
 Sum of electronic and zero-point Energies=          -1145.992626
 Sum of electronic and thermal Energies=             -1145.975917
 Sum of electronic and thermal Enthalpies=           -1145.974973
 Sum of electronic and thermal Free Energies=        -1146.037259

                     E (Thermal)             CV                S
                      KCal/Mol        Cal/Mol-Kelvin    Cal/Mol-Kelvin
 Total                  197.680             64.572            131.092
 Electronic               0.000              0.000              0.000
 Translational            0.889              2.981             42.439
 Rotational               0.889              2.981             32.589
 Vibrational            195.903             58.610             56.064
 Vibration     1          0.593              1.987              7.887
 Vibration     2          0.596              1.975              4.547
 Vibration     3          0.601              1.960              3.790
 Vibration     4          0.603              1.952              3.528
 Vibration     5          0.607              1.939              3.225
 Vibration     6          0.617              1.907              2.720
 Vibration     7          0.622              1.889              2.527
 Vibration     8          0.635              1.847              2.184
 Vibration     9          0.642              1.827              2.052
 Vibration    10          0.650              1.802              1.912
 Vibration    11          0.656              1.784              1.827
 Vibration    12          0.664              1.758              1.710
 Vibration    13          0.683              1.703              1.507
 Vibration    14          0.691              1.677              1.428
 Vibration    15          0.702              1.646              1.337
 Vibration    16          0.710              1.623              1.278
 Vibration    17          0.724              1.583              1.184
 Vibration    18          0.736              1.550              1.112
 Vibration    19          0.763              1.478              0.977
 Vibration    20          0.786              1.418              0.879
 Vibration    21          0.805              1.370              0.809
 Vibration    22          0.830              1.310              0.729
 Vibration    23          0.834              1.299              0.716
 Vibration    24          0.858              1.244              0.652
 Vibration    25          0.871              1.215              0.619
 Vibration    26          0.898              1.155              0.558
 Vibration    27          0.933              1.083              0.493

 Optimization completed.
    -- Stationary point found.
 Normal termination of Gaussian 16 at Thu Dec 10 22:38:24 2020.

 ----------------------------------------------------------------------
 # B3LYP/6-311++G(d,p) empiricaldispersion=gd3bj scf=xqc pop=npa geom=c
 heck
 ----------------------------------------------------------------------

 ---------------------------------------
 CID_114779135_JID_6311_Energie_neutraal
 ---------------------------------------
 Structure from the checkpoint file:  "JID_6311.chk"
 Charge =  0 Multiplicity = 1

 SCF Done:  E(RB3LYP) =  -1146.54136869     A.U. after   15 cycles
 Normal termination of Gaussian 16 at Thu Dec 10 22:45:33 2020.

 ----------------------------------------------------------------------
 # B3LYP/6-311++G(d,p) empiricaldispersion=gd3bj scf=xqc pop=npa geom=c
 heck
 ----------------------------------------------------------------------

 -------------------------------------
 CID_114779135_JID_6311_Energie_kation
 -------------------------------------
 Structure from the checkpoint file:  "JID_6311.chk"
 Charge =  1 Multiplicity = 2

 SCF Done:  E(UB3LYP) =  -1146.21091489     A.U. after   24 cycles
 Normal termination of Gaussian 16 at Thu Dec 10 23:01:22 2020.
 Gaussian 16:  ES64L-G16RevA.03 25-Dec-2016

 ----------------------------------------------------------------------
 # B3LYP/6-311++G(d,p) empiricaldispersion=gd3bj scf=xqc pop=npa geom=c
 heck
 ----------------------------------------------------------------------

 ------------------------------------
 CID_114779135_JID_6311_Energie_anion
 ------------------------------------
 Structure from the checkpoint file:  "JID_6311.chk"
 Charge = -1 Multiplicity = 2

                         Standard orientation:
 ---------------------------------------------------------------------
 Center     Atomic      Atomic             Coordinates (Angstroms)
 Number     Number       Type             X           Y           Z
 ---------------------------------------------------------------------
      1          6           0        1.763394   -0.381896    1.796855
      2          6           0        1.753617   -1.132274    0.458326
      3          6           0        0.325826   -1.500225    0.033739
      4          7           0       -0.400151   -0.282342   -0.361102
      5          6           0        0.230207    0.319831   -1.547790
      6          6           0        1.673769    0.698021   -1.221421
      7          8           0        2.397059   -0.367120   -0.589160
      8          6           0        1.819863    1.999040   -0.422027
      9          8           0        3.166129    2.186298   -0.034478
     10         16           0       -2.099647   -0.461508   -0.473344
     11          8           0       -2.529679   -0.010916   -1.801992
     12          8           0       -2.444774   -1.803170    0.009157
     13          6           0       -2.707778    0.719572    0.718836
     14          6           0       -2.032491    0.902079    2.047152
     15          6           0       -1.976018    1.998593    1.014091
     16          6           0        2.597479   -2.401970    0.559533
     17          1           0        1.066388    0.456995    1.798963
     18          1           0        2.765742    0.001011    2.010645
     19          1           0        1.479049   -1.061549    2.607728
     20          1           0        0.365154   -2.211394   -0.804104
     21          1           0       -0.198866   -1.982485    0.858327
     22          1           0       -0.328544    1.207292   -1.850525
     23          1           0        0.212446   -0.386848   -2.388550
     24          1           0        2.207038    0.838699   -2.168212
     25          1           0        1.531265    2.843887   -1.058958
     26          1           0        1.150396    1.999316    0.449704
     27          1           0        3.509587    1.288323    0.118339
     28          1           0       -3.793050    0.732034    0.669213
     29          1           0       -2.675698    1.019978    2.913533
     30          1           0       -1.121474    0.342842    2.228590
     31          1           0       -1.025582    2.163739    0.520297
     32          1           0       -2.581490    2.889079    1.150911
     33          1           0        3.620594   -2.147751    0.853129
     34          1           0        2.181452   -3.085329    1.307117
     35          1           0        2.633925   -2.912659   -0.406900
 ---------------------------------------------------------------------

 SCF Done:  E(UB3LYP) =  -1146.53119459     A.U. after   31 cycles

 The electronic state is 2-A.
 Alpha  occ. eigenvalues --  -88.97488 -19.05232 -19.03588 -19.03198 -19.03142
 Alpha  occ. eigenvalues --  -14.26634 -10.15777 -10.15157 -10.13356 -10.13339
 Alpha  occ. eigenvalues --  -10.12878 -10.12541 -10.10339 -10.10118 -10.07801
 Alpha  occ. eigenvalues --  -10.07723  -8.03714  -6.00013  -5.99954  -5.99769
 Alpha  occ. eigenvalues --   -1.03291  -0.97073  -0.93533  -0.92327  -0.85813
 Alpha  occ. eigenvalues --   -0.79653  -0.73887  -0.67729  -0.63462  -0.61925
 Alpha  occ. eigenvalues --   -0.61188  -0.57626  -0.54908  -0.53040  -0.49993
 Alpha  occ. eigenvalues --   -0.46335  -0.44903  -0.43684  -0.42845  -0.42208
 Alpha  occ. eigenvalues --   -0.41196  -0.39552  -0.38414  -0.37404  -0.36569
 Alpha  occ. eigenvalues --   -0.36105  -0.35573  -0.34041  -0.33799  -0.32175
 Alpha  occ. eigenvalues --   -0.30951  -0.30369  -0.29822  -0.29286  -0.28329
 Alpha  occ. eigenvalues --   -0.26875  -0.26682  -0.26345  -0.25635  -0.25111
 Alpha  occ. eigenvalues --   -0.23204  -0.22797  -0.21506  -0.21037  -0.20493
 Alpha  occ. eigenvalues --   -0.19486  -0.17315   0.03959
 Alpha virt. eigenvalues --    0.05598   0.06250   0.07664   0.07895   0.08204
 Alpha virt. eigenvalues --    0.08863   0.09312   0.10039   0.10265   0.11084
 Alpha virt. eigenvalues --    0.11731   0.12199   0.12534   0.12644   0.13072

  Beta  occ. eigenvalues --  -88.97484 -19.05223 -19.03580 -19.03194 -19.03136
  Beta  occ. eigenvalues --  -14.26621 -10.15777 -10.15148 -10.13343 -10.13332
  Beta  occ. eigenvalues --  -10.12866 -10.12529 -10.10312 -10.10085 -10.07766
  Beta  occ. eigenvalues --  -10.07689  -8.03710  -6.00008  -5.99952  -5.99764
  Beta  occ. eigenvalues --   -1.03277  -0.97057  -0.93517  -0.92316  -0.85794
  Beta  occ. eigenvalues --   -0.79623  -0.73867  -0.67700  -0.63430  -0.61891
  Beta  occ. eigenvalues --   -0.61137  -0.57587  -0.54871  -0.52956  -0.49951
  Beta  occ. eigenvalues --   -0.46301  -0.44870  -0.43650  -0.42816  -0.42187
  Beta  occ. eigenvalues --   -0.41119  -0.39528  -0.38388  -0.37386  -0.36555
  Beta  occ. eigenvalues --   -0.36070  -0.35545  -0.34009  -0.33771  -0.32136
  Beta  occ. eigenvalues --   -0.30921  -0.30337  -0.29788  -0.29247  -0.28302
  Beta  occ. eigenvalues --   -0.26843  -0.26662  -0.26323  -0.25614  -0.25081
  Beta  occ. eigenvalues --   -0.23186  -0.22779  -0.21481  -0.21019  -0.20476
  Beta  occ. eigenvalues --   -0.19469  -0.17295
  Beta virt. eigenvalues --    0.06004   0.06822   0.07052   0.08014   0.08622
  Beta virt. eigenvalues --    0.08672   0.09341   0.09598   0.10195   0.10835
  Beta virt. eigenvalues --    0.11451   0.11907   0.12393   0.12729   0.12890

 Mulliken charges and spin densities:
               1          2
     1  C    0.776163  -1.142394
     2  C   -2.976385   2.691753
     3  C    0.733397  -1.437554
     4  N   -0.038877   0.040982
     5  C   -0.280455  -0.368300
     6  C   -0.167344   0.481417
     7  O   -0.057194  -0.036709
     8  C    0.060216  -0.588583
     9  O   -0.203722   0.006361
    10  S    0.904951  -0.573330
    11  O   -0.115583  -0.000122
    12  O   -0.134485   0.008209
    13  C   -1.075251   0.878531
    14  C    0.863823  -1.157302
    15  C    1.257961  -1.613155
    16  C    1.066998  -1.476149
    17  H    0.534653  -0.459140
    18  H   -0.035121   0.199515
    19  H   -0.222077   0.400910
    20  H    0.143588   0.074378
    21  H    0.176615   0.035206
    22  H    0.083312   0.105686
    23  H    0.116520   0.102277
    24  H   -0.100667   0.335704
    25  H   -0.042857   0.211020
    26  H    0.053214   0.151281
    27  H    0.220706   0.027618
    28  H   -0.292210   0.599788
    29  H   -0.713629   0.921519
    30  H   -0.484841   0.683765
    31  H    0.048715   0.109621
    32  H   -0.557927   0.758849
    33  H   -0.241386   0.408848
    34  H   -0.143732   0.303438
    35  H   -0.157087   0.316060
 Sum of Mulliken charges =  -1.00000   1.00000

 Dipole moment (field-independent basis, Debye):
    X=              2.7309    Y=             -1.0999    Z=             -4.2392  Tot=              5.1613
 Quadrupole moment (field-independent basis, Debye-Ang):
   XX=           -182.5479   YY=           -159.8924   ZZ=           -154.9071
   XY=              7.5792   XZ=              6.1952   YZ=             -4.4027

 Summary of Natural Population Analysis:

                                       Natural Population
                Natural  -----------------------------------------------
    Atom  No    Charge         Core      Valence    Rydberg      Total
 -----------------------------------------------------------------------
      C    1   -0.30181      0.99960     2.29443    0.00778     3.30181
      C    2    0.13043      0.99951     1.85312    0.01694     2.86957
      C    3   -0.10040      0.99953     2.08810    0.01277     3.10040
      N    4   -0.38176      0.99972     2.86782    0.01422     3.88176
      C    5   -0.10044      0.99958     2.08916    0.01170     3.10044
      C    6    0.05101      0.99952     1.93393    0.01554     2.94899
      O    7   -0.31965      0.99987     3.30876    0.01103     4.31965
      C    8   -0.01965      0.99957     2.00878    0.01131     3.01965
      O    9   -0.36926      0.99990     3.36285    0.00651     4.36926
      S   10    1.10673      4.99920     1.79589    0.09818     6.89327
      O   11   -0.46223      0.99991     3.45733    0.00499     4.46223
      O   12   -0.45970      0.99991     3.45473    0.00507     4.45970
      C   13   -0.22369      0.99949     2.20713    0.01707     3.22369
      C   14   -0.19144      0.99961     2.18063    0.01120     3.19144
      C   15   -0.19263      0.99961     2.18213    0.01089     3.19263
      C   16   -0.28754      0.99960     2.28052    0.00742     3.28754
      H   17    0.10282      0.00000     0.39530    0.00189     0.39718
      H   18    0.10421      0.00000     0.39474    0.00105     0.39579
      H   19    0.10719      0.00000     0.39149    0.00132     0.39281
      H   20    0.09612      0.00000     0.40262    0.00126     0.40388
      H   21    0.11931      0.00000     0.37939    0.00130     0.38069
      H   22    0.11478      0.00000     0.38416    0.00105     0.38522
      H   23    0.09861      0.00000     0.40029    0.00109     0.40139
      H   24    0.09715      0.00000     0.40164    0.00121     0.40285
      H   25    0.08690      0.00000     0.41178    0.00132     0.41310
      H   26    0.07861      0.00000     0.41950    0.00189     0.42139
      H   27    0.23424      0.00000     0.26230    0.00346     0.26576
      H   28    0.12523      0.00000     0.37352    0.00125     0.37477
      H   29    0.11322      0.00000     0.38355    0.00323     0.38678
      H   30    0.10989      0.00000     0.38827    0.00184     0.39011
      H   31    0.10675      0.00000     0.39120    0.00205     0.39325
      H   32    0.11229      0.00000     0.38530    0.00240     0.38771
      H   33    0.10588      0.00000     0.39299    0.00113     0.39412
      H   34    0.10431      0.00000     0.39447    0.00123     0.39569
      H   35    0.10451      0.00000     0.39432    0.00117     0.39549
 =======================================================================
   * Total *   -0.00000     19.99411    46.71213    0.29376    67.00000

 Normal termination of Gaussian 16 at Thu Dec 10 23:21:19 2020.
