 Gaussian 16, Revision A.03,

 -----------------------------------------------------------
 # opt freq B3LYP/6-31G(d) empiricaldispersion=gd3bj scf=xqc
 -----------------------------------------------------------

 -------------------------------
 CID_115012812_JID_2547_neutraal
 -------------------------------
 Symbolic Z-matrix:
 Charge =  0 Multiplicity = 1

 SCF Done:  E(RB3LYP) =  -549.780851876     A.U. after   15 cycles
 SCF Done:  E(RB3LYP) =  -549.785088636     A.U. after   12 cycles
 SCF Done:  E(RB3LYP) =  -549.785441255     A.U. after   11 cycles
 SCF Done:  E(RB3LYP) =  -549.785492732     A.U. after   10 cycles
 SCF Done:  E(RB3LYP) =  -549.785510579     A.U. after   10 cycles
 SCF Done:  E(RB3LYP) =  -549.785519949     A.U. after   10 cycles
 SCF Done:  E(RB3LYP) =  -549.785523914     A.U. after    9 cycles
 SCF Done:  E(RB3LYP) =  -549.785525423     A.U. after    9 cycles
 SCF Done:  E(RB3LYP) =  -549.785525676     A.U. after    7 cycles
 Optimization completed.
    -- Stationary point found.
 Normal termination of Gaussian 16 at Wed Dec  9 17:31:33 2020.

 --------------------------------------------------------------------
 #N Geom=AllCheck Guess=TCheck SCRF=Check GenChk RB3LYP/6-31G(d) Freq
 --------------------------------------------------------------------

 Structure from the checkpoint file:  "JID_2547.chk"
 -------------------------------
 CID_115012812_JID_2547_neutraal
 -------------------------------
 Charge =  0 Multiplicity = 1

 SCF Done:  E(RB3LYP) =  -549.785525676     A.U. after    1 cycles

  Exact polarizability: 154.989   4.887 101.835  -5.135   3.976  52.322
 Approx polarizability: 235.208  13.655 184.597 -13.726  10.547  79.820

                      1                      2                      3
                      A                      A                      A
 Frequencies --     84.0069                99.2721               160.9374
 Red. masses --      2.7983                 4.3156                 4.6848
 Frc consts  --      0.0116                 0.0251                 0.0715
 IR Inten    --      0.7311                 0.4387                 3.3764

                      4                      5                      6
                      A                      A                      A
 Frequencies --    210.5492               235.4752               272.4110
 Red. masses --      1.1640                 3.4194                 1.1771
 Frc consts  --      0.0304                 0.1117                 0.0515
 IR Inten    --      1.1557                 1.0591                20.6770

                      7                      8                      9
                      A                      A                      A
 Frequencies --    335.0035               344.7283               361.3454
 Red. masses --      3.9046                 2.8350                 2.6724
 Frc consts  --      0.2582                 0.1985                 0.2056
 IR Inten    --      2.0686                 0.8163                 6.5257

                     10                     11                     12
                      A                      A                      A
 Frequencies --    400.3666               460.6864               484.2419
 Red. masses --      5.8795                 4.6102                 6.7117
 Frc consts  --      0.5553                 0.5765                 0.9273
 IR Inten    --      2.0721                 5.9513                 2.0557

                     13                     14                     15
                      A                      A                      A
 Frequencies --    507.9456               596.9982               636.3941
 Red. masses --      3.9426                 3.0017                 3.7159
 Frc consts  --      0.5993                 0.6303                 0.8867
 IR Inten    --      7.3778                44.5046                34.8511

                     16                     17                     18
                      A                      A                      A
 Frequencies --    665.8438               730.4123               747.4833
 Red. masses --      1.5705                 7.3061                 4.8448
 Frc consts  --      0.4102                 2.2965                 1.5949
 IR Inten    --    254.7921                 5.1790                15.7083

                     19                     20                     21
                      A                      A                      A
 Frequencies --    777.8605               780.5409               810.0682
 Red. masses --      5.5039                 5.9535                 1.3450
 Frc consts  --      1.9621                 2.1370                 0.5200
 IR Inten    --      2.2756                 1.4530                 0.1983

                     22                     23                     24
                      A                      A                      A
 Frequencies --    858.0872               874.3310               885.0764
 Red. masses --      1.4743                 3.3231                 1.4798
 Frc consts  --      0.6396                 1.4967                 0.6830
 IR Inten    --      2.3931                12.5392                32.4031

                     25                     26                     27
                      A                      A                      A
 Frequencies --    937.6377               980.1185              1074.9450
 Red. masses --     11.0335                 2.3212                 2.0419
 Frc consts  --      5.7152                 1.3138                 1.3902
 IR Inten    --      7.7684                 3.6158                27.6685

                     28                     29                     30
                      A                      A                      A
 Frequencies --   1096.0760              1100.3632              1117.3711
 Red. masses --      1.7179                 4.1331                 1.7851
 Frc consts  --      1.2160                 2.9485                 1.3131
 IR Inten    --      2.1918                 6.6335                33.7514

                     31                     32                     33
                      A                      A                      A
 Frequencies --   1152.7643              1230.3512              1243.0548
 Red. masses --      2.6438                 1.8765                 2.2626
 Frc consts  --      2.0700                 1.6736                 2.0598
 IR Inten    --     41.3095                70.8963                20.0055

                     34                     35                     36
                      A                      A                      A
 Frequencies --   1296.8392              1336.5981              1351.4733
 Red. masses --      1.4859                 1.9684                 2.9800
 Frc consts  --      1.4724                 2.0718                 3.2068
 IR Inten    --      5.1440                 1.4396                 8.4655

                     37                     38                     39
                      A                      A                      A
 Frequencies --   1371.0235              1393.6605              1435.0704
 Red. masses --      1.6866                 4.2754                 1.2606
 Frc consts  --      1.8679                 4.8926                 1.5296
 IR Inten    --     15.4861                12.0554                 4.7171

                     40                     41                     42
                      A                      A                      A
 Frequencies --   1459.5452              1508.3253              1520.7927
 Red. masses --      3.7016                 1.6916                 1.1742
 Frc consts  --      4.6460                 2.2675                 1.6001
 IR Inten    --    133.6803                 4.2998                 8.3525

                     43                     44                     45
                      A                      A                      A
 Frequencies --   1530.6043              1540.0124              1562.2080
 Red. masses --      1.4347                 1.1777                 6.1385
 Frc consts  --      1.9803                 1.6457                 8.8266
 IR Inten    --      1.1201                 4.3099                77.5563

                     46                     47                     48
                      A                      A                      A
 Frequencies --   1644.8546              1670.6893              1699.9737
 Red. masses --      8.8588                 6.0245                 1.1911
 Frc consts  --     14.1215                 9.9075                 2.0281
 IR Inten    --     11.4537                 0.7659                71.2420

                     49                     50                     51
                      A                      A                      A
 Frequencies --   3044.5679              3052.8347              3101.4356
 Red. masses --      1.0384                 1.0668                 1.0966
 Frc consts  --      5.6710                 5.8578                 6.2150
 IR Inten    --     31.4830                22.4109                19.1874

                     52                     53                     54
                      A                      A                      A
 Frequencies --   3122.2299              3132.9034              3203.4722
 Red. masses --      1.0985                 1.1034                 1.0918
 Frc consts  --      6.3090                 6.3807                 6.6017
 IR Inten    --     35.3408                25.3736                 8.6812

                     55                     56                     57
                      A                      A                      A
 Frequencies --   3289.6341              3555.5997              3653.0398
 Red. masses --      1.0984                 1.0487                 1.0969
 Frc consts  --      7.0032                 7.8114                 8.6242
 IR Inten    --      0.2792                10.1711                12.2526

 - Thermochemistry -
 -------------------
 Temperature   298.150 Kelvin.  Pressure   1.00000 Atm.
 Atom     1 has atomic number  6 and mass  12.00000

 Molecular mass:   163.07456 amu.
 Principal axes and moments of inertia in atomic units:
                           1         2         3
     Eigenvalues --   883.414362652.851373373.73783
           X            0.99990  -0.01216   0.00693
           Y            0.01218   0.99992  -0.00248
           Z           -0.00690   0.00256   0.99997
 This molecule is an asymmetric top.
 Rotational symmetry number  1.
 Warning -- assumption of classical behavior for rotation
           may cause significant error
 Rotational temperatures (Kelvin)      0.09804     0.03265     0.02567
 Rotational constants (GHZ):           2.04292     0.68030     0.53494
 Zero-point vibrational energy     441004.1 (Joules/Mol)
                                  105.40252 (Kcal/Mol)
 Warning -- explicit consideration of  14 degrees of freedom as
           vibrations may cause significant error
 Vibrational temperatures:    120.87   142.83   231.55   302.93   338.80
          (Kelvin)            391.94   482.00   495.99   519.90   576.04
                              662.83   696.72   730.82   858.95   915.63
                              958.00  1050.90  1075.46  1119.17  1123.02
                             1165.51  1234.60  1257.97  1273.43  1349.05
                             1410.17  1546.61  1577.01  1583.18  1607.65
                             1658.57  1770.20  1788.48  1865.86  1923.07
                             1944.47  1972.60  2005.17  2064.75  2099.96
                             2170.14  2188.08  2202.20  2215.73  2247.67
                             2366.58  2403.75  2445.88  4380.45  4392.35
                             4462.27  4492.19  4507.55  4609.08  4733.05
                             5115.71  5255.91

 Zero-point correction=                           0.167970 (Hartree/Particle)
 Thermal correction to Energy=                    0.177922
 Thermal correction to Enthalpy=                  0.178867
 Thermal correction to Gibbs Free Energy=         0.132716
 Sum of electronic and zero-point Energies=           -549.617556
 Sum of electronic and thermal Energies=              -549.607603
 Sum of electronic and thermal Enthalpies=            -549.606659
 Sum of electronic and thermal Free Energies=         -549.652809

                     E (Thermal)             CV                S
                      KCal/Mol        Cal/Mol-Kelvin    Cal/Mol-Kelvin
 Total                  111.648             39.041             97.132
 Electronic               0.000              0.000              0.000
 Translational            0.889              2.981             41.176
 Rotational               0.889              2.981             30.448
 Vibrational            109.871             33.079             25.508
 Vibration     1          0.601              1.960              3.795
 Vibration     2          0.604              1.950              3.469
 Vibration     3          0.622              1.890              2.539
 Vibration     4          0.643              1.825              2.039
 Vibration     5          0.655              1.787              1.837
 Vibration     6          0.675              1.724              1.581
 Vibration     7          0.716              1.606              1.236
 Vibration     8          0.723              1.586              1.190
 Vibration     9          0.736              1.552              1.116
 Vibration    10          0.766              1.469              0.961
 Vibration    11          0.819              1.337              0.764
 Vibration    12          0.840              1.285              0.699
 Vibration    13          0.863              1.232              0.639
 Vibration    14          0.955              1.038              0.455

 Optimization completed.
    -- Stationary point found.
 Normal termination of Gaussian 16 at Wed Dec  9 17:36:03 2020.

 ----------------------------------------------------------------------
 # B3LYP/6-311++G(d,p) empiricaldispersion=gd3bj scf=xqc pop=npa geom=c
 heck
 ----------------------------------------------------------------------

 ---------------------------------------
 CID_115012812_JID_2547_Energie_neutraal
 ---------------------------------------
 Structure from the checkpoint file:  "JID_2547.chk"
 Charge =  0 Multiplicity = 1

 SCF Done:  E(RB3LYP) =  -549.937236981     A.U. after   15 cycles
 Normal termination of Gaussian 16 at Wed Dec  9 17:38:13 2020.

 ----------------------------------------------------------------------
 # B3LYP/6-311++G(d,p) empiricaldispersion=gd3bj scf=xqc pop=npa geom=c
 heck
 ----------------------------------------------------------------------

 -------------------------------------
 CID_115012812_JID_2547_Energie_kation
 -------------------------------------
 Structure from the checkpoint file:  "JID_2547.chk"
 Charge =  1 Multiplicity = 2

 SCF Done:  E(UB3LYP) =  -549.643219507     A.U. after   20 cycles
 Normal termination of Gaussian 16 at Wed Dec  9 17:41:48 2020.
 Gaussian 16:  ES64L-G16RevA.03 25-Dec-2016

 ----------------------------------------------------------------------
 # B3LYP/6-311++G(d,p) empiricaldispersion=gd3bj scf=xqc pop=npa geom=c
 heck
 ----------------------------------------------------------------------

 ------------------------------------
 CID_115012812_JID_2547_Energie_anion
 ------------------------------------
 Structure from the checkpoint file:  "JID_2547.chk"
 Charge = -1 Multiplicity = 2

                         Standard orientation:
 ---------------------------------------------------------------------
 Center     Atomic      Atomic             Coordinates (Angstroms)
 Number     Number       Type             X           Y           Z
 ---------------------------------------------------------------------
      1          6           0        3.188318   -1.171028    0.801817
      2          6           0        2.451110   -0.910941   -0.524950
      3          6           0        1.076215   -0.325305   -0.319044
      4          7           0        0.051353   -1.195626   -0.306496
      5          6           0       -1.130218   -0.659232   -0.111331
      6          6           0       -1.438137    0.690991    0.082862
      7          6           0       -0.383554    1.598239    0.085061
      8          6           0        0.901874    1.076975   -0.117794
      9          7           0        2.009378    1.933616   -0.193863
     10          7           0       -2.819215    0.825943    0.249274
     11          6           0       -3.252883   -0.390452    0.150220
     12          8           0       -2.318981   -1.363494   -0.067949
     13          1           0        3.318530   -0.252908    1.388679
     14          1           0        4.181345   -1.596754    0.621842
     15          1           0        2.618537   -1.873468    1.418277
     16          1           0        3.047134   -0.248398   -1.165440
     17          1           0        2.330050   -1.857163   -1.059408
     18          1           0       -0.546813    2.661459    0.235564
     19          1           0        1.840448    2.853983    0.193933
     20          1           0        2.872463    1.547718    0.165838
     21          1           0       -4.276795   -0.729537    0.220857
 ---------------------------------------------------------------------

 SCF Done:  E(UB3LYP) =  -549.933712364     A.U. after   31 cycles

 The electronic state is 2-A.
 Alpha  occ. eigenvalues --  -19.06063 -14.19801 -14.18247 -14.16618 -10.12131
 Alpha  occ. eigenvalues --  -10.11346 -10.08442 -10.06439 -10.06275 -10.04400
 Alpha  occ. eigenvalues --  -10.04189 -10.03924  -0.99695  -0.81813  -0.79510
 Alpha  occ. eigenvalues --   -0.78577  -0.66343  -0.64645  -0.60322  -0.53736
 Alpha  occ. eigenvalues --   -0.50391  -0.47955  -0.46270  -0.42306  -0.39926
 Alpha  occ. eigenvalues --   -0.36201  -0.35711  -0.34986  -0.33051  -0.31040
 Alpha  occ. eigenvalues --   -0.29622  -0.29265  -0.27017  -0.26367  -0.24252
 Alpha  occ. eigenvalues --   -0.22851  -0.22466  -0.21230  -0.19551  -0.18183
 Alpha  occ. eigenvalues --   -0.13030  -0.12467  -0.08459   0.04937
 Alpha virt. eigenvalues --    0.07221   0.08506   0.09033   0.10445   0.10748
 Alpha virt. eigenvalues --    0.12033   0.12602   0.12738   0.13933   0.14635
 Alpha virt. eigenvalues --    0.14989   0.15140   0.15876   0.16451   0.17282

  Beta  occ. eigenvalues --  -19.06013 -14.19782 -14.18264 -14.16350 -10.11830
  Beta  occ. eigenvalues --  -10.11405 -10.08515 -10.06358 -10.06048 -10.04414
  Beta  occ. eigenvalues --  -10.04116 -10.03686  -0.99545  -0.81509  -0.79341
  Beta  occ. eigenvalues --   -0.78432  -0.66102  -0.64330  -0.60076  -0.53344
  Beta  occ. eigenvalues --   -0.50322  -0.47735  -0.46054  -0.42218  -0.39763
  Beta  occ. eigenvalues --   -0.36037  -0.35556  -0.34455  -0.32909  -0.30870
  Beta  occ. eigenvalues --   -0.29476  -0.29101  -0.26652  -0.26229  -0.24025
  Beta  occ. eigenvalues --   -0.22676  -0.22325  -0.20518  -0.19232  -0.18113
  Beta  occ. eigenvalues --   -0.12776  -0.11177  -0.07733
  Beta virt. eigenvalues --    0.07708   0.08886   0.08993   0.09871   0.10820
  Beta virt. eigenvalues --    0.11009   0.12345   0.12905   0.13362   0.14025
  Beta virt. eigenvalues --    0.14731   0.15202   0.15372   0.15953   0.16844

 Mulliken charges and spin densities:
               1          2
     1  C    0.836100  -1.321606
     2  C   -0.617920   0.192604
     3  C   -0.392193   0.619531
     4  N   -0.159613   0.123764
     5  C   -0.187767  -0.016970
     6  C    0.207011  -0.222471
     7  C    0.104291  -0.157178
     8  C   -0.051160  -0.287299
     9  N   -0.357679   0.021196
    10  N   -0.184187  -0.022375
    11  C    0.275966   0.239515
    12  O   -0.085621  -0.000733
    13  H   -0.123384   0.227222
    14  H   -0.595148   0.731672
    15  H    0.105904   0.035962
    16  H   -0.116124   0.277590
    17  H    0.050585   0.112387
    18  H    0.069203   0.042718
    19  H    0.059618   0.167387
    20  H   -0.015311   0.253529
    21  H    0.177430  -0.016444
 Sum of Mulliken charges =  -1.00000   1.00000

 Dipole moment (field-independent basis, Debye):
    X=             -3.7900    Y=              1.0241    Z=              0.4545  Tot=              3.9522
 Quadrupole moment (field-independent basis, Debye-Ang):
   XX=           -127.1286   YY=            -94.3796   ZZ=            -85.1804
   XY=              8.3720   XZ=             -0.3808   YZ=              1.4509

 Summary of Natural Population Analysis:

                                       Natural Population
                Natural  -----------------------------------------------
    Atom  No    Charge         Core      Valence    Rydberg      Total
 -----------------------------------------------------------------------
      C    1   -0.27870      0.99966     2.27409    0.00495     3.27870
      C    2   -0.21267      0.99961     2.20154    0.01152     3.21267
      C    3    0.12544      0.99952     1.85961    0.01543     2.87456
      N    4   -0.21102      0.99962     2.70167    0.00973     3.71102
      C    5    0.21981      0.99936     1.76389    0.01694     2.78019
      C    6    0.03376      0.99943     1.95396    0.01285     2.96624
      C    7   -0.06994      0.99950     2.06237    0.00807     3.06994
      C    8    0.04898      0.99946     1.93994    0.01162     2.95102
      N    9   -0.40527      0.99972     2.89509    0.01046     3.90527
      N   10   -0.26757      0.99971     2.75623    0.01164     3.76757
      C   11    0.23826      0.99966     1.74329    0.01878     2.76174
      O   12   -0.24401      0.99987     3.23670    0.00744     4.24401
      H   13    0.09069      0.00000     0.40802    0.00129     0.40931
      H   14    0.09720      0.00000     0.40007    0.00272     0.40280
      H   15    0.09793      0.00000     0.40093    0.00114     0.40207
      H   16    0.09858      0.00000     0.39978    0.00164     0.40142
      H   17    0.10492      0.00000     0.39335    0.00173     0.39508
      H   18    0.09194      0.00000     0.40578    0.00227     0.40806
      H   19    0.17895      0.00000     0.31951    0.00153     0.32105
      H   20    0.18630      0.00000     0.31156    0.00214     0.31370
      H   21    0.07641      0.00000     0.42258    0.00100     0.42359
 =======================================================================
   * Total *    0.00000     11.99511    30.84997    0.15491    43.00000

 Normal termination of Gaussian 16 at Wed Dec  9 17:48:02 2020.
