 Gaussian 16, Revision A.03,

 -----------------------------------------------------------
 # opt freq B3LYP/6-31G(d) empiricaldispersion=gd3bj scf=xqc
 -----------------------------------------------------------

 ------------------------------
 CID_64949225_JID_8204_neutraal
 ------------------------------
 Symbolic Z-matrix:
 Charge =  0 Multiplicity = 1

 SCF Done:  E(RB3LYP) =  -1167.92898064     A.U. after   14 cycles
 SCF Done:  E(RB3LYP) =  -1167.93740543     A.U. after   12 cycles
 SCF Done:  E(RB3LYP) =  -1167.93784790     A.U. after   12 cycles
 SCF Done:  E(RB3LYP) =  -1167.93914829     A.U. after   12 cycles
 SCF Done:  E(RB3LYP) =  -1167.93935012     A.U. after   12 cycles
 SCF Done:  E(RB3LYP) =  -1167.93993163     A.U. after   11 cycles
 SCF Done:  E(RB3LYP) =  -1167.94008584     A.U. after   11 cycles
 SCF Done:  E(RB3LYP) =  -1167.94016099     A.U. after   10 cycles
 SCF Done:  E(RB3LYP) =  -1167.94021652     A.U. after   10 cycles
 SCF Done:  E(RB3LYP) =  -1167.94027033     A.U. after   11 cycles
 SCF Done:  E(RB3LYP) =  -1167.94030220     A.U. after   10 cycles
 SCF Done:  E(RB3LYP) =  -1167.94031604     A.U. after   10 cycles
 SCF Done:  E(RB3LYP) =  -1167.94031994     A.U. after    9 cycles
 SCF Done:  E(RB3LYP) =  -1167.94032096     A.U. after    8 cycles
 SCF Done:  E(RB3LYP) =  -1167.94032113     A.U. after    7 cycles
 SCF Done:  E(RB3LYP) =  -1167.94032121     A.U. after    6 cycles
 Optimization completed.
    -- Stationary point found.
 Normal termination of Gaussian 16 at Fri Dec 11 19:40:57 2020.

 --------------------------------------------------------------------
 #N Geom=AllCheck Guess=TCheck SCRF=Check GenChk RB3LYP/6-31G(d) Freq
 --------------------------------------------------------------------

 Structure from the checkpoint file:  "JID_8204.chk"
 ------------------------------
 CID_64949225_JID_8204_neutraal
 ------------------------------
 Charge =  0 Multiplicity = 1

 SCF Done:  E(RB3LYP) =  -1167.94032121     A.U. after    1 cycles

  Exact polarizability: 182.507   3.413 161.904  -0.355  -1.470 142.188
 Approx polarizability: 240.146  -1.218 234.523   2.009   0.076 234.377

                      1                      2                      3
                      A                      A                      A
 Frequencies --     26.2658                44.5673                89.3117
 Red. masses --      3.9155                 3.7715                 3.5102
 Frc consts  --      0.0016                 0.0044                 0.0165
 IR Inten    --      1.1149                 1.4655                 2.1943

                      4                      5                      6
                      A                      A                      A
 Frequencies --     91.3751                99.3627               116.8447
 Red. masses --      2.9719                 3.7151                 4.0422
 Frc consts  --      0.0146                 0.0216                 0.0325
 IR Inten    --      0.1201                 2.1648                 1.7054

                      7                      8                      9
                      A                      A                      A
 Frequencies --    153.4619               179.2948               194.7501
 Red. masses --      3.9467                 2.8322                 2.8108
 Frc consts  --      0.0548                 0.0536                 0.0628
 IR Inten    --      0.9411                 0.4774                 1.0007

                     10                     11                     12
                      A                      A                      A
 Frequencies --    217.8846               245.5526               259.5060
 Red. masses --      3.2645                 3.9353                 2.6966
 Frc consts  --      0.0913                 0.1398                 0.1070
 IR Inten    --      1.4158                 2.2468                 2.8316

                     13                     14                     15
                      A                      A                      A
 Frequencies --    285.7853               292.9965               307.4201
 Red. masses --      2.6611                 2.6969                 2.5992
 Frc consts  --      0.1281                 0.1364                 0.1447
 IR Inten    --      1.0715                 4.1694                 1.4986

                     16                     17                     18
                      A                      A                      A
 Frequencies --    336.3042               358.7487               370.5629
 Red. masses --      3.1545                 2.7604                 2.8242
 Frc consts  --      0.2102                 0.2093                 0.2285
 IR Inten    --      1.1511                 4.5382                 0.3100

                     19                     20                     21
                      A                      A                      A
 Frequencies --    414.4754               421.4417               445.0128
 Red. masses --      3.8915                 3.2157                 3.1973
 Frc consts  --      0.3939                 0.3365                 0.3731
 IR Inten    --     19.4974                10.0915                15.5247

                     22                     23                     24
                      A                      A                      A
 Frequencies --    459.7152               470.0949               493.9882
 Red. masses --      2.4148                 2.1354                 2.7155
 Frc consts  --      0.3007                 0.2780                 0.3904
 IR Inten    --      5.8986                 5.0294                 4.7718

                     25                     26                     27
                      A                      A                      A
 Frequencies --    513.7913               583.9059               632.6544
 Red. masses --      6.3113                 2.5541                 4.5369
 Frc consts  --      0.9816                 0.5131                 1.0699
 IR Inten    --     17.3075                 0.5123                15.6505

                     28                     29                     30
                      A                      A                      A
 Frequencies --    655.7590               693.5044               709.1519
 Red. masses --      2.3138                 2.8597                 1.6685
 Frc consts  --      0.5862                 0.8104                 0.4944
 IR Inten    --     16.4845                 6.8911                38.9256

                     31                     32                     33
                      A                      A                      A
 Frequencies --    738.2064               779.3242               787.2033
 Red. masses --      2.0572                 1.8693                 2.3190
 Frc consts  --      0.6605                 0.6689                 0.8467
 IR Inten    --     75.0196                 0.6490                24.3668

                     34                     35                     36
                      A                      A                      A
 Frequencies --    810.9650               822.8559               837.6188
 Red. masses --      1.4770                 2.2542                 1.4443
 Frc consts  --      0.5723                 0.8993                 0.5970
 IR Inten    --      5.7562                11.6757                 6.0416

                     37                     38                     39
                      A                      A                      A
 Frequencies --    846.2814               871.0552               879.6468
 Red. masses --      1.6719                 3.1069                 2.8804
 Frc consts  --      0.7055                 1.3889                 1.3131
 IR Inten    --      1.3234                14.4764                21.7596

                     40                     41                     42
                      A                      A                      A
 Frequencies --    887.9558               918.3307               927.7553
 Red. masses --      2.2267                 2.3865                 2.2005
 Frc consts  --      1.0344                 1.1858                 1.1160
 IR Inten    --     41.4592                10.8514                31.6878

                     43                     44                     45
                      A                      A                      A
 Frequencies --    942.3966               956.1446               968.4627
 Red. masses --      2.0810                 2.4050                 2.3820
 Frc consts  --      1.0889                 1.2954                 1.3163
 IR Inten    --      1.9474                 9.0160                 5.9690

                     46                     47                     48
                      A                      A                      A
 Frequencies --    980.2970              1011.0499              1031.6896
 Red. masses --      2.0934                 2.2813                 2.0639
 Frc consts  --      1.1853                 1.3740                 1.2943
 IR Inten    --      9.1075                 9.0284                 0.4504

                     49                     50                     51
                      A                      A                      A
 Frequencies --   1053.4967              1065.0718              1067.5217
 Red. masses --      2.1540                 1.8712                 1.4255
 Frc consts  --      1.4085                 1.2506                 0.9571
 IR Inten    --      5.7047                11.3661                17.3303

                     52                     53                     54
                      A                      A                      A
 Frequencies --   1090.9673              1097.6634              1103.5849
 Red. masses --      1.4081                 2.6872                 3.2258
 Frc consts  --      0.9874                 1.9076                 2.3147
 IR Inten    --      3.2592                50.2243                54.7858

                     55                     56                     57
                      A                      A                      A
 Frequencies --   1114.7583              1125.8137              1142.8081
 Red. masses --      1.8505                 1.9476                 1.6984
 Frc consts  --      1.3549                 1.4544                 1.3069
 IR Inten    --      7.6501                11.3556                26.5800

                     58                     59                     60
                      A                      A                      A
 Frequencies --   1147.2436              1163.2937              1168.1736
 Red. masses --      2.0933                 1.1800                 1.3575
 Frc consts  --      1.6233                 0.9408                 1.0914
 IR Inten    --     55.0017                 2.2294                 3.5761

                     61                     62                     63
                      A                      A                      A
 Frequencies --   1189.7105              1207.6496              1221.2590
 Red. masses --      1.3745                 3.1985                 1.6422
 Frc consts  --      1.1463                 2.7484                 1.4431
 IR Inten    --      9.6962                 8.7796                10.6705

                     64                     65                     66
                      A                      A                      A
 Frequencies --   1224.7755              1244.3305              1252.7797
 Red. masses --      2.1374                 1.3526                 1.6544
 Frc consts  --      1.8891                 1.2339                 1.5298
 IR Inten    --     19.9067                54.7654                10.5292

                     67                     68                     69
                      A                      A                      A
 Frequencies --   1263.9843              1279.1091              1299.4320
 Red. masses --      1.2351                 2.1079                 1.1831
 Frc consts  --      1.1626                 2.0320                 1.1770
 IR Inten    --      7.4933                55.9623                13.6201

                     70                     71                     72
                      A                      A                      A
 Frequencies --   1313.8569              1319.4258              1326.0110
 Red. masses --      1.4050                 1.2398                 1.4596
 Frc consts  --      1.4290                 1.2717                 1.5120
 IR Inten    --     25.3516                 7.3871                43.2016

                     73                     74                     75
                      A                      A                      A
 Frequencies --   1339.3878              1363.8342              1379.1803
 Red. masses --      1.6970                 1.5956                 1.3694
 Frc consts  --      1.7937                 1.7487                 1.5347
 IR Inten    --     74.6920                31.5453                 3.5991

                     76                     77                     78
                      A                      A                      A
 Frequencies --   1379.6478              1395.1478              1396.1827
 Red. masses --      1.3465                 1.3599                 1.3311
 Frc consts  --      1.5101                 1.5596                 1.5288
 IR Inten    --      2.0664                 4.0217                 1.5380

                     79                     80                     81
                      A                      A                      A
 Frequencies --   1399.5503              1406.8147              1415.4365
 Red. masses --      1.2396                 1.3404                 1.3358
 Frc consts  --      1.4306                 1.5630                 1.5768
 IR Inten    --      2.9557                 6.9415                 1.3454

                     82                     83                     84
                      A                      A                      A
 Frequencies --   1425.1743              1433.1275              1447.6741
 Red. masses --      1.3639                 1.3927                 1.3301
 Frc consts  --      1.6322                 1.6853                 1.6424
 IR Inten    --     26.4155                 9.7720                 2.3815

                     85                     86                     87
                      A                      A                      A
 Frequencies --   1458.5125              1471.0574              1482.4163
 Red. masses --      1.2827                 1.0973                 1.0889
 Frc consts  --      1.6076                 1.3991                 1.4098
 IR Inten    --      7.0747                 8.1277                 7.0241

                     88                     89                     90
                      A                      A                      A
 Frequencies --   1489.7562              1506.1819              1506.9784
 Red. masses --      1.0901                 1.0817                 1.0884
 Frc consts  --      1.4254                 1.4458                 1.4564
 IR Inten    --      0.4249                 1.8824                 6.7605

                     91                     92                     93
                      A                      A                      A
 Frequencies --   1514.9519              1523.1243              1524.8708
 Red. masses --      1.1209                 1.0875                 1.1030
 Frc consts  --      1.5157                 1.4864                 1.5110
 IR Inten    --     22.8537                 4.5240                 7.5429

                     94                     95                     96
                      A                      A                      A
 Frequencies --   1531.7479              1535.7549              1540.8830
 Red. masses --      1.1286                 1.3374                 1.2449
 Frc consts  --      1.5602                 1.8585                 1.7415
 IR Inten    --     14.7949                 3.3447                 1.6372

                     97                     98                     99
                      A                      A                      A
 Frequencies --   2947.2350              2988.6015              3002.8087
 Red. masses --      1.0724                 1.0776                 1.0812
 Frc consts  --      5.4881                 5.6708                 5.7438
 IR Inten    --     51.0716                 9.8586                65.9112

                    100                    101                    102
                      A                      A                      A
 Frequencies --   3027.9855              3035.5349              3045.5629
 Red. masses --      1.0803                 1.0683                 1.0752
 Frc consts  --      5.8360                 5.7998                 5.8758
 IR Inten    --      6.9021                23.0620                25.9561

                    103                    104                    105
                      A                      A                      A
 Frequencies --   3061.2582              3065.9656              3076.4503
 Red. masses --      1.0634                 1.0687                 1.0855
 Frc consts  --      5.8716                 5.9191                 6.0531
 IR Inten    --     72.9236                24.3977                36.9919

                    106                    107                    108
                      A                      A                      A
 Frequencies --   3081.7127              3085.1990              3088.1157
 Red. masses --      1.0609                 1.0613                 1.0977
 Frc consts  --      5.9359                 5.9517                 6.1678
 IR Inten    --      4.9441                15.4578                 4.8847

                    109                    110                    111
                      A                      A                      A
 Frequencies --   3109.4114              3109.7864              3124.7127
 Red. masses --      1.1006                 1.0949                 1.0964
 Frc consts  --      6.2698                 6.2386                 6.3070
 IR Inten    --     32.7789                29.4274                20.3174

                    112                    113                    114
                      A                      A                      A
 Frequencies --   3141.8699              3144.2475              3145.7026
 Red. masses --      1.1043                 1.0993                 1.0626
 Frc consts  --      6.4224                 6.4030                 6.1950
 IR Inten    --      0.3662                 6.7963                18.9471

                    115                    116                    117
                      A                      A                      A
 Frequencies --   3147.8437              3154.2995              3168.1790
 Red. masses --      1.0764                 1.0694                 1.0832
 Frc consts  --      6.2844                 6.2688                 6.4058
 IR Inten    --     12.6683                21.5940                28.3112

                    118                    119                    120
                      A                      A                      A
 Frequencies --   3220.8908              3252.6275              3500.1695
 Red. masses --      1.1166                 1.1126                 1.0739
 Frc consts  --      6.8250                 6.9355                 7.7518
 IR Inten    --     21.0013                 6.3399                 2.1019

 - Thermochemistry -
 -------------------
 Temperature   298.150 Kelvin.  Pressure   1.00000 Atm.
 Atom     1 has atomic number  6 and mass  12.00000

 Molecular mass:   272.15585 amu.
 Principal axes and moments of inertia in atomic units:
                           1         2         3
     Eigenvalues --  2618.420157169.023257981.36376
           X            0.99988   0.01429   0.00589
           Y           -0.01417   0.99967  -0.02127
           Z           -0.00620   0.02119   0.99976
 This molecule is an asymmetric top.
 Rotational symmetry number  1.
 Warning -- assumption of classical behavior for rotation
           may cause significant error
 Rotational temperatures (Kelvin)      0.03308     0.01208     0.01085
 Rotational constants (GHZ):           0.68925     0.25174     0.22612
 Zero-point vibrational energy     982355.5 (Joules/Mol)
                                  234.78860 (Kcal/Mol)
 Warning -- explicit consideration of  26 degrees of freedom as
           vibrations may cause significant error
 Vibrational temperatures:     37.79    64.12   128.50   131.47   142.96
          (Kelvin)            168.11   220.80   257.97   280.20   313.49
                              353.30   373.37   411.18   421.56   442.31
                              483.87   516.16   533.16   596.34   606.36
                              640.27   661.43   676.36   710.74   739.23
                              840.11   910.25   943.49   997.80  1020.31
                             1062.11  1121.27  1132.61  1166.80  1183.91
                             1205.15  1217.61  1253.25  1265.62  1277.57
                             1321.27  1334.83  1355.90  1375.68  1393.40
                             1410.43  1454.68  1484.37  1515.75  1532.40
                             1535.93  1569.66  1579.29  1587.81  1603.89
                             1619.79  1644.25  1650.63  1673.72  1680.74
                             1711.73  1737.54  1757.12  1762.18  1790.31
                             1802.47  1818.59  1840.35  1869.59  1890.35
                             1898.36  1907.83  1927.08  1962.25  1984.33
                             1985.01  2007.31  2008.80  2013.64  2024.09
                             2036.50  2050.51  2061.95  2082.88  2098.47
                             2116.52  2132.87  2143.43  2167.06  2168.21
                             2179.68  2191.44  2193.95  2203.84  2209.61
                             2216.99  4240.41  4299.93  4320.37  4356.60
                             4367.46  4381.89  4404.47  4411.24  4426.33
                             4433.90  4438.91  4443.11  4473.75  4474.29
                             4495.76  4520.45  4523.87  4525.96  4529.05
                             4538.33  4558.30  4634.14  4679.81  5035.96

 Zero-point correction=                           0.374159 (Hartree/Particle)
 Thermal correction to Energy=                    0.391436
 Thermal correction to Enthalpy=                  0.392380
 Thermal correction to Gibbs Free Energy=         0.329214
 Sum of electronic and zero-point Energies=          -1167.566162
 Sum of electronic and thermal Energies=             -1167.548885
 Sum of electronic and thermal Enthalpies=           -1167.547941
 Sum of electronic and thermal Free Energies=        -1167.611107

                     E (Thermal)             CV                S
                      KCal/Mol        Cal/Mol-Kelvin    Cal/Mol-Kelvin
 Total                  245.630             69.285            132.944
 Electronic               0.000              0.000              0.000
 Translational            0.889              2.981             42.702
 Rotational               0.889              2.981             33.371
 Vibrational            243.852             63.323             56.870
 Vibration     1          0.593              1.985              6.093
 Vibration     2          0.595              1.980              5.045
 Vibration     3          0.602              1.957              3.675
 Vibration     4          0.602              1.955              3.630
 Vibration     5          0.604              1.950              3.467
 Vibration     6          0.608              1.935              3.152
 Vibration     7          0.619              1.899              2.629
 Vibration     8          0.629              1.868              2.336
 Vibration     9          0.635              1.847              2.182
 Vibration    10          0.646              1.814              1.977
 Vibration    11          0.660              1.770              1.762
 Vibration    12          0.668              1.747              1.665
 Vibration    13          0.684              1.700              1.499
 Vibration    14          0.688              1.687              1.457
 Vibration    15          0.697              1.660              1.376
 Vibration    16          0.717              1.603              1.230
 Vibration    17          0.734              1.557              1.128
 Vibration    18          0.743              1.533              1.077
 Vibration    19          0.778              1.439              0.911
 Vibration    20          0.784              1.424              0.887
 Vibration    21          0.804              1.372              0.811
 Vibration    22          0.818              1.339              0.767
 Vibration    23          0.827              1.316              0.737
 Vibration    24          0.850              1.263              0.673
 Vibration    25          0.869              1.219              0.625
 Vibration    26          0.941              1.066              0.478

 Optimization completed.
    -- Stationary point found.
 Normal termination of Gaussian 16 at Fri Dec 11 20:05:00 2020.

 ----------------------------------------------------------------------
 # B3LYP/6-311++G(d,p) empiricaldispersion=gd3bj scf=xqc pop=npa geom=c
 heck
 ----------------------------------------------------------------------

 --------------------------------------
 CID_64949225_JID_8204_Energie_neutraal
 --------------------------------------
 Structure from the checkpoint file:  "JID_8204.chk"
 Charge =  0 Multiplicity = 1

 SCF Done:  E(RB3LYP) =  -1168.18286838     A.U. after   14 cycles
 Normal termination of Gaussian 16 at Fri Dec 11 20:15:08 2020.

 ----------------------------------------------------------------------
 # B3LYP/6-311++G(d,p) empiricaldispersion=gd3bj scf=xqc pop=npa geom=c
 heck
 ----------------------------------------------------------------------

 ------------------------------------
 CID_64949225_JID_8204_Energie_kation
 ------------------------------------
 Structure from the checkpoint file:  "JID_8204.chk"
 Charge =  1 Multiplicity = 2

 SCF Done:  E(UB3LYP) =  -1167.90148131     A.U. after   22 cycles
 Normal termination of Gaussian 16 at Fri Dec 11 20:36:06 2020.
 Gaussian 16:  ES64L-G16RevA.03 25-Dec-2016

 ----------------------------------------------------------------------
 # B3LYP/6-311++G(d,p) empiricaldispersion=gd3bj scf=xqc pop=npa geom=c
 heck
 ----------------------------------------------------------------------

 -----------------------------------
 CID_64949225_JID_8204_Energie_anion
 -----------------------------------
 Structure from the checkpoint file:  "JID_8204.chk"
 Charge = -1 Multiplicity = 2

                         Standard orientation:
 ---------------------------------------------------------------------
 Center     Atomic      Atomic             Coordinates (Angstroms)
 Number     Number       Type             X           Y           Z
 ---------------------------------------------------------------------
      1          6           0        1.930488    1.993880    0.287758
      2          6           0        1.069714    1.364997    1.398036
      3          6           0        0.697751   -0.136748    1.302606
      4          6           0        1.903036   -1.031875    0.874192
      5         16           0        2.971864   -0.428041   -0.461974
      6          8           0        4.234267   -1.182859   -0.402310
      7          8           0        2.209753   -0.364192   -1.722417
      8          6           0        3.262951    1.271637    0.085211
      9          7           0       -0.581784   -0.393520    0.641573
     10          6           0       -1.089048   -1.747895    0.889459
     11          6           0       -2.598115   -1.786069    1.147499
     12          6           0       -3.502640   -1.604480   -0.105820
     13          7           0       -2.900578   -1.107796   -1.338619
     14          6           0       -2.147082    0.151513   -1.292884
     15          6           0       -0.707219    0.019475   -0.754956
     16          6           0       -3.010209    1.253687   -0.696712
     17          6           0       -2.989093    1.685585    0.751095
     18          6           0       -2.451522    2.602684   -0.319904
     19          1           0        1.406490    2.023245   -0.670731
     20          1           0        2.142028    3.034486    0.560802
     21          1           0        0.135827    1.925761    1.503573
     22          1           0        1.618165    1.495960    2.340559
     23          1           0        0.516084   -0.445209    2.339223
     24          1           0        1.574174   -2.023321    0.549815
     25          1           0        2.587894   -1.167080    1.717368
     26          1           0        3.854792    1.211426    1.004417
     27          1           0        3.874902    1.727256   -0.698867
     28          1           0       -0.590841   -2.136196    1.784666
     29          1           0       -0.820362   -2.433779    0.064343
     30          1           0       -2.838180   -2.746998    1.622462
     31          1           0       -2.818573   -1.009135    1.886573
     32          1           0       -3.953799   -2.568642   -0.366239
     33          1           0       -4.333187   -0.941153    0.155107
     34          1           0       -2.316370   -1.827118   -1.758568
     35          1           0       -1.996606    0.431336   -2.347279
     36          1           0       -0.214569    0.982956   -0.877506
     37          1           0       -0.174402   -0.675666   -1.424329
     38          1           0       -3.988376    1.278898   -1.173803
     39          1           0       -3.936384    1.939805    1.219634
     40          1           0       -2.267883    1.203716    1.399800
     41          1           0       -1.375907    2.749843   -0.366448
     42          1           0       -3.024440    3.485542   -0.589334
 ---------------------------------------------------------------------

 SCF Done:  E(UB3LYP) =  -1168.17808983     A.U. after   26 cycles

 The electronic state is 2-A.
 Alpha  occ. eigenvalues --  -88.94433 -19.01601 -19.01563 -14.21372 -14.20827
 Alpha  occ. eigenvalues --  -10.12430 -10.11465 -10.11338 -10.11082 -10.10316
 Alpha  occ. eigenvalues --  -10.10295 -10.09575 -10.09250 -10.09151 -10.08593
 Alpha  occ. eigenvalues --  -10.08175 -10.07953 -10.07269  -8.00965  -5.97233
 Alpha  occ. eigenvalues --   -5.97109  -5.97057  -1.00772  -0.90453  -0.84613
 Alpha  occ. eigenvalues --   -0.81394  -0.76820  -0.74067  -0.68876  -0.68265
 Alpha  occ. eigenvalues --   -0.65770  -0.61667  -0.59448  -0.56443  -0.53841
 Alpha  occ. eigenvalues --   -0.52265  -0.51452  -0.48635  -0.46158  -0.45653
 Alpha  occ. eigenvalues --   -0.41791  -0.41720  -0.40743  -0.40354  -0.39339
 Alpha  occ. eigenvalues --   -0.38911  -0.37627  -0.36931  -0.36515  -0.34714
 Alpha  occ. eigenvalues --   -0.34380  -0.34060  -0.32601  -0.32381  -0.31590
 Alpha  occ. eigenvalues --   -0.30894  -0.29440  -0.29277  -0.28495  -0.27755
 Alpha  occ. eigenvalues --   -0.26155  -0.25606  -0.25391  -0.25102  -0.24310
 Alpha  occ. eigenvalues --   -0.23564  -0.23456  -0.22378  -0.20983  -0.20640
 Alpha  occ. eigenvalues --   -0.19965  -0.18604  -0.13682  -0.12331   0.03737
 Alpha virt. eigenvalues --    0.05875   0.06259   0.07004   0.07790   0.08197
 Alpha virt. eigenvalues --    0.08751   0.09197   0.09266   0.10179   0.10439
 Alpha virt. eigenvalues --    0.10701   0.11682   0.12101   0.12219   0.12871

  Beta  occ. eigenvalues --  -88.94433 -19.01591 -19.01561 -14.21371 -14.20822
  Beta  occ. eigenvalues --  -10.12410 -10.11438 -10.11336 -10.11054 -10.10311
  Beta  occ. eigenvalues --  -10.10273 -10.09570 -10.09227 -10.09149 -10.08587
  Beta  occ. eigenvalues --  -10.08143 -10.07946 -10.07257  -8.00964  -5.97232
  Beta  occ. eigenvalues --   -5.97109  -5.97058  -1.00757  -0.90437  -0.84598
  Beta  occ. eigenvalues --   -0.81380  -0.76813  -0.74021  -0.68853  -0.68217
  Beta  occ. eigenvalues --   -0.65717  -0.61640  -0.59422  -0.56400  -0.53798
  Beta  occ. eigenvalues --   -0.52233  -0.51430  -0.48585  -0.46118  -0.45621
  Beta  occ. eigenvalues --   -0.41774  -0.41691  -0.40695  -0.40329  -0.39313
  Beta  occ. eigenvalues --   -0.38881  -0.37605  -0.36902  -0.36491  -0.34686
  Beta  occ. eigenvalues --   -0.34352  -0.34007  -0.32559  -0.32347  -0.31561
  Beta  occ. eigenvalues --   -0.30865  -0.29399  -0.29258  -0.28472  -0.27741
  Beta  occ. eigenvalues --   -0.26121  -0.25586  -0.25359  -0.25055  -0.24275
  Beta  occ. eigenvalues --   -0.23541  -0.23426  -0.22368  -0.20974  -0.20626
  Beta  occ. eigenvalues --   -0.19958  -0.18575  -0.13663  -0.12313
  Beta virt. eigenvalues --    0.05831   0.06563   0.06874   0.07311   0.08343
  Beta virt. eigenvalues --    0.08563   0.09197   0.09300   0.09409   0.10477
  Beta virt. eigenvalues --    0.10748   0.11111   0.12014   0.12228   0.12437

 Mulliken charges and spin densities:
               1          2
     1  C   -0.675521   0.591382
     2  C    0.915119  -1.476549
     3  C    0.115079  -0.017052
     4  C   -0.711421  -0.055698
     5  S    0.931748  -0.476586
     6  O   -0.108576   0.013354
     7  O   -0.198258   0.011417
     8  C    0.158431  -1.022267
     9  N    0.288051   0.074380
    10  C   -0.051850  -0.220031
    11  C    0.207439  -0.398675
    12  C   -0.124893  -0.332878
    13  N   -0.139304  -0.000978
    14  C   -0.154499  -0.082455
    15  C   -0.212594  -0.409045
    16  C   -0.234575   0.017066
    17  C   -0.052393  -0.335916
    18  C   -0.182702  -0.160357
    19  H    0.065108   0.130678
    20  H   -0.736170   0.947168
    21  H    0.327230  -0.151445
    22  H   -0.784081   1.001794
    23  H   -0.338185   0.586503
    24  H    0.129757   0.113164
    25  H   -0.337369   0.638138
    26  H   -0.008411   0.255436
    27  H    0.057079   0.189581
    28  H   -0.513879   0.711752
    29  H    0.134260  -0.021496
    30  H   -0.179896   0.339781
    31  H    0.037103   0.103235
    32  H   -0.002403   0.161904
    33  H    0.149500   0.010270
    34  H    0.192699   0.048398
    35  H    0.139249   0.071325
    36  H    0.265589  -0.319807
    37  H    0.236403   0.026829
    38  H    0.176360   0.037524
    39  H    0.047930   0.107371
    40  H    0.108336   0.059513
    41  H    0.030872   0.098849
    42  H    0.033639   0.134425
 Sum of Mulliken charges =  -1.00000   1.00000

 Dipole moment (field-independent basis, Debye):
    X=             -5.9647    Y=              0.1126    Z=             -5.0954  Tot=              7.8456
 Quadrupole moment (field-independent basis, Debye-Ang):
   XX=           -191.5425   YY=           -165.5273   ZZ=           -174.1860
   XY=             -3.8801   XZ=             -7.1794   YZ=             -3.6183

 Summary of Natural Population Analysis:

                                       Natural Population
                Natural  -----------------------------------------------
    Atom  No    Charge         Core      Valence    Rydberg      Total
 -----------------------------------------------------------------------
      C    1   -0.20165      0.99961     2.19193    0.01011     3.20165
      C    2   -0.19874      0.99959     2.18801    0.01114     3.19874
      C    3   -0.00806      0.99955     1.98925    0.01926     3.00806
      C    4   -0.30353      0.99954     2.29196    0.01203     3.30353
      S    5    1.02180      4.99923     1.88530    0.09367     6.97820
      O    6   -0.47091      0.99991     3.46553    0.00547     4.47091
      O    7   -0.47604      0.99991     3.47045    0.00568     4.47604
      C    8   -0.28849      0.99958     2.27722    0.01169     3.28849
      N    9   -0.29528      0.99969     2.77917    0.01643     3.79528
      C   10   -0.08611      0.99960     2.07422    0.01229     3.08611
      C   11   -0.20405      0.99962     2.19629    0.00815     3.20405
      C   12   -0.09097      0.99963     2.07943    0.01191     3.09097
      N   13   -0.34017      0.99974     2.82961    0.01081     3.84017
      C   14   -0.01076      0.99956     1.99904    0.01216     3.01076
      C   15   -0.09268      0.99957     2.08308    0.01002     3.09268
      C   16   -0.11765      0.99957     2.10801    0.01007     3.11765
      C   17   -0.20333      0.99961     2.19518    0.00854     3.20333
      C   18   -0.19927      0.99962     2.19277    0.00688     3.19927
      H   19    0.10098      0.00000     0.39736    0.00166     0.39902
      H   20    0.11096      0.00000     0.38693    0.00211     0.38904
      H   21    0.10961      0.00000     0.38844    0.00195     0.39039
      H   22    0.10961      0.00000     0.38578    0.00461     0.39039
      H   23    0.11017      0.00000     0.38625    0.00358     0.38983
      H   24    0.12015      0.00000     0.37875    0.00110     0.37985
      H   25    0.12284      0.00000     0.37532    0.00184     0.37716
      H   26    0.11724      0.00000     0.38092    0.00184     0.38276
      H   27    0.11742      0.00000     0.38159    0.00098     0.38258
      H   28    0.10286      0.00000     0.39521    0.00193     0.39714
      H   29    0.08044      0.00000     0.41811    0.00145     0.41956
      H   30    0.09792      0.00000     0.40089    0.00119     0.40208
      H   31    0.09986      0.00000     0.39858    0.00156     0.40014
      H   32    0.09244      0.00000     0.40675    0.00081     0.40756
      H   33    0.09232      0.00000     0.40665    0.00104     0.40768
      H   34    0.17198      0.00000     0.32569    0.00233     0.32802
      H   35    0.09480      0.00000     0.40378    0.00142     0.40520
      H   36    0.09949      0.00000     0.39869    0.00182     0.40051
      H   37    0.09552      0.00000     0.40298    0.00151     0.40448
      H   38    0.10470      0.00000     0.39429    0.00101     0.39530
      H   39    0.09791      0.00000     0.40132    0.00077     0.40209
      H   40    0.11582      0.00000     0.38257    0.00161     0.38418
      H   41    0.10148      0.00000     0.39747    0.00105     0.39852
      H   42    0.09940      0.00000     0.39988    0.00072     0.40060
 =======================================================================
   * Total *    0.00000     21.99313    51.69064    0.31623    74.00000

 Normal termination of Gaussian 16 at Fri Dec 11 21:01:19 2020.
