 Gaussian 16, Revision A.03,

 -----------------------------------------------------------
 # opt freq B3LYP/6-31G(d) empiricaldispersion=gd3bj scf=xqc
 -----------------------------------------------------------

 -------------------------------
 CID_119334187_JID_7939_neutraal
 -------------------------------
 Symbolic Z-matrix:
 Charge =  0 Multiplicity = 1

 SCF Done:  E(RB3LYP) =  -785.935277967     A.U. after   14 cycles
 SCF Done:  E(RB3LYP) =  -785.935867502     A.U. after   13 cycles
 SCF Done:  E(RB3LYP) =  -785.939622201     A.U. after   13 cycles
 SCF Done:  E(RB3LYP) =  -785.940168028     A.U. after   13 cycles
 SCF Done:  E(RB3LYP) =  -785.939693681     A.U. after   13 cycles
 SCF Done:  E(RB3LYP) =  -785.942235459     A.U. after   12 cycles
 SCF Done:  E(RB3LYP) =  -785.941791966     A.U. after   13 cycles
 SCF Done:  E(RB3LYP) =  -785.943184340     A.U. after   12 cycles
 SCF Done:  E(RB3LYP) =  -785.943341446     A.U. after   11 cycles
 SCF Done:  E(RB3LYP) =  -785.943542483     A.U. after   11 cycles
 SCF Done:  E(RB3LYP) =  -785.943591245     A.U. after   10 cycles
 SCF Done:  E(RB3LYP) =  -785.943594486     A.U. after    9 cycles
 SCF Done:  E(RB3LYP) =  -785.943595939     A.U. after    8 cycles
 SCF Done:  E(RB3LYP) =  -785.943596949     A.U. after    9 cycles
 SCF Done:  E(RB3LYP) =  -785.943597068     A.U. after    7 cycles
 SCF Done:  E(RB3LYP) =  -785.943597128     A.U. after    7 cycles
 Optimization completed.
    -- Stationary point found.
 Normal termination of Gaussian 16 at Fri Dec 11 13:15:05 2020.

 --------------------------------------------------------------------
 #N Geom=AllCheck Guess=TCheck SCRF=Check GenChk RB3LYP/6-31G(d) Freq
 --------------------------------------------------------------------

 Structure from the checkpoint file:  "JID_7939.chk"
 -------------------------------
 CID_119334187_JID_7939_neutraal
 -------------------------------
 Charge =  0 Multiplicity = 1

 SCF Done:  E(RB3LYP) =  -785.943597128     A.U. after    1 cycles

  Exact polarizability: 162.740  -2.060 144.926  -8.126  -1.310 130.066
 Approx polarizability: 212.381   3.613 201.953 -18.862   1.233 209.065

                      1                      2                      3
                      A                      A                      A
 Frequencies --     28.0721                35.9275                53.6502
 Red. masses --      4.1010                 5.8838                 2.4656
 Frc consts  --      0.0019                 0.0045                 0.0042
 IR Inten    --      0.4149                 2.8758                 0.2550

                      4                      5                      6
                      A                      A                      A
 Frequencies --     75.5568                85.7884               101.3318
 Red. masses --      3.2679                 5.7996                 2.9353
 Frc consts  --      0.0110                 0.0251                 0.0178
 IR Inten    --      0.2331                 1.5715                 1.1050

                      7                      8                      9
                      A                      A                      A
 Frequencies --    116.9100               151.2819               169.0299
 Red. masses --      2.6361                 4.0862                 3.6488
 Frc consts  --      0.0212                 0.0551                 0.0614
 IR Inten    --      0.1487                 2.5079                 0.7093

                     10                     11                     12
                      A                      A                      A
 Frequencies --    191.1334               204.3501               230.0765
 Red. masses --      2.7803                 2.2963                 3.9795
 Frc consts  --      0.0598                 0.0565                 0.1241
 IR Inten    --      2.9751                 3.0394                 5.4872

                     13                     14                     15
                      A                      A                      A
 Frequencies --    253.3739               262.8185               282.3614
 Red. masses --      2.0451                 1.6677                 1.7471
 Frc consts  --      0.0774                 0.0679                 0.0821
 IR Inten    --      5.3142                 0.7685                 2.1634

                     16                     17                     18
                      A                      A                      A
 Frequencies --    288.3018               304.2331               326.5818
 Red. masses --      2.0928                 2.7765                 2.0720
 Frc consts  --      0.1025                 0.1514                 0.1302
 IR Inten    --     27.7887                 9.3559                37.4829

                     19                     20                     21
                      A                      A                      A
 Frequencies --    348.6934               370.2809               415.3724
 Red. masses --      2.9123                 3.7100                 3.3924
 Frc consts  --      0.2086                 0.2997                 0.3449
 IR Inten    --     29.6973                 1.0201                 3.0982

                     22                     23                     24
                      A                      A                      A
 Frequencies --    476.6048               490.5333               500.2604
 Red. masses --      2.2107                 2.7545                 3.1402
 Frc consts  --      0.2959                 0.3905                 0.4630
 IR Inten    --     13.1439                 1.9852                 1.6442

                     25                     26                     27
                      A                      A                      A
 Frequencies --    523.0641               527.9177               561.7290
 Red. masses --      1.3282                 2.2235                 2.9948
 Frc consts  --      0.2141                 0.3651                 0.5568
 IR Inten    --     47.3327                22.6889                14.2665

                     28                     29                     30
                      A                      A                      A
 Frequencies --    631.2320               656.0001               685.9977
 Red. masses --      1.6633                 2.4763                 1.7562
 Frc consts  --      0.3905                 0.6279                 0.4869
 IR Inten    --     20.1160                58.4459               127.5956

                     31                     32                     33
                      A                      A                      A
 Frequencies --    708.6342               741.8820               764.8650
 Red. masses --      1.5878                 2.6055                 1.7139
 Frc consts  --      0.4698                 0.8449                 0.5907
 IR Inten    --    106.0610                 3.8135                 2.8412

                     34                     35                     36
                      A                      A                      A
 Frequencies --    788.8967               800.0632               837.7449
 Red. masses --      1.8255                 2.3958                 1.7143
 Frc consts  --      0.6694                 0.9035                 0.7089
 IR Inten    --      6.5592                 3.6396                 1.2964

                     37                     38                     39
                      A                      A                      A
 Frequencies --    851.7884               864.7388               902.2946
 Red. masses --      2.7265                 2.6415                 2.4230
 Frc consts  --      1.1655                 1.1638                 1.1623
 IR Inten    --      2.9920                 2.1214                13.5602

                     40                     41                     42
                      A                      A                      A
 Frequencies --    916.7002               919.9373               928.8521
 Red. masses --      2.2065                 1.9097                 1.8573
 Frc consts  --      1.0925                 0.9522                 0.9441
 IR Inten    --     22.9437                20.6033                 1.2547

                     43                     44                     45
                      A                      A                      A
 Frequencies --    953.3366               965.2041               984.6622
 Red. masses --      2.4287                 1.8797                 2.1862
 Frc consts  --      1.3005                 1.0317                 1.2488
 IR Inten    --     85.3853                63.1611                18.0410

                     46                     47                     48
                      A                      A                      A
 Frequencies --   1021.9882              1028.4394              1066.1036
 Red. masses --      2.1482                 2.5408                 1.9424
 Frc consts  --      1.3220                 1.5834                 1.3007
 IR Inten    --      3.1170                 2.8381                 2.2798

                     49                     50                     51
                      A                      A                      A
 Frequencies --   1084.7562              1095.2642              1101.8543
 Red. masses --      1.4859                 1.8177                 1.8892
 Frc consts  --      1.0301                 1.2847                 1.3514
 IR Inten    --     19.0387                 2.8245                 2.9738

                     52                     53                     54
                      A                      A                      A
 Frequencies --   1116.4130              1118.4481              1135.0509
 Red. masses --      1.7283                 2.4991                 2.3899
 Frc consts  --      1.2692                 1.8419                 1.8141
 IR Inten    --     12.7620                 6.4487                 4.5799

                     55                     56                     57
                      A                      A                      A
 Frequencies --   1144.8229              1171.1238              1192.0212
 Red. masses --      1.8910                 1.5712                 1.6545
 Frc consts  --      1.4602                 1.2697                 1.3851
 IR Inten    --      7.6048                 4.9393                 7.5589

                     58                     59                     60
                      A                      A                      A
 Frequencies --   1232.8287              1236.5812              1239.8804
 Red. masses --      1.3858                 1.6200                 1.5701
 Frc consts  --      1.2409                 1.4595                 1.4221
 IR Inten    --      1.8257                30.8850                16.7044

                     61                     62                     63
                      A                      A                      A
 Frequencies --   1261.0630              1279.4243              1304.8420
 Red. masses --      1.3094                 1.3310                 1.2147
 Frc consts  --      1.2268                 1.2836                 1.2185
 IR Inten    --      8.3994                13.0110                11.6661

                     64                     65                     66
                      A                      A                      A
 Frequencies --   1318.1113              1323.1189              1335.3438
 Red. masses --      1.2054                 1.2069                 1.2773
 Frc consts  --      1.2339                 1.2448                 1.3419
 IR Inten    --      4.1043                 1.3282                20.6906

                     67                     68                     69
                      A                      A                      A
 Frequencies --   1349.5466              1368.4542              1378.8349
 Red. masses --      1.4075                 1.6545                 1.4354
 Frc consts  --      1.5104                 1.8255                 1.6078
 IR Inten    --      1.2617                41.0145                 7.1177

                     70                     71                     72
                      A                      A                      A
 Frequencies --   1380.6046              1389.9125              1394.9909
 Red. masses --      1.3565                 1.3058                 2.2515
 Frc consts  --      1.5234                 1.4863                 2.5814
 IR Inten    --      2.3575                 5.7639                33.9206

                     73                     74                     75
                      A                      A                      A
 Frequencies --   1399.8992              1402.3815              1410.4370
 Red. masses --      1.5123                 1.4661                 1.5614
 Frc consts  --      1.7462                 1.6988                 1.8301
 IR Inten    --     11.4266                 1.5968                 6.3008

                     76                     77                     78
                      A                      A                      A
 Frequencies --   1413.6097              1425.6222              1444.9147
 Red. masses --      1.4562                 1.3813                 1.2610
 Frc consts  --      1.7145                 1.6540                 1.5511
 IR Inten    --      3.3826                 4.7483                 0.9588

                     79                     80                     81
                      A                      A                      A
 Frequencies --   1514.2649              1515.6164              1517.1856
 Red. masses --      1.0788                 1.0791                 1.0624
 Frc consts  --      1.4575                 1.4605                 1.4409
 IR Inten    --      1.8629                 1.4609                 2.1664

                     82                     83                     84
                      A                      A                      A
 Frequencies --   1521.4099              1530.8165              1531.3629
 Red. masses --      1.0834                 1.0758                 1.0923
 Frc consts  --      1.4775                 1.4853                 1.5092
 IR Inten    --      3.6005                 4.8957                15.6534

                     85                     86                     87
                      A                      A                      A
 Frequencies --   1537.7844              1540.4597              1565.0306
 Red. masses --      1.0724                 1.1835                 1.6832
 Frc consts  --      1.4942                 1.6547                 2.4290
 IR Inten    --     12.3497                62.1779               219.7819

                     88                     89                     90
                      A                      A                      A
 Frequencies --   1692.8863              1701.5632              1733.6340
 Red. masses --      1.2358                 1.0873                 7.9630
 Frc consts  --      2.0867                 1.8547                14.1008
 IR Inten    --     68.2614                26.2206               157.3927

                     91                     92                     93
                      A                      A                      A
 Frequencies --   1786.0057              3006.9345              3021.4683
 Red. masses --      6.9833                 1.0736                 1.0816
 Frc consts  --     13.1244                 5.7192                 5.8176
 IR Inten    --    274.3076                37.6791                 5.9143

                     94                     95                     96
                      A                      A                      A
 Frequencies --   3025.8349              3032.3902              3046.8010
 Red. masses --      1.0668                 1.0825                 1.0635
 Frc consts  --      5.7547                 5.8648                 5.8169
 IR Inten    --     23.0365                31.9728                29.9682

                     97                     98                     99
                      A                      A                      A
 Frequencies --   3050.1280              3053.7012              3061.8129
 Red. masses --      1.0671                 1.0650                 1.0421
 Frc consts  --      5.8489                 5.8511                 5.7562
 IR Inten    --     12.9361                25.6427                24.6553

                    100                    101                    102
                      A                      A                      A
 Frequencies --   3069.1494              3079.4861              3083.7237
 Red. masses --      1.0869                 1.0691                 1.0971
 Frc consts  --      6.0323                 5.9732                 6.1468
 IR Inten    --     38.1501                28.9057                28.8071

                    103                    104                    105
                      A                      A                      A
 Frequencies --   3086.9211              3099.4498              3100.3071
 Red. masses --      1.0888                 1.1043                 1.1026
 Frc consts  --      6.1130                 6.2505                 6.2441
 IR Inten    --     36.2059                42.1307                25.0505

                    106                    107                    108
                      A                      A                      A
 Frequencies --   3123.8368              3127.6841              3131.0696
 Red. masses --      1.1024                 1.0855                 1.0992
 Frc consts  --      6.3380                 6.2566                 6.3489
 IR Inten    --     30.8068                 8.2749                31.1352

                    109                    110                    111
                      A                      A                      A
 Frequencies --   3141.0127              3445.9765              3449.2171
 Red. masses --      1.0992                 1.0498                 1.0600
 Frc consts  --      6.3894                 7.3450                 7.4298
 IR Inten    --     38.5244                 2.5434               255.6011

                    112                    113                    114
                      A                      A                      A
 Frequencies --   3530.8597              3623.7905              3633.1740
 Red. masses --      1.0916                 1.0769                 1.0912
 Frc consts  --      8.0183                 8.3319                 8.4868
 IR Inten    --      1.4732                22.1169                61.6089

 - Thermochemistry -
 -------------------
 Temperature   298.150 Kelvin.  Pressure   1.00000 Atm.
 Atom     1 has atomic number  6 and mass  12.00000

 Molecular mass:   241.17903 amu.
 Principal axes and moments of inertia in atomic units:
                           1         2         3
     Eigenvalues --  2987.937065169.992266286.43720
           X            0.99904  -0.04372   0.00245
           Y            0.04375   0.99894  -0.01408
           Z           -0.00183   0.01418   0.99990
 This molecule is an asymmetric top.
 Rotational symmetry number  1.
 Warning -- assumption of classical behavior for rotation
           may cause significant error
 Rotational temperatures (Kelvin)      0.02899     0.01675     0.01378
 Rotational constants (GHZ):           0.60401     0.34908     0.28708
 Zero-point vibrational energy     942403.1 (Joules/Mol)
                                  225.23976 (Kcal/Mol)
 Warning -- explicit consideration of  27 degrees of freedom as
           vibrations may cause significant error
 Vibrational temperatures:     40.39    51.69    77.19   108.71   123.43
          (Kelvin)            145.79   168.21   217.66   243.20   275.00
                              294.01   331.03   364.55   378.14   406.26
                              414.80   437.72   469.88   501.69   532.75
                              597.63   685.73   705.77   719.76   752.57
                              759.56   808.20   908.20   943.84   987.00
                             1019.57  1067.40  1100.47  1135.05  1151.11
                             1205.33  1225.53  1244.17  1298.20  1318.93
                             1323.58  1336.41  1371.64  1388.71  1416.71
                             1470.41  1479.69  1533.89  1560.72  1575.84
                             1585.32  1606.27  1609.20  1633.09  1647.14
                             1684.99  1715.05  1773.77  1779.16  1783.91
                             1814.39  1840.81  1877.38  1896.47  1903.67
                             1921.26  1941.70  1968.90  1983.84  1986.38
                             1999.77  2007.08  2014.14  2017.71  2029.30
                             2033.87  2051.15  2078.91  2178.69  2180.63
                             2182.89  2188.97  2202.50  2203.29  2212.53
                             2216.38  2251.73  2435.69  2448.17  2494.31
                             2569.66  4326.31  4347.22  4353.50  4362.93
                             4383.67  4388.45  4393.59  4405.27  4415.82
                             4430.69  4436.79  4441.39  4459.42  4460.65
                             4494.50  4500.04  4504.91  4519.22  4957.99
                             4962.65  5080.12  5213.83  5227.33

 Zero-point correction=                           0.358942 (Hartree/Particle)
 Thermal correction to Energy=                    0.377059
 Thermal correction to Enthalpy=                  0.378003
 Thermal correction to Gibbs Free Energy=         0.312447
 Sum of electronic and zero-point Energies=           -785.584655
 Sum of electronic and thermal Energies=              -785.566538
 Sum of electronic and thermal Enthalpies=            -785.565594
 Sum of electronic and thermal Free Energies=         -785.631150

                     E (Thermal)             CV                S
                      KCal/Mol        Cal/Mol-Kelvin    Cal/Mol-Kelvin
 Total                  236.608             69.015            137.974
 Electronic               0.000              0.000              0.000
 Translational            0.889              2.981             42.342
 Rotational               0.889              2.981             32.940
 Vibrational            234.831             63.053             62.692
 Vibration     1          0.593              1.984              5.961
 Vibration     2          0.594              1.982              5.472
 Vibration     3          0.596              1.976              4.678
 Vibration     4          0.599              1.965              4.003
 Vibration     5          0.601              1.959              3.754
 Vibration     6          0.604              1.948              3.429
 Vibration     7          0.608              1.935              3.151
 Vibration     8          0.619              1.901              2.656
 Vibration     9          0.625              1.881              2.446
 Vibration    10          0.634              1.852              2.217
 Vibration    11          0.640              1.834              2.094
 Vibration    12          0.652              1.795              1.878
 Vibration    13          0.665              1.757              1.707
 Vibration    14          0.670              1.741              1.643
 Vibration    15          0.681              1.706              1.519
 Vibration    16          0.685              1.695              1.484
 Vibration    17          0.695              1.666              1.394
 Vibration    18          0.710              1.622              1.277
 Vibration    19          0.726              1.578              1.172
 Vibration    20          0.742              1.533              1.079
 Vibration    21          0.779              1.437              0.908
 Vibration    22          0.833              1.302              0.719
 Vibration    23          0.846              1.271              0.682
 Vibration    24          0.856              1.249              0.657
 Vibration    25          0.878              1.199              0.603
 Vibration    26          0.883              1.188              0.592
 Vibration    27          0.917              1.114              0.520

 Optimization completed.
    -- Stationary point found.
 Normal termination of Gaussian 16 at Fri Dec 11 13:31:22 2020.

 ----------------------------------------------------------------------
 # B3LYP/6-311++G(d,p) empiricaldispersion=gd3bj scf=xqc pop=npa geom=c
 heck
 ----------------------------------------------------------------------

 ---------------------------------------
 CID_119334187_JID_7939_Energie_neutraal
 ---------------------------------------
 Structure from the checkpoint file:  "JID_7939.chk"
 Charge =  0 Multiplicity = 1

 SCF Done:  E(RB3LYP) =  -786.184113766     A.U. after   15 cycles
 Normal termination of Gaussian 16 at Fri Dec 11 13:38:37 2020.

 ----------------------------------------------------------------------
 # B3LYP/6-311++G(d,p) empiricaldispersion=gd3bj scf=xqc pop=npa geom=c
 heck
 ----------------------------------------------------------------------

 -------------------------------------
 CID_119334187_JID_7939_Energie_kation
 -------------------------------------
 Structure from the checkpoint file:  "JID_7939.chk"
 Charge =  1 Multiplicity = 2

 SCF Done:  E(UB3LYP) =  -785.870452142     A.U. after   29 cycles
 Normal termination of Gaussian 16 at Fri Dec 11 13:57:20 2020.
 Gaussian 16:  ES64L-G16RevA.03 25-Dec-2016

 ----------------------------------------------------------------------
 # B3LYP/6-311++G(d,p) empiricaldispersion=gd3bj scf=xqc pop=npa geom=c
 heck
 ----------------------------------------------------------------------

 ------------------------------------
 CID_119334187_JID_7939_Energie_anion
 ------------------------------------
 Structure from the checkpoint file:  "JID_7939.chk"
 Charge = -1 Multiplicity = 2

                         Standard orientation:
 ---------------------------------------------------------------------
 Center     Atomic      Atomic             Coordinates (Angstroms)
 Number     Number       Type             X           Y           Z
 ---------------------------------------------------------------------
      1          6           0       -1.784048    1.955296   -1.091798
      2          6           0       -3.016948    1.131489   -1.476733
      3          6           0       -3.437236    0.058326   -0.462667
      4          6           0       -2.460284   -1.111718   -0.279642
      5          6           0       -1.253071   -0.713470    0.576577
      6          8           0       -1.412531   -0.287342    1.727132
      7          7           0       -0.028913   -0.924949    0.034188
      8          6           0        1.232812   -0.759433    0.765647
      9          6           0        2.147610   -1.998194    0.566990
     10          6           0        3.201443   -1.811395   -0.544690
     11          6           0        2.665443   -0.925874   -1.674605
     12          6           0        2.323358    0.492590   -1.163805
     13          6           0        1.986711    0.514261    0.345216
     14          6           0        1.376771    1.871723    0.724868
     15          8           0        1.771054    2.891517    0.169771
     16          7           0        0.482587    1.897041    1.756291
     17          7           0       -3.170803   -2.230293    0.361424
     18          1           0       -0.870733    1.354301   -1.091190
     19          1           0       -1.890004    2.382617   -0.088697
     20          1           0       -1.627754    2.780756   -1.794104
     21          1           0       -3.868503    1.810317   -1.612466
     22          1           0       -2.852883    0.657755   -2.455474
     23          1           0       -3.604371    0.516989    0.520631
     24          1           0       -4.387231   -0.386520   -0.778513
     25          1           0       -2.124206   -1.458454   -1.266758
     26          1           0        0.015645   -1.252364   -0.920523
     27          1           0        0.941347   -0.701015    1.815508
     28          1           0        2.648975   -2.221235    1.515308
     29          1           0        1.509039   -2.861802    0.346168
     30          1           0        3.513211   -2.789290   -0.928141
     31          1           0        4.102772   -1.343583   -0.128407
     32          1           0        1.775770   -1.405531   -2.110822
     33          1           0        3.391499   -0.864956   -2.492529
     34          1           0        1.484049    0.910885   -1.729174
     35          1           0        3.158829    1.175701   -1.331445
     36          1           0        2.934629    0.487940    0.902966
     37          1           0       -0.116328    1.097940    1.964497
     38          1           0        0.074174    2.808739    1.921533
     39          1           0       -2.530249   -3.015083    0.485697
     40          1           0       -3.421340   -1.931703    1.305244
 ---------------------------------------------------------------------

 SCF Done:  E(UB3LYP) =  -786.178036275     A.U. after   32 cycles

 The electronic state is 2-A.
 Alpha  occ. eigenvalues --  -19.00683 -18.99421 -14.25236 -14.23129 -14.20761
 Alpha  occ. eigenvalues --  -10.18478 -10.17959 -10.12527 -10.11720 -10.09362
 Alpha  occ. eigenvalues --  -10.08088 -10.07790 -10.07587 -10.07128 -10.06994
 Alpha  occ. eigenvalues --  -10.06860 -10.06792  -0.95680  -0.94353  -0.84430
 Alpha  occ. eigenvalues --   -0.80819  -0.80193  -0.73759  -0.70212  -0.66190
 Alpha  occ. eigenvalues --   -0.65494  -0.62507  -0.57804  -0.54632  -0.52734
 Alpha  occ. eigenvalues --   -0.50630  -0.49208  -0.48624  -0.45470  -0.45068
 Alpha  occ. eigenvalues --   -0.42127  -0.40455  -0.39675  -0.39021  -0.37911
 Alpha  occ. eigenvalues --   -0.36625  -0.35302  -0.34747  -0.34603  -0.32661
 Alpha  occ. eigenvalues --   -0.32319  -0.32198  -0.31444  -0.30253  -0.29650
 Alpha  occ. eigenvalues --   -0.28725  -0.28257  -0.27895  -0.27275  -0.26624
 Alpha  occ. eigenvalues --   -0.25037  -0.24445  -0.23834  -0.22950  -0.22350
 Alpha  occ. eigenvalues --   -0.21508  -0.19543  -0.18332  -0.17601  -0.15919
 Alpha  occ. eigenvalues --   -0.15478   0.04009
 Alpha virt. eigenvalues --    0.06470   0.06872   0.07190   0.08143   0.08432
 Alpha virt. eigenvalues --    0.08697   0.09379   0.09651   0.10012   0.10660
 Alpha virt. eigenvalues --    0.10786   0.10986   0.11575   0.11994   0.12468

  Beta  occ. eigenvalues --  -19.00675 -18.99419 -14.25201 -14.23124 -14.20736
  Beta  occ. eigenvalues --  -10.18480 -10.17953 -10.12525 -10.11695 -10.09355
  Beta  occ. eigenvalues --  -10.08076 -10.07787 -10.07557 -10.07119 -10.06970
  Beta  occ. eigenvalues --  -10.06818 -10.06783  -0.95659  -0.94345  -0.84382
  Beta  occ. eigenvalues --   -0.80805  -0.80149  -0.73721  -0.70188  -0.66144
  Beta  occ. eigenvalues --   -0.65451  -0.62467  -0.57770  -0.54592  -0.52673
  Beta  occ. eigenvalues --   -0.50571  -0.49160  -0.48577  -0.45413  -0.45035
  Beta  occ. eigenvalues --   -0.42098  -0.40416  -0.39633  -0.38977  -0.37887
  Beta  occ. eigenvalues --   -0.36590  -0.35276  -0.34716  -0.34575  -0.32626
  Beta  occ. eigenvalues --   -0.32289  -0.32175  -0.31415  -0.30230  -0.29620
  Beta  occ. eigenvalues --   -0.28691  -0.28206  -0.27864  -0.27237  -0.26589
  Beta  occ. eigenvalues --   -0.25022  -0.24411  -0.23811  -0.22904  -0.22298
  Beta  occ. eigenvalues --   -0.21468  -0.19527  -0.18316  -0.17577  -0.15906
  Beta  occ. eigenvalues --   -0.15455
  Beta virt. eigenvalues --    0.06338   0.06781   0.07653   0.07703   0.08286
  Beta virt. eigenvalues --    0.08850   0.09032   0.09614   0.09772   0.10403
  Beta virt. eigenvalues --    0.10813   0.11070   0.11204   0.11633   0.12219

 Mulliken charges and spin densities:
               1          2
     1  C   -0.504834   0.139924
     2  C   -0.145597  -0.332170
     3  C   -0.442460   0.281446
     4  C    0.503709  -0.421872
     5  C    0.064488  -0.758134
     6  O   -0.276412   0.011370
     7  N    0.170522  -0.145412
     8  C   -1.891611   2.000163
     9  C    1.154213  -1.878408
    10  C   -0.065559  -0.394099
    11  C    0.836261  -1.012982
    12  C   -0.897025   0.195030
    13  C    1.279041  -0.628731
    14  C    0.115204  -0.653841
    15  O   -0.293321   0.009177
    16  N   -0.327976   0.029191
    17  N   -0.289433   0.061025
    18  H    0.658089  -0.570581
    19  H    0.131947   0.005119
    20  H    0.021369   0.134741
    21  H    0.086808   0.060267
    22  H   -0.079388   0.225366
    23  H    0.086157   0.092010
    24  H    0.160506   0.019723
    25  H   -0.785539   1.046724
    26  H    0.949907  -0.707612
    27  H    0.055524   0.217661
    28  H   -0.126696   0.274642
    29  H   -0.432272   0.626620
    30  H   -0.586898   0.795532
    31  H    0.124904  -0.003996
    32  H   -0.664387   0.810404
    33  H   -0.343359   0.534722
    34  H   -0.065193   0.265091
    35  H    0.115874   0.068336
    36  H    0.049729   0.201319
    37  H    0.260604   0.007443
    38  H    0.266366   0.028499
    39  H   -0.066203   0.308699
    40  H    0.192941   0.057593
 Sum of Mulliken charges =  -1.00000   1.00000

 Dipole moment (field-independent basis, Debye):
    X=             -2.6364    Y=              5.7945    Z=              4.1336  Tot=              7.5904
 Quadrupole moment (field-independent basis, Debye-Ang):
   XX=           -160.6958   YY=           -170.8880   ZZ=           -146.8094
   XY=             -4.5857   XZ=              3.6969   YZ=             -8.3210

 Summary of Natural Population Analysis:

                                       Natural Population
                Natural  -----------------------------------------------
    Atom  No    Charge         Core      Valence    Rydberg      Total
 -----------------------------------------------------------------------
      C    1   -0.28727      0.99966     2.28299    0.00462     3.28727
      C    2   -0.19042      0.99964     2.18272    0.00805     3.19042
      C    3   -0.19028      0.99961     2.18283    0.00784     3.19028
      C    4   -0.04759      0.99956     2.03422    0.01382     3.04759
      C    5    0.34146      0.99962     1.63410    0.02481     2.65854
      O    6   -0.35335      0.99987     3.34811    0.00537     4.35335
      N    7   -0.32419      0.99964     2.81217    0.01239     3.82419
      C    8   -0.01822      0.99956     2.00494    0.01372     3.01822
      C    9   -0.18863      0.99961     2.18009    0.00893     3.18863
      C   10   -0.19229      0.99963     2.18418    0.00849     3.19229
      C   11   -0.19304      0.99963     2.18479    0.00862     3.19304
      C   12   -0.19125      0.99962     2.18134    0.01029     3.19125
      C   13   -0.15054      0.99952     2.14062    0.01040     3.15054
      C   14    0.34633      0.99967     1.63082    0.02318     2.65367
      O   15   -0.32743      0.99988     3.32194    0.00561     4.32743
      N   16   -0.41010      0.99969     2.90355    0.00686     3.91010
      N   17   -0.40968      0.99978     2.90036    0.00954     3.90968
      H   18    0.09889      0.00000     0.39948    0.00163     0.40111
      H   19    0.09561      0.00000     0.40324    0.00115     0.40439
      H   20    0.09940      0.00000     0.39980    0.00079     0.40060
      H   21    0.09297      0.00000     0.40615    0.00088     0.40703
      H   22    0.09614      0.00000     0.40269    0.00117     0.40386
      H   23    0.09981      0.00000     0.39899    0.00119     0.40019
      H   24    0.10477      0.00000     0.39399    0.00124     0.39523
      H   25    0.09817      0.00000     0.39889    0.00294     0.40183
      H   26    0.20783      0.00000     0.28441    0.00776     0.29217
      H   27    0.11198      0.00000     0.38582    0.00220     0.38802
      H   28    0.10141      0.00000     0.39755    0.00104     0.39859
      H   29    0.10782      0.00000     0.38973    0.00245     0.39218
      H   30    0.10672      0.00000     0.39150    0.00179     0.39328
      H   31    0.09155      0.00000     0.40728    0.00118     0.40845
      H   32    0.09451      0.00000     0.40258    0.00291     0.40549
      H   33    0.10316      0.00000     0.39567    0.00117     0.39684
      H   34    0.10265      0.00000     0.39615    0.00120     0.39735
      H   35    0.10710      0.00000     0.39193    0.00097     0.39290
      H   36    0.11295      0.00000     0.38578    0.00127     0.38705
      H   37    0.20988      0.00000     0.28772    0.00240     0.29012
      H   38    0.18881      0.00000     0.30928    0.00191     0.31119
      H   39    0.17899      0.00000     0.31904    0.00197     0.32101
      H   40    0.17537      0.00000     0.32268    0.00195     0.32463
 =======================================================================
   * Total *    0.00000     16.99417    48.78013    0.22570    66.00000

 Normal termination of Gaussian 16 at Fri Dec 11 14:17:54 2020.
