 Gaussian 16, Revision A.03,

 -----------------------------------------------------------
 # opt freq B3LYP/6-31G(d) empiricaldispersion=gd3bj scf=xqc
 -----------------------------------------------------------

 ----------------------------
 CID_638056_JID_1665_neutraal
 ----------------------------
 Symbolic Z-matrix:
 Charge =  0 Multiplicity = 1

 SCF Done:  E(RB3LYP) =  -431.270051206     A.U. after   12 cycles
 SCF Done:  E(RB3LYP) =  -431.273046189     A.U. after   10 cycles
 SCF Done:  E(RB3LYP) =  -431.273179534     A.U. after    9 cycles
 SCF Done:  E(RB3LYP) =  -431.273189707     A.U. after    9 cycles
 SCF Done:  E(RB3LYP) =  -431.273200521     A.U. after    7 cycles
 SCF Done:  E(RB3LYP) =  -431.273202172     A.U. after    7 cycles
 SCF Done:  E(RB3LYP) =  -431.273202369     A.U. after    6 cycles
 SCF Done:  E(RB3LYP) =  -431.273202474     A.U. after    6 cycles
 SCF Done:  E(RB3LYP) =  -431.273202508     A.U. after    6 cycles
 Optimization completed.
    -- Stationary point found.
 Normal termination of Gaussian 16 at Tue Dec  8 21:01:02 2020.

 --------------------------------------------------------------------
 #N Geom=AllCheck Guess=TCheck SCRF=Check GenChk RB3LYP/6-31G(d) Freq
 --------------------------------------------------------------------

 Structure from the checkpoint file:  "JID_1665.chk"
 ----------------------------
 CID_638056_JID_1665_neutraal
 ----------------------------
 Charge =  0 Multiplicity = 1

 SCF Done:  E(RB3LYP) =  -431.273202508     A.U. after    1 cycles

  Exact polarizability: 116.174  -0.316 109.928   0.022  -0.290  98.995
 Approx polarizability: 152.191   1.109 151.173  -0.220  -0.305 151.687

                      1                      2                      3
                      A                      A                      A
 Frequencies --     88.7883               140.1149               160.2986
 Red. masses --      2.1933                 2.5507                 2.0833
 Frc consts  --      0.0102                 0.0295                 0.0315
 IR Inten    --      0.0411                 0.0762                 0.0265

                      4                      5                      6
                      A                      A                      A
 Frequencies --    242.4257               288.8952               301.3867
 Red. masses --      2.3305                 2.8353                 2.7443
 Frc consts  --      0.0807                 0.1394                 0.1469
 IR Inten    --      0.1036                 0.1734                 0.0441

                      7                      8                      9
                      A                      A                      A
 Frequencies --    325.9763               338.3489               352.9459
 Red. masses --      2.0773                 2.5984                 2.4183
 Frc consts  --      0.1301                 0.1753                 0.1775
 IR Inten    --      0.3169                 0.1051                 0.0498

                     10                     11                     12
                      A                      A                      A
 Frequencies --    391.8235               433.8814               472.3802
 Red. masses --      2.6587                 1.7241                 1.7472
 Frc consts  --      0.2405                 0.1912                 0.2297
 IR Inten    --      0.0540                 0.1577                 0.1929

                     13                     14                     15
                      A                      A                      A
 Frequencies --    521.9155               595.8448               663.9276
 Red. masses --      1.8170                 1.9451                 3.5619
 Frc consts  --      0.2916                 0.4069                 0.9251
 IR Inten    --      0.4391                 0.1991                 0.0325

                     16                     17                     18
                      A                      A                      A
 Frequencies --    723.4983               762.2446               778.0215
 Red. masses --      2.0360                 1.9750                 2.5694
 Frc consts  --      0.6279                 0.6761                 0.9163
 IR Inten    --      0.9872                 0.2282                 0.6290

                     19                     20                     21
                      A                      A                      A
 Frequencies --    817.8288               821.9013               880.5344
 Red. masses --      1.7166                 2.2970                 1.7396
 Frc consts  --      0.6765                 0.9142                 0.7947
 IR Inten    --      1.6789                 0.1813                 0.9283

                     22                     23                     24
                      A                      A                      A
 Frequencies --    887.8100               894.4960               938.6666
 Red. masses --      2.3232                 1.7795                 2.0288
 Frc consts  --      1.0789                 0.8389                 1.0532
 IR Inten    --      0.3112                 0.6043                 4.9962

                     25                     26                     27
                      A                      A                      A
 Frequencies --    951.7826               970.7381               971.7220
 Red. masses --      1.9875                 2.1868                 2.1118
 Frc consts  --      1.0608                 1.2141                 1.1749
 IR Inten    --      1.0953                 2.9564                 2.1545

                     28                     29                     30
                      A                      A                      A
 Frequencies --   1026.8211              1037.2193              1055.4533
 Red. masses --      2.0802                 2.0146                 1.8934
 Frc consts  --      1.2922                 1.2769                 1.2427
 IR Inten    --      0.3517                 0.7470                 0.7917

                     31                     32                     33
                      A                      A                      A
 Frequencies --   1065.7986              1102.4534              1113.3797
 Red. masses --      1.7359                 1.9538                 1.9820
 Frc consts  --      1.1618                 1.3991                 1.4475
 IR Inten    --      1.5069                 0.4693                 0.0798

                     34                     35                     36
                      A                      A                      A
 Frequencies --   1126.5637              1133.8667              1187.0514
 Red. masses --      1.8848                 1.5602                 1.3798
 Frc consts  --      1.4094                 1.1818                 1.1456
 IR Inten    --      0.1787                 0.1335                 0.0311

                     37                     38                     39
                      A                      A                      A
 Frequencies --   1211.3272              1235.6471              1247.7764
 Red. masses --      1.8134                 1.3119                 1.2278
 Frc consts  --      1.5677                 1.1802                 1.1263
 IR Inten    --      0.4795                 0.7522                 0.6647

                     40                     41                     42
                      A                      A                      A
 Frequencies --   1253.3241              1264.0955              1277.6888
 Red. masses --      1.2637                 1.2137                 1.2277
 Frc consts  --      1.1695                 1.1427                 1.1809
 IR Inten    --      1.8570                 0.6055                 1.3269

                     43                     44                     45
                      A                      A                      A
 Frequencies --   1293.4534              1321.5830              1346.1565
 Red. masses --      1.2224                 1.1932                 1.1317
 Frc consts  --      1.2049                 1.2278                 1.2083
 IR Inten    --      1.3089                 0.1679                 1.8981

                     46                     47                     48
                      A                      A                      A
 Frequencies --   1353.9082              1368.0921              1377.8539
 Red. masses --      1.2700                 1.3503                 1.3432
 Frc consts  --      1.3716                 1.4891                 1.5025
 IR Inten    --      0.8351                 1.7837                 0.4049

                     49                     50                     51
                      A                      A                      A
 Frequencies --   1389.2122              1398.1143              1401.3131
 Red. masses --      1.3118                 1.4605                 1.4463
 Frc consts  --      1.4916                 1.6821                 1.6733
 IR Inten    --      1.7732                 0.7084                 0.1589

                     52                     53                     54
                      A                      A                      A
 Frequencies --   1408.2336              1411.6607              1418.0893
 Red. masses --      1.4395                 1.4524                 1.3712
 Frc consts  --      1.6819                 1.7053                 1.6247
 IR Inten    --      1.6489                 3.5992                 2.8373

                     55                     56                     57
                      A                      A                      A
 Frequencies --   1421.4414              1431.1034              1433.9994
 Red. masses --      1.4246                 1.3492                 1.3879
 Frc consts  --      1.6959                 1.6280                 1.6815
 IR Inten    --      1.6215                 2.5408                 3.8559

                     58                     59                     60
                      A                      A                      A
 Frequencies --   1439.2929              1508.9415              1511.3521
 Red. masses --      1.3714                 1.0894                 1.0827
 Frc consts  --      1.6739                 1.4615                 1.4572
 IR Inten    --      4.8316                 0.8222                 0.7490

                     61                     62                     63
                      A                      A                      A
 Frequencies --   1515.3024              1519.3631              1521.6136
 Red. masses --      1.0943                 1.0901                 1.0921
 Frc consts  --      1.4804                 1.4826                 1.4898
 IR Inten    --      1.8163                 5.0699                 2.4774

                     64                     65                     66
                      A                      A                      A
 Frequencies --   1522.5509              1531.2806              1540.7238
 Red. masses --      1.0807                 1.0908                 1.0871
 Frc consts  --      1.4760                 1.5069                 1.5204
 IR Inten    --      5.9128                10.7636                 5.1327

                     67                     68                     69
                      A                      A                      A
 Frequencies --   1546.7335              2989.0901              3001.6284
 Red. masses --      1.0851                 1.0791                 1.0799
 Frc consts  --      1.5295                 5.6806                 5.7328
 IR Inten    --      7.5465                 7.2717                 6.5193

                     70                     71                     72
                      A                      A                      A
 Frequencies --   3011.8829              3018.2054              3021.9740
 Red. masses --      1.0633                 1.0648                 1.0625
 Frc consts  --      5.6832                 5.7148                 5.7167
 IR Inten    --     14.4880                21.3229                16.3295

                     73                     74                     75
                      A                      A                      A
 Frequencies --   3024.0517              3025.0593              3027.8929
 Red. masses --      1.0635                 1.0650                 1.0693
 Frc consts  --      5.7303                 5.7423                 5.7759
 IR Inten    --     22.1420                 5.1462                78.0904

                     76                     77                     78
                      A                      A                      A
 Frequencies --   3031.1825              3038.9284              3042.7349
 Red. masses --      1.0683                 1.0692                 1.0788
 Frc consts  --      5.7831                 5.8177                 5.8849
 IR Inten    --     21.6694                83.4969                18.8644

                     79                     80                     81
                      A                      A                      A
 Frequencies --   3047.1038              3051.8509              3053.9170
 Red. masses --      1.0979                 1.0996                 1.0974
 Frc consts  --      6.0059                 6.0338                 6.0304
 IR Inten    --      7.7739                65.2225               116.0147

                     82                     83                     84
                      A                      A                      A
 Frequencies --   3058.4502              3061.8671              3064.3450
 Red. masses --      1.0922                 1.0968                 1.1008
 Frc consts  --      6.0197                 6.0583                 6.0904
 IR Inten    --     36.5380                59.4000                56.8647

                     85                     86                     87
                      A                      A                      A
 Frequencies --   3072.4956              3078.2247              3110.7130
 Red. masses --      1.1023                 1.0977                 1.0892
 Frc consts  --      6.1313                 6.1284                 6.2098
 IR Inten    --     46.5707               107.3622                55.1391

 - Thermochemistry -
 -------------------
 Temperature   298.150 Kelvin.  Pressure   1.00000 Atm.
 Atom     1 has atomic number  6 and mass  12.00000

 Molecular mass:   152.15650 amu.
 Principal axes and moments of inertia in atomic units:
                           1         2         3
     Eigenvalues --  1226.408721698.781122179.12654
           X            1.00000  -0.00051   0.00028
           Y            0.00051   1.00000   0.00111
           Z           -0.00028  -0.00111   1.00000
 This molecule is an asymmetric top.
 Rotational symmetry number  1.
 Warning -- assumption of classical behavior for rotation
           may cause significant error
 Rotational temperatures (Kelvin)      0.07062     0.05099     0.03975
 Rotational constants (GHZ):           1.47157     1.06237     0.82819
 Zero-point vibrational energy     776493.8 (Joules/Mol)
                                  185.58648 (Kcal/Mol)
 Warning -- explicit consideration of  14 degrees of freedom as
           vibrations may cause significant error
 Vibrational temperatures:    127.75   201.59   230.63   348.80   415.66
          (Kelvin)            433.63   469.01   486.81   507.81   563.75
                              624.26   679.65   750.92   857.29   955.24
                             1040.95  1096.70  1119.40  1176.67  1182.53
                             1266.89  1277.36  1286.98  1350.53  1369.40
                             1396.68  1398.09  1477.37  1492.33  1518.56
                             1533.45  1586.18  1601.91  1620.87  1631.38
                             1707.90  1742.83  1777.82  1795.27  1803.25
                             1818.75  1838.31  1860.99  1901.46  1936.82
                             1947.97  1968.38  1982.42  1998.77  2011.57
                             2016.18  2026.13  2031.06  2040.31  2045.14
                             2059.04  2063.21  2070.82  2171.03  2174.50
                             2180.18  2186.02  2189.26  2190.61  2203.17
                             2216.76  2225.40  4300.63  4318.67  4333.43
                             4342.52  4347.95  4350.94  4352.39  4356.46
                             4361.20  4372.34  4377.82  4384.10  4390.93
                             4393.91  4400.43  4405.34  4408.91  4420.64
                             4428.88  4475.62

 Zero-point correction=                           0.295751 (Hartree/Particle)
 Thermal correction to Energy=                    0.305687
 Thermal correction to Enthalpy=                  0.306631
 Thermal correction to Gibbs Free Energy=         0.261295
 Sum of electronic and zero-point Energies=           -430.977452
 Sum of electronic and thermal Energies=              -430.967516
 Sum of electronic and thermal Enthalpies=            -430.966571
 Sum of electronic and thermal Free Energies=         -431.011907

                     E (Thermal)             CV                S
                      KCal/Mol        Cal/Mol-Kelvin    Cal/Mol-Kelvin
 Total                  191.821             41.714             95.417
 Electronic               0.000              0.000              0.000
 Translational            0.889              2.981             40.969
 Rotational               0.889              2.981             29.897
 Vibrational            190.044             35.753             24.551
 Vibration     1          0.602              1.957              3.687
 Vibration     2          0.615              1.913              2.802
 Vibration     3          0.622              1.891              2.546
 Vibration     4          0.659              1.775              1.785
 Vibration     5          0.685              1.694              1.480
 Vibration     6          0.693              1.671              1.409
 Vibration     7          0.710              1.624              1.280
 Vibration     8          0.719              1.599              1.220
 Vibration     9          0.729              1.569              1.153
 Vibration    10          0.759              1.488              0.993
 Vibration    11          0.795              1.396              0.846
 Vibration    12          0.829              1.311              0.731
 Vibration    13          0.877              1.201              0.606
 Vibration    14          0.954              1.041              0.457

 Optimization completed.
    -- Stationary point found.
 Normal termination of Gaussian 16 at Tue Dec  8 21:10:11 2020.

 ----------------------------------------------------------------------
 # B3LYP/6-311++G(d,p) empiricaldispersion=gd3bj scf=xqc pop=npa geom=c
 heck
 ----------------------------------------------------------------------

 ------------------------------------
 CID_638056_JID_1665_Energie_neutraal
 ------------------------------------
 Structure from the checkpoint file:  "JID_1665.chk"
 Charge =  0 Multiplicity = 1

 SCF Done:  E(RB3LYP) =  -431.386784290     A.U. after   12 cycles
 Normal termination of Gaussian 16 at Tue Dec  8 21:13:26 2020.

 ----------------------------------------------------------------------
 # B3LYP/6-311++G(d,p) empiricaldispersion=gd3bj scf=xqc pop=npa geom=c
 heck
 ----------------------------------------------------------------------

 ----------------------------------
 CID_638056_JID_1665_Energie_kation
 ----------------------------------
 Structure from the checkpoint file:  "JID_1665.chk"
 Charge =  1 Multiplicity = 2

 SCF Done:  E(UB3LYP) =  -431.036010097     A.U. after   29 cycles
 Normal termination of Gaussian 16 at Tue Dec  8 21:24:41 2020.
 Gaussian 16:  ES64L-G16RevA.03 25-Dec-2016

 ----------------------------------------------------------------------
 # B3LYP/6-311++G(d,p) empiricaldispersion=gd3bj scf=xqc pop=npa geom=c
 heck
 ----------------------------------------------------------------------

 ---------------------------------
 CID_638056_JID_1665_Energie_anion
 ---------------------------------
 Structure from the checkpoint file:  "JID_1665.chk"
 Charge = -1 Multiplicity = 2

                         Standard orientation:
 ---------------------------------------------------------------------
 Center     Atomic      Atomic             Coordinates (Angstroms)
 Number     Number       Type             X           Y           Z
 ---------------------------------------------------------------------
      1          6           0       -1.978538   -1.274872   -0.403336
      2          6           0       -2.199961    0.196541   -0.782825
      3          6           0       -1.836957    1.203356    0.310711
      4          6           0       -0.381193    1.260450    0.819298
      5          6           0        0.622498    1.884023   -0.181862
      6          6           0        1.437621    0.974927   -1.115258
      7          6           0        2.432404    0.067924   -0.367923
      8          6           0        1.899678   -1.278246    0.166813
      9          6           0        0.438485   -1.300979    0.673662
     10          6           0       -0.512083   -1.708169   -0.483147
     11          6           0        0.067860   -0.048464    1.502974
     12          1           0       -2.555034   -1.902291   -1.095629
     13          1           0       -2.391034   -1.469769    0.597143
     14          1           0       -1.640436    0.415553   -1.703207
     15          1           0       -3.259211    0.345691   -1.032043
     16          1           0       -2.479115    0.997368    1.180050
     17          1           0       -2.111855    2.209736   -0.034661
     18          1           0       -0.433496    1.987768    1.643258
     19          1           0        1.356061    2.460261    0.399710
     20          1           0        0.081641    2.623440   -0.788449
     21          1           0        2.010536    1.635987   -1.779007
     22          1           0        0.786636    0.391122   -1.773269
     23          1           0        2.840670    0.650890    0.469135
     24          1           0        3.289214   -0.146529   -1.019126
     25          1           0        2.567255   -1.599988    0.976839
     26          1           0        1.995458   -2.042407   -0.616092
     27          1           0        0.386072   -2.123127    1.401054
     28          1           0       -0.462974   -2.802288   -0.563207
     29          1           0       -0.114685   -1.338259   -1.435227
     30          1           0       -0.738121   -0.326770    2.195187
     31          1           0        0.933530    0.174666    2.142890
 ---------------------------------------------------------------------

 SCF Done:  E(UB3LYP) =  -431.370134611     A.U. after   26 cycles

 The electronic state is 2-A.
 Alpha  occ. eigenvalues --  -10.05759 -10.05698 -10.05350 -10.05327 -10.05310
 Alpha  occ. eigenvalues --  -10.05273 -10.05078 -10.05069 -10.05056 -10.04983
 Alpha  occ. eigenvalues --  -10.04803  -0.72716  -0.68143  -0.67260  -0.64145
 Alpha  occ. eigenvalues --   -0.60496  -0.54805  -0.52733  -0.51929  -0.45297
 Alpha  occ. eigenvalues --   -0.44016  -0.40123  -0.37433  -0.35941  -0.35599
 Alpha  occ. eigenvalues --   -0.33667  -0.32460  -0.30239  -0.29782  -0.29065
 Alpha  occ. eigenvalues --   -0.28386  -0.27523  -0.26194  -0.24945  -0.23826
 Alpha  occ. eigenvalues --   -0.22078  -0.21684  -0.20816  -0.20665  -0.19115
 Alpha  occ. eigenvalues --   -0.18770  -0.18291  -0.17823   0.04764
 Alpha virt. eigenvalues --    0.07202   0.07392   0.07676   0.09345   0.09625
 Alpha virt. eigenvalues --    0.09783   0.09942   0.10485   0.12145   0.12385
 Alpha virt. eigenvalues --    0.12540   0.12646   0.13260   0.13478   0.13923

  Beta  occ. eigenvalues --  -10.05751 -10.05692 -10.05336 -10.05310 -10.05297
  Beta  occ. eigenvalues --  -10.05255 -10.05058 -10.05055 -10.05044 -10.04964
  Beta  occ. eigenvalues --  -10.04777  -0.72682  -0.68111  -0.67225  -0.64106
  Beta  occ. eigenvalues --   -0.60458  -0.54754  -0.52692  -0.51881  -0.45237
  Beta  occ. eigenvalues --   -0.43965  -0.40071  -0.37366  -0.35900  -0.35575
  Beta  occ. eigenvalues --   -0.33633  -0.32423  -0.30210  -0.29752  -0.29026
  Beta  occ. eigenvalues --   -0.28348  -0.27487  -0.26157  -0.24910  -0.23789
  Beta  occ. eigenvalues --   -0.22046  -0.21647  -0.20782  -0.20629  -0.19079
  Beta  occ. eigenvalues --   -0.18735  -0.18256  -0.17775
  Beta virt. eigenvalues --    0.06939   0.07943   0.08161   0.08342   0.09899
  Beta virt. eigenvalues --    0.10078   0.10333   0.10513   0.10840   0.12597
  Beta virt. eigenvalues --    0.12784   0.13011   0.13114   0.13629   0.13795

 Mulliken charges and spin densities:
               1          2
     1  C   -0.407323  -0.028953
     2  C   -0.263090   0.053303
     3  C    1.187192  -1.786644
     4  C   -0.900133   1.531387
     5  C    0.506249  -1.279823
     6  C   -0.445053   0.430933
     7  C   -0.072682  -0.357136
     8  C    0.528929  -1.164620
     9  C   -0.394190   1.028531
    10  C    0.349652  -0.751339
    11  C    1.556568  -2.342856
    12  H   -0.296546   0.454973
    13  H   -0.071362   0.207296
    14  H    0.038158   0.067727
    15  H   -0.166749   0.332302
    16  H   -0.149611   0.289630
    17  H   -0.122001   0.260660
    18  H   -0.281233   0.490326
    19  H   -0.272839   0.422844
    20  H   -0.088539   0.234354
    21  H   -0.160137   0.336576
    22  H    0.081030   0.009670
    23  H    0.071817   0.068277
    24  H   -0.320932   0.475392
    25  H   -0.285839   0.430995
    26  H    0.065409   0.085489
    27  H   -0.246233   0.461773
    28  H   -0.101029   0.263761
    29  H   -0.024127   0.131174
    30  H   -0.217158   0.373915
    31  H   -0.098196   0.270082
 Sum of Mulliken charges =  -1.00000   1.00000

 Dipole moment (field-independent basis, Debye):
    X=             -0.1709    Y=             -0.3175    Z=             -1.8780  Tot=              1.9123
 Quadrupole moment (field-independent basis, Debye-Ang):
   XX=           -123.4638   YY=           -118.6945   ZZ=           -109.0606
   XY=             -0.8719   XZ=              0.3104   YZ=             -0.2200

 Summary of Natural Population Analysis:

                                       Natural Population
                Natural  -----------------------------------------------
    Atom  No    Charge         Core      Valence    Rydberg      Total
 -----------------------------------------------------------------------
      C    1   -0.19016      0.99962     2.18242    0.00811     3.19016
      C    2   -0.18941      0.99962     2.18145    0.00834     3.18941
      C    3   -0.18254      0.99960     2.17370    0.00925     3.18254
      C    4   -0.11118      0.99957     2.09929    0.01233     3.11118
      C    5   -0.18596      0.99960     2.17677    0.00959     3.18596
      C    6   -0.19319      0.99962     2.18557    0.00800     3.19319
      C    7   -0.19086      0.99962     2.18315    0.00808     3.19086
      C    8   -0.18359      0.99961     2.17481    0.00916     3.18359
      C    9   -0.11146      0.99958     2.10013    0.01175     3.11146
      C   10   -0.18656      0.99960     2.17794    0.00901     3.18656
      C   11   -0.19107      0.99959     2.18079    0.01068     3.19107
      H   12    0.09663      0.00000     0.40225    0.00112     0.40337
      H   13    0.09439      0.00000     0.40426    0.00135     0.40561
      H   14    0.09077      0.00000     0.40773    0.00150     0.40923
      H   15    0.09602      0.00000     0.40288    0.00110     0.40398
      H   16    0.09379      0.00000     0.40472    0.00149     0.40621
      H   17    0.09609      0.00000     0.40269    0.00122     0.40391
      H   18    0.09878      0.00000     0.39927    0.00195     0.40122
      H   19    0.09537      0.00000     0.40312    0.00151     0.40463
      H   20    0.09645      0.00000     0.40235    0.00120     0.40355
      H   21    0.09709      0.00000     0.40181    0.00110     0.40291
      H   22    0.09289      0.00000     0.40539    0.00172     0.40711
      H   23    0.09344      0.00000     0.40499    0.00157     0.40656
      H   24    0.09700      0.00000     0.40188    0.00111     0.40300
      H   25    0.09721      0.00000     0.40162    0.00117     0.40279
      H   26    0.09305      0.00000     0.40566    0.00128     0.40695
      H   27    0.09749      0.00000     0.40071    0.00180     0.40251
      H   28    0.09821      0.00000     0.40062    0.00116     0.40179
      H   29    0.09005      0.00000     0.40819    0.00176     0.40995
      H   30    0.10036      0.00000     0.39799    0.00165     0.39964
      H   31    0.10088      0.00000     0.39770    0.00143     0.39912
 =======================================================================
   * Total *   -0.00000     10.99564    31.87188    0.13248    43.00000

 Normal termination of Gaussian 16 at Tue Dec  8 21:36:17 2020.
