 Gaussian 16, Revision A.03,

 -----------------------------------------------------------
 # opt freq B3LYP/6-31G(d) empiricaldispersion=gd3bj scf=xqc
 -----------------------------------------------------------

 --------------------------------
 CID_110458250_JID_10175_neutraal
 --------------------------------
 Symbolic Z-matrix:
 Charge =  0 Multiplicity = 1

 SCF Done:  E(RB3LYP) =  -973.497415187     A.U. after   15 cycles
 SCF Done:  E(RB3LYP) =  -973.505638106     A.U. after   13 cycles
 SCF Done:  E(RB3LYP) =  -973.506711489     A.U. after   13 cycles
 SCF Done:  E(RB3LYP) =  -973.506800552     A.U. after   12 cycles
 SCF Done:  E(RB3LYP) =  -973.506952379     A.U. after   12 cycles
 SCF Done:  E(RB3LYP) =  -973.507007406     A.U. after   11 cycles
 SCF Done:  E(RB3LYP) =  -973.507033934     A.U. after   10 cycles
 SCF Done:  E(RB3LYP) =  -973.507060365     A.U. after   10 cycles
 SCF Done:  E(RB3LYP) =  -973.507077252     A.U. after   10 cycles
 SCF Done:  E(RB3LYP) =  -973.507094833     A.U. after   11 cycles
 SCF Done:  E(RB3LYP) =  -973.507520291     A.U. after   11 cycles
 SCF Done:  E(RB3LYP) =  -973.507520726     A.U. after    9 cycles
 SCF Done:  E(RB3LYP) =  -973.507520812     A.U. after    8 cycles
 SCF Done:  E(RB3LYP) =  -973.507520829     A.U. after    6 cycles
 SCF Done:  E(RB3LYP) =  -973.507520835     A.U. after    6 cycles
 Optimization completed.
    -- Stationary point found.
 Normal termination of Gaussian 16 at Mon Dec 14 17:54:07 2020.

 --------------------------------------------------------------------
 #N Geom=AllCheck Guess=TCheck SCRF=Check GenChk RB3LYP/6-31G(d) Freq
 --------------------------------------------------------------------

 Structure from the checkpoint file:  "JID_10175.chk"
 --------------------------------
 CID_110458250_JID_10175_neutraal
 --------------------------------
 Charge =  0 Multiplicity = 1

 SCF Done:  E(RB3LYP) =  -973.507520835     A.U. after    1 cycles

  Exact polarizability: 139.131  -6.831 180.192 -21.469   0.877 140.968
 Approx polarizability: 186.037 -12.835 292.968 -44.712   9.469 249.834

                      1                      2                      3
                      A                      A                      A
 Frequencies --      8.5633                24.8023                39.4603
 Red. masses --      7.3672                 4.9661                 7.2729
 Frc consts  --      0.0003                 0.0018                 0.0067
 IR Inten    --      0.0742                 0.2963                 0.5199

                      4                      5                      6
                      A                      A                      A
 Frequencies --     58.7969                69.2105                76.1449
 Red. masses --      7.3697                 7.4998                 6.6832
 Frc consts  --      0.0150                 0.0212                 0.0228
 IR Inten    --      0.4766                 1.0784                 0.6797

                      7                      8                      9
                      A                      A                      A
 Frequencies --    100.4089               117.7160               125.6720
 Red. masses --      3.3424                 6.8500                 3.8030
 Frc consts  --      0.0199                 0.0559                 0.0354
 IR Inten    --      5.4866                 3.4703                 1.1904

                     10                     11                     12
                      A                      A                      A
 Frequencies --    169.9744               213.2857               241.1491
 Red. masses --      6.8916                 1.8974                 2.6081
 Frc consts  --      0.1173                 0.0509                 0.0894
 IR Inten    --      5.6843                 0.2914                 1.0350

                     13                     14                     15
                      A                      A                      A
 Frequencies --    257.7841               278.4898               289.0070
 Red. masses --      3.1346                 3.0977                 1.8576
 Frc consts  --      0.1227                 0.1415                 0.0914
 IR Inten    --      1.0301                 8.0217                 0.2896

                     16                     17                     18
                      A                      A                      A
 Frequencies --    314.2845               337.7192               381.1530
 Red. masses --      5.5452                 8.0699                 2.2498
 Frc consts  --      0.3227                 0.5423                 0.1926
 IR Inten    --      3.4254                 5.9351                 3.1787

                     19                     20                     21
                      A                      A                      A
 Frequencies --    403.0162               457.1792               466.4374
 Red. masses --      3.5463                 4.0460                 4.1214
 Frc consts  --      0.3394                 0.4982                 0.5283
 IR Inten    --      2.6657                12.4302                 0.6599

                     22                     23                     24
                      A                      A                      A
 Frequencies --    473.5224               512.4063               540.1599
 Red. masses --      3.3426                 2.3607                 4.8409
 Frc consts  --      0.4416                 0.3652                 0.8322
 IR Inten    --      5.1709                22.8774                 1.0102

                     25                     26                     27
                      A                      A                      A
 Frequencies --    564.1480               566.1526               582.6654
 Red. masses --      4.1048                 3.3097                 3.5878
 Frc consts  --      0.7697                 0.6250                 0.7177
 IR Inten    --      3.8787                 5.1548                 8.8335

                     28                     29                     30
                      A                      A                      A
 Frequencies --    600.4992               641.0479               644.0917
 Red. masses --      3.8568                 3.9372                 4.5551
 Frc consts  --      0.8194                 0.9533                 1.1134
 IR Inten    --     44.4020                19.0885                28.1416

                     31                     32                     33
                      A                      A                      A
 Frequencies --    659.3635               688.0493               715.4796
 Red. masses --      4.9131                 2.1252                 2.6705
 Frc consts  --      1.2585                 0.5928                 0.8054
 IR Inten    --     12.9386                94.8277                13.2888

                     34                     35                     36
                      A                      A                      A
 Frequencies --    731.2737               753.0647               797.7760
 Red. masses --      5.3724                 4.1470                 1.5304
 Frc consts  --      1.6927                 1.3856                 0.5739
 IR Inten    --      2.9911                 8.4796                18.5410

                     37                     38                     39
                      A                      A                      A
 Frequencies --    827.7481               872.5951               876.5841
 Red. masses --      3.0401                 2.1572                 4.1746
 Frc consts  --      1.2273                 0.9678                 1.8900
 IR Inten    --     36.4724                 6.0144                11.2546

                     40                     41                     42
                      A                      A                      A
 Frequencies --    893.0809               901.9983               924.4538
 Red. masses --      1.5375                 1.5547                 2.4280
 Frc consts  --      0.7225                 0.7452                 1.2226
 IR Inten    --     30.1180                 4.9609                 7.4611

                     43                     44                     45
                      A                      A                      A
 Frequencies --    943.3574               972.9328               977.7188
 Red. masses --      2.7374                 1.2757                 2.6589
 Frc consts  --      1.4353                 0.7115                 1.4976
 IR Inten    --     12.2986                 0.5224                13.0388

                     46                     47                     48
                      A                      A                      A
 Frequencies --   1018.2280              1022.3786              1066.8945
 Red. masses --      6.0495                 2.4445                 2.3843
 Frc consts  --      3.6954                 1.5054                 1.5990
 IR Inten    --      2.4908                 9.8113                 1.3463

                     49                     50                     51
                      A                      A                      A
 Frequencies --   1082.9934              1088.8097              1104.7139
 Red. masses --      3.7909                 2.8130                 3.7982
 Frc consts  --      2.6197                 1.9648                 2.7311
 IR Inten    --     46.1858                 2.3427                18.5137

                     52                     53                     54
                      A                      A                      A
 Frequencies --   1119.7766              1185.0563              1187.4082
 Red. masses --      1.7059                 1.2727                 1.2268
 Frc consts  --      1.2603                 1.0531                 1.0191
 IR Inten    --      4.0474                 1.5568                 3.9581

                     55                     56                     57
                      A                      A                      A
 Frequencies --   1192.9598              1196.4054              1207.9326
 Red. masses --      2.0165                 1.1619                 1.4378
 Frc consts  --      1.6908                 0.9799                 1.2361
 IR Inten    --    163.4278                11.9387                46.4550

                     58                     59                     60
                      A                      A                      A
 Frequencies --   1214.8901              1222.5228              1227.6193
 Red. masses --      1.5073                 1.6772                 1.5637
 Frc consts  --      1.3108                 1.4769                 1.3884
 IR Inten    --     47.2796                73.7150                 5.9972

                     61                     62                     63
                      A                      A                      A
 Frequencies --   1283.1513              1294.2649              1313.4152
 Red. masses --      1.4126                 1.6763                 4.2247
 Frc consts  --      1.3703                 1.6544                 4.2938
 IR Inten    --      3.0733                 4.7348               142.4943

                     64                     65                     66
                      A                      A                      A
 Frequencies --   1339.0443              1348.4358              1357.4298
 Red. masses --      1.6094                 1.7263                 1.3964
 Frc consts  --      1.7002                 1.8493                 1.5160
 IR Inten    --     14.5934                71.7511                 3.5070

                     67                     68                     69
                      A                      A                      A
 Frequencies --   1371.8431              1382.6008              1391.2961
 Red. masses --      1.7738                 2.3612                 1.9638
 Frc consts  --      1.9668                 2.6594                 2.2397
 IR Inten    --     52.8968                17.2571                11.1606

                     70                     71                     72
                      A                      A                      A
 Frequencies --   1407.6751              1441.7914              1484.2550
 Red. masses --      2.3029                 6.1001                 1.3340
 Frc consts  --      2.6887                 7.4713                 1.7315
 IR Inten    --     44.2090               163.4919                32.9242

                     73                     74                     75
                      A                      A                      A
 Frequencies --   1485.7533              1490.1475              1511.7768
 Red. masses --      1.4471                 1.1244                 1.5042
 Frc consts  --      1.8821                 1.4711                 2.0255
 IR Inten    --      8.7629                24.1172                 0.5300

                     76                     77                     78
                      A                      A                      A
 Frequencies --   1517.0448              1520.8065              1533.5875
 Red. masses --      1.1097                 1.0536                 1.1334
 Frc consts  --      1.5047                 1.4357                 1.5706
 IR Inten    --      9.0317                 5.1764                56.5336

                     79                     80                     81
                      A                      A                      A
 Frequencies --   1552.0360              1654.3260              1664.0697
 Red. masses --      2.1233                 6.1545                 5.3665
 Frc consts  --      3.0135                 9.9240                 8.7555
 IR Inten    --     25.6896                21.1493                96.5976

                     82                     83                     84
                      A                      A                      A
 Frequencies --   1804.2794              1863.6435              1871.9809
 Red. masses --     12.5760                10.1318                12.1654
 Frc consts  --     24.1213                20.7329                25.1177
 IR Inten    --    471.8426               303.6314                58.5876

                     85                     86                     87
                      A                      A                      A
 Frequencies --   3030.6910              3065.9530              3085.0391
 Red. masses --      1.0347                 1.0602                 1.0690
 Frc consts  --      5.5993                 5.8715                 5.9943
 IR Inten    --     36.6374                22.7799                 8.2668

                     88                     89                     90
                      A                      A                      A
 Frequencies --   3090.4151              3093.8156              3101.1879
 Red. masses --      1.1065                 1.0596                 1.0829
 Frc consts  --      6.2266                 5.9757                 6.1362
 IR Inten    --     41.7742                12.4672                18.2248

                     91                     92                     93
                      A                      A                      A
 Frequencies --   3112.3780              3146.1836              3148.4355
 Red. masses --      1.1053                 1.0980                 1.1041
 Frc consts  --      6.3085                 6.4038                 6.4484
 IR Inten    --      9.9061                 4.1549                 2.4969

                     94                     95                     96
                      A                      A                      A
 Frequencies --   3165.0977              3184.2526              3202.2081
 Red. masses --      1.1003                 1.0873                 1.0917
 Frc consts  --      6.4941                 6.4954                 6.5954
 IR Inten    --     25.1577                 8.0844                17.7372

                     97                     98                     99
                      A                      A                      A
 Frequencies --   3221.8847              3239.8028              3691.7507
 Red. masses --      1.0945                 1.0895                 1.0641
 Frc consts  --      6.6941                 6.7376                 8.5445
 IR Inten    --      8.3762                 1.4937                65.2122

 - Thermochemistry -
 -------------------
 Temperature   298.150 Kelvin.  Pressure   1.00000 Atm.
 Atom     1 has atomic number  6 and mass  12.00000

 Molecular mass:   277.09502 amu.
 Principal axes and moments of inertia in atomic units:
                           1         2         3
     Eigenvalues --  3922.454686038.328737610.68137
           X            0.99998   0.00544  -0.00227
           Y           -0.00546   0.99997  -0.00622
           Z            0.00224   0.00624   0.99998
 This molecule is an asymmetric top.
 Rotational symmetry number  1.
 Warning -- assumption of classical behavior for rotation
           may cause significant error
 Rotational temperatures (Kelvin)      0.02208     0.01434     0.01138
 Rotational constants (GHZ):           0.46011     0.29888     0.23713
 Zero-point vibrational energy     733865.7 (Joules/Mol)
                                  175.39811 (Kcal/Mol)
 Warning -- explicit consideration of  28 degrees of freedom as
           vibrations may cause significant error
 Vibrational temperatures:     12.32    35.68    56.77    84.60    99.58
          (Kelvin)            109.56   144.47   169.37   180.81   244.56
                              306.87   346.96   370.89   400.68   415.82
                              452.19   485.90   548.39   579.85   657.78
                              671.10   681.29   737.24   777.17   811.68
                              814.57   838.33   863.98   922.32   926.70
                              948.68   989.95  1029.42  1052.14  1083.49
                             1147.82  1190.94  1255.47  1261.21  1284.94
                             1297.77  1330.08  1357.28  1399.83  1406.72
                             1465.00  1470.97  1535.02  1558.19  1566.55
                             1589.44  1611.11  1705.03  1708.42  1716.40
                             1721.36  1737.95  1747.96  1758.94  1766.27
                             1846.17  1862.16  1889.71  1926.59  1940.10
                             1953.04  1973.78  1989.25  2001.76  2025.33
                             2074.42  2135.51  2137.67  2143.99  2175.11
                             2182.69  2188.10  2206.49  2233.03  2380.21
                             2394.23  2595.96  2681.37  2693.36  4360.49
                             4411.22  4438.68  4446.42  4451.31  4461.92
                             4478.02  4526.66  4529.90  4553.87  4581.43
                             4607.26  4635.57  4661.35  5311.61

 Zero-point correction=                           0.279515 (Hartree/Particle)
 Thermal correction to Energy=                    0.297656
 Thermal correction to Enthalpy=                  0.298600
 Thermal correction to Gibbs Free Energy=         0.230120
 Sum of electronic and zero-point Energies=           -973.228006
 Sum of electronic and thermal Energies=              -973.209865
 Sum of electronic and thermal Enthalpies=            -973.208921
 Sum of electronic and thermal Free Energies=         -973.277401

                     E (Thermal)             CV                S
                      KCal/Mol        Cal/Mol-Kelvin    Cal/Mol-Kelvin
 Total                  186.782             68.021            144.130
 Electronic               0.000              0.000              0.000
 Translational            0.889              2.981             42.756
 Rotational               0.889              2.981             33.555
 Vibrational            185.005             62.060             67.819
 Vibration     1          0.593              1.987              8.319
 Vibration     2          0.593              1.985              6.207
 Vibration     3          0.594              1.981              5.286
 Vibration     4          0.596              1.974              4.497
 Vibration     5          0.598              1.969              4.176
 Vibration     6          0.599              1.965              3.988
 Vibration     7          0.604              1.949              3.446
 Vibration     8          0.608              1.935              3.138
 Vibration     9          0.611              1.927              3.011
 Vibration    10          0.625              1.879              2.436
 Vibration    11          0.644              1.821              2.015
 Vibration    12          0.658              1.777              1.794
 Vibration    13          0.667              1.750              1.677
 Vibration    14          0.679              1.713              1.543
 Vibration    15          0.686              1.694              1.480
 Vibration    16          0.702              1.646              1.340
 Vibration    17          0.718              1.600              1.223
 Vibration    18          0.751              1.510              1.035
 Vibration    19          0.768              1.464              0.952
 Vibration    20          0.815              1.345              0.774
 Vibration    21          0.824              1.325              0.748
 Vibration    22          0.830              1.309              0.728
 Vibration    23          0.867              1.223              0.628
 Vibration    24          0.895              1.161              0.565
 Vibration    25          0.920              1.109              0.516
 Vibration    26          0.922              1.104              0.512
 Vibration    27          0.939              1.069              0.480
 Vibration    28          0.959              1.031              0.449

 Optimization completed.
    -- Stationary point found.
 Normal termination of Gaussian 16 at Mon Dec 14 18:13:44 2020.

 ----------------------------------------------------------------------
 # B3LYP/6-311++G(d,p) empiricaldispersion=gd3bj scf=xqc pop=npa geom=c
 heck
 ----------------------------------------------------------------------

 ----------------------------------------
 CID_110458250_JID_10175_Energie_neutraal
 ----------------------------------------
 Structure from the checkpoint file:  "JID_10175.chk"
 Charge =  0 Multiplicity = 1

 SCF Done:  E(RB3LYP) =  -973.791114426     A.U. after   15 cycles
 Normal termination of Gaussian 16 at Mon Dec 14 18:20:39 2020.

 ----------------------------------------------------------------------
 # B3LYP/6-311++G(d,p) empiricaldispersion=gd3bj scf=xqc pop=npa geom=c
 heck
 ----------------------------------------------------------------------

 --------------------------------------
 CID_110458250_JID_10175_Energie_kation
 --------------------------------------
 Structure from the checkpoint file:  "JID_10175.chk"
 Charge =  1 Multiplicity = 2

 SCF Done:  E(UB3LYP) =  -973.487809294     A.U. after   29 cycles
 Normal termination of Gaussian 16 at Mon Dec 14 18:39:24 2020.
 Gaussian 16:  ES64L-G16RevA.03 25-Dec-2016

 ----------------------------------------------------------------------
 # B3LYP/6-311++G(d,p) empiricaldispersion=gd3bj scf=xqc pop=npa geom=c
 heck
 ----------------------------------------------------------------------

 -------------------------------------
 CID_110458250_JID_10175_Energie_anion
 -------------------------------------
 Structure from the checkpoint file:  "JID_10175.chk"
 Charge = -1 Multiplicity = 2

                         Standard orientation:
 ---------------------------------------------------------------------
 Center     Atomic      Atomic             Coordinates (Angstroms)
 Number     Number       Type             X           Y           Z
 ---------------------------------------------------------------------
      1          6           0        1.549109    3.290424    0.722381
      2          8           0        2.305490    2.623558   -0.278443
      3          6           0        2.383515    1.264360   -0.217690
      4          6           0        3.125290    0.645121   -1.235043
      5          6           0        3.246973   -0.737321   -1.249445
      6          6           0        2.625688   -1.519635   -0.269490
      7          6           0        1.877021   -0.910754    0.738778
      8          6           0        1.774753    0.489186    0.771503
      9          6           0        1.098102   -1.729207    1.743835
     10          6           0       -0.378667   -1.957863    1.311916
     11          6           0       -0.538390   -2.690648   -0.032945
     12          6           0       -0.977120   -1.624902   -1.025808
     13          8           0       -1.084825   -1.712414   -2.228654
     14          7           0       -1.273567   -0.475445   -0.288362
     15          6           0       -1.038561   -0.601976    1.072813
     16          8           0       -1.271072    0.270597    1.886579
     17          6           0       -1.735460    0.753925   -0.885320
     18          6           0       -3.102948    1.201383   -0.398549
     19          8           0       -3.464977    2.353398   -0.385132
     20          8           0       -3.887339    0.161953   -0.039667
     21          1           0        1.592985    4.351333    0.472363
     22          1           0        1.977199    3.131807    1.720430
     23          1           0        0.502626    2.958885    0.728001
     24          1           0        3.592973    1.266887   -1.991146
     25          1           0        3.827319   -1.214974   -2.033535
     26          1           0        2.729775   -2.600979   -0.290966
     27          1           0        1.197288    0.952959    1.560859
     28          1           0        1.565742   -2.709426    1.886998
     29          1           0        1.084111   -1.224465    2.715332
     30          1           0       -0.902881   -2.464755    2.127249
     31          1           0       -1.316663   -3.460345    0.006339
     32          1           0        0.376682   -3.164042   -0.394587
     33          1           0       -1.029929    1.564086   -0.687977
     34          1           0       -1.781048    0.580746   -1.965438
     35          1           0       -4.735258    0.551092    0.245530
 ---------------------------------------------------------------------

 SCF Done:  E(UB3LYP) =  -973.785383160     A.U. after   33 cycles
 SCF Done:  E(UB3LYP) =  -973.785383160     a.u. after    1 cycles

 The electronic state is 2-A.
 Alpha  occ. eigenvalues --  -19.08341 -19.06320 -19.03007 -19.00623 -19.00471
 Alpha  occ. eigenvalues --  -14.26699 -10.22346 -10.17981 -10.17830 -10.13627
 Alpha  occ. eigenvalues --  -10.13618 -10.13575 -10.09440 -10.08344 -10.08284
 Alpha  occ. eigenvalues --  -10.07945 -10.07506 -10.06860 -10.06693 -10.06536
 Alpha  occ. eigenvalues --   -1.02575  -0.97892  -0.96800  -0.94663  -0.93772
 Alpha  occ. eigenvalues --   -0.86046  -0.76176  -0.73283  -0.68321  -0.65636
 Alpha  occ. eigenvalues --   -0.64662  -0.61542  -0.60099  -0.56427  -0.53666
 Alpha  occ. eigenvalues --   -0.51878  -0.50145  -0.49072  -0.46714  -0.43298
 Alpha  occ. eigenvalues --   -0.41298  -0.40122  -0.39926  -0.39079  -0.38935
 Alpha  occ. eigenvalues --   -0.38390  -0.38115  -0.36960  -0.35557  -0.35195
 Alpha  occ. eigenvalues --   -0.34435  -0.32952  -0.32554  -0.32197  -0.31380
 Alpha  occ. eigenvalues --   -0.31177  -0.30663  -0.29270  -0.28993  -0.28310
 Alpha  occ. eigenvalues --   -0.28241  -0.26634  -0.25560  -0.25120  -0.24028
 Alpha  occ. eigenvalues --   -0.22718  -0.22474  -0.20866  -0.18503  -0.17900
 Alpha  occ. eigenvalues --   -0.16102  -0.15373  -0.12959   0.04212
 Alpha virt. eigenvalues --    0.06333   0.06516   0.06857   0.07710   0.08033
 Alpha virt. eigenvalues --    0.08314   0.08934   0.09308   0.09536   0.09949
 Alpha virt. eigenvalues --    0.10281   0.10766   0.11420   0.11948   0.12291

  Beta  occ. eigenvalues --  -19.08305 -19.06322 -19.02996 -19.00526 -19.00389
  Beta  occ. eigenvalues --  -14.26732 -10.22340 -10.17910 -10.17700 -10.13644
  Beta  occ. eigenvalues --  -10.13617 -10.13567 -10.09410 -10.08331 -10.08276
  Beta  occ. eigenvalues --  -10.07854 -10.07454 -10.06872 -10.06602 -10.06466
  Beta  occ. eigenvalues --   -1.02529  -0.97896  -0.96653  -0.94492  -0.93733
  Beta  occ. eigenvalues --   -0.85991  -0.76052  -0.73213  -0.68205  -0.65580
  Beta  occ. eigenvalues --   -0.64552  -0.61449  -0.59993  -0.56274  -0.53572
  Beta  occ. eigenvalues --   -0.51757  -0.50074  -0.48990  -0.46644  -0.43252
  Beta  occ. eigenvalues --   -0.41186  -0.40057  -0.39861  -0.38989  -0.38862
  Beta  occ. eigenvalues --   -0.38287  -0.38089  -0.36885  -0.35476  -0.35111
  Beta  occ. eigenvalues --   -0.34335  -0.32891  -0.32435  -0.32084  -0.31281
  Beta  occ. eigenvalues --   -0.31075  -0.30473  -0.29085  -0.28860  -0.28232
  Beta  occ. eigenvalues --   -0.28089  -0.26554  -0.25517  -0.24919  -0.23981
  Beta  occ. eigenvalues --   -0.22614  -0.22319  -0.20772  -0.18421  -0.17724
  Beta  occ. eigenvalues --   -0.16005  -0.14856  -0.12704
  Beta virt. eigenvalues --    0.06531   0.07106   0.07300   0.07568   0.07844
  Beta virt. eigenvalues --    0.08374   0.09053   0.09195   0.09462   0.09853
  Beta virt. eigenvalues --    0.10201   0.10425   0.10875   0.11702   0.12048

 Mulliken charges and spin densities:
               1          2
     1  C   -0.223397  -0.119598
     2  O   -0.125344   0.002920
     3  C   -0.871312  -0.078041
     4  C   -0.025187  -0.031224
     5  C   -0.234464  -0.033516
     6  C   -0.074368  -0.245293
     7  C    0.425674   0.612106
     8  C   -0.124774   0.434313
     9  C    0.011693  -1.026142
    10  C    0.083142   0.630945
    11  C    1.031063  -1.566928
    12  C   -0.324267   0.392398
    13  O   -0.323573   0.039726
    14  N    0.448232  -0.019213
    15  C   -0.116013  -0.648003
    16  O   -0.247274   0.045342
    17  C   -0.195534  -0.131779
    18  C    0.232128  -0.110664
    19  O   -0.265028   0.009816
    20  O   -0.172069   0.013044
    21  H    0.096431   0.064617
    22  H    0.040718   0.107762
    23  H    0.202362  -0.016624
    24  H    0.130389   0.017420
    25  H    0.106794   0.044100
    26  H   -0.013032   0.137334
    27  H    0.126379   0.097014
    28  H   -0.227257   0.426551
    29  H    0.065242   0.098808
    30  H   -0.389034   0.672470
    31  H   -0.525843   0.751760
    32  H    0.248460  -0.075528
    33  H    0.201728  -0.002627
    34  H    0.150374   0.077180
    35  H   -0.123039   0.429556
 Sum of Mulliken charges =  -1.00000   1.00000

 Dipole moment (field-independent basis, Debye):
    X=              4.2417    Y=              3.5793    Z=             -1.4356  Tot=              5.7327
 Quadrupole moment (field-independent basis, Debye-Ang):
   XX=           -173.2562   YY=           -162.0254   ZZ=           -151.5287
   XY=             -3.0160   XZ=              0.9818   YZ=              3.8144

 Summary of Natural Population Analysis:

                                       Natural Population
                Natural  -----------------------------------------------
    Atom  No    Charge         Core      Valence    Rydberg      Total
 -----------------------------------------------------------------------
      C    1   -0.10124      0.99960     2.09375    0.00789     3.10124
      O    2   -0.27530      0.99985     3.26652    0.00893     4.27530
      C    3    0.15574      0.99938     1.83052    0.01435     2.84426
      C    4   -0.11080      0.99953     2.10218    0.00910     3.11080
      C    5   -0.08452      0.99957     2.07591    0.00904     3.08452
      C    6   -0.12178      0.99950     2.11262    0.00966     3.12178
      C    7    0.00013      0.99951     1.98988    0.01047     2.99987
      C    8   -0.13981      0.99946     2.13220    0.00815     3.13981
      C    9   -0.18802      0.99958     2.17776    0.01068     3.18802
      C   10   -0.14468      0.99956     2.13232    0.01280     3.14468
      C   11   -0.23410      0.99959     2.22533    0.00919     3.23410
      C   12    0.38062      0.99966     1.59724    0.02248     2.61938
      O   13   -0.29606      0.99987     3.29106    0.00513     4.29606
      N   14   -0.26726      0.99958     2.75628    0.01141     3.76726
      C   15    0.37797      0.99963     1.59762    0.02478     2.62203
      O   16   -0.29844      0.99987     3.29305    0.00551     4.29844
      C   17   -0.13926      0.99956     2.12749    0.01221     3.13926
      C   18    0.40677      0.99974     1.56817    0.02533     2.59323
      O   19   -0.30510      0.99987     3.29907    0.00616     4.30510
      O   20   -0.33720      0.99987     3.33054    0.00679     4.33720
      H   21    0.09008      0.00000     0.40908    0.00084     0.40992
      H   22    0.08457      0.00000     0.41421    0.00122     0.41543
      H   23    0.08860      0.00000     0.41004    0.00137     0.41140
      H   24    0.10157      0.00000     0.39745    0.00098     0.39843
      H   25    0.09701      0.00000     0.40225    0.00074     0.40299
      H   26    0.09819      0.00000     0.40080    0.00101     0.40181
      H   27    0.11089      0.00000     0.38690    0.00221     0.38911
      H   28    0.10369      0.00000     0.39515    0.00116     0.39631
      H   29    0.10978      0.00000     0.38902    0.00121     0.39022
      H   30    0.11647      0.00000     0.38127    0.00225     0.38353
      H   31    0.12247      0.00000     0.37412    0.00341     0.37753
      H   32    0.11408      0.00000     0.38471    0.00121     0.38592
      H   33    0.11407      0.00000     0.38474    0.00120     0.38593
      H   34    0.12810      0.00000     0.37079    0.00111     0.37190
      H   35    0.24279      0.00000     0.25064    0.00657     0.25721
 =======================================================================
   * Total *    0.00000     19.99279    52.75066    0.25655    73.00000

 Normal termination of Gaussian 16 at Mon Dec 14 19:00:46 2020.
