 Gaussian 16, Revision A.03,

 -----------------------------------------------------------
 # opt freq B3LYP/6-31G(d) empiricaldispersion=gd3bj scf=xqc
 -----------------------------------------------------------

 -------------------------------
 CID_130412396_JID_1614_neutraal
 -------------------------------
 Symbolic Z-matrix:
 Charge =  0 Multiplicity = 1

 SCF Done:  E(RB3LYP) =  -446.023097637     A.U. after   14 cycles
 SCF Done:  E(RB3LYP) =  -446.030476994     A.U. after   11 cycles
 SCF Done:  E(RB3LYP) =  -446.030708575     A.U. after   12 cycles
 SCF Done:  E(RB3LYP) =  -446.031357855     A.U. after   12 cycles
 SCF Done:  E(RB3LYP) =  -446.031683938     A.U. after   11 cycles
 SCF Done:  E(RB3LYP) =  -446.032053277     A.U. after   12 cycles
 SCF Done:  E(RB3LYP) =  -446.032226882     A.U. after   11 cycles
 SCF Done:  E(RB3LYP) =  -446.032337387     A.U. after   11 cycles
 SCF Done:  E(RB3LYP) =  -446.032373644     A.U. after   10 cycles
 SCF Done:  E(RB3LYP) =  -446.032386505     A.U. after   10 cycles
 SCF Done:  E(RB3LYP) =  -446.032394857     A.U. after    9 cycles
 SCF Done:  E(RB3LYP) =  -446.032395934     A.U. after    8 cycles
 SCF Done:  E(RB3LYP) =  -446.032396115     A.U. after    7 cycles
 SCF Done:  E(RB3LYP) =  -446.032396176     A.U. after    7 cycles
 Optimization completed.
    -- Stationary point found.
 Normal termination of Gaussian 16 at Tue Dec  8 19:47:53 2020.

 --------------------------------------------------------------------
 #N Geom=AllCheck Guess=TCheck SCRF=Check GenChk RB3LYP/6-31G(d) Freq
 --------------------------------------------------------------------

 Structure from the checkpoint file:  "JID_1614.chk"
 -------------------------------
 CID_130412396_JID_1614_neutraal
 -------------------------------
 Charge =  0 Multiplicity = 1

 SCF Done:  E(RB3LYP) =  -446.032396176     A.U. after    1 cycles

  Exact polarizability: 153.523  -7.712 100.000   3.374  -2.131  88.055
 Approx polarizability: 202.774 -14.602 144.713   3.866  -4.066 130.219

                      1                      2                      3
                      A                      A                      A
 Frequencies --     27.7372                60.8195                75.9311
 Red. masses --      2.9355                 2.9860                 3.0404
 Frc consts  --      0.0013                 0.0065                 0.0103
 IR Inten    --      0.1025                 0.1187                 0.6547

                      4                      5                      6
                      A                      A                      A
 Frequencies --    124.0682               141.2453               166.9855
 Red. masses --      2.0339                 1.2019                 1.2415
 Frc consts  --      0.0184                 0.0141                 0.0204
 IR Inten    --      0.5202                 1.0395                 0.5636

                      7                      8                      9
                      A                      A                      A
 Frequencies --    183.3184               197.6959               240.9402
 Red. masses --      1.0711                 1.8382                 2.5810
 Frc consts  --      0.0212                 0.0423                 0.0883
 IR Inten    --      0.2186                 0.8734                 2.4706

                     10                     11                     12
                      A                      A                      A
 Frequencies --    255.2386               276.2020               322.6420
 Red. masses --      2.7930                 2.7679                 2.6234
 Frc consts  --      0.1072                 0.1244                 0.1609
 IR Inten    --      1.0104                 1.3373                 0.3899

                     13                     14                     15
                      A                      A                      A
 Frequencies --    368.1409               407.4578               482.0360
 Red. masses --      3.6447                 3.5729                 2.6624
 Frc consts  --      0.2910                 0.3495                 0.3645
 IR Inten    --      1.6388                 2.7430                 2.1487

                     16                     17                     18
                      A                      A                      A
 Frequencies --    521.5127               597.5472               615.7561
 Red. masses --      2.6731                 2.5972                 2.4218
 Frc consts  --      0.4283                 0.5464                 0.5410
 IR Inten    --     17.7536                 0.0757                 1.8701

                     19                     20                     21
                      A                      A                      A
 Frequencies --    683.8996               759.9953               798.9123
 Red. masses --      2.5972                 1.8552                 1.2063
 Frc consts  --      0.7157                 0.6313                 0.4536
 IR Inten    --      3.4067                 2.7982                 0.5590

                     22                     23                     24
                      A                      A                      A
 Frequencies --    833.3584               897.2018               925.2753
 Red. masses --      2.8108                 2.1621                 1.6553
 Frc consts  --      1.1501                 1.0254                 0.8350
 IR Inten    --      8.9836                 4.1407                 5.1738

                     25                     26                     27
                      A                      A                      A
 Frequencies --    933.3696               944.5112               956.2326
 Red. masses --      2.3290                 2.2998                 1.8366
 Frc consts  --      1.1954                 1.2088                 0.9894
 IR Inten    --      2.3813                 1.5199                 0.6360

                     28                     29                     30
                      A                      A                      A
 Frequencies --    980.5829              1002.6398              1024.8624
 Red. masses --      2.8190                 1.8574                 1.3956
 Frc consts  --      1.5970                 1.1001                 0.8637
 IR Inten    --     10.2055                 6.2659                 4.6150

                     31                     32                     33
                      A                      A                      A
 Frequencies --   1048.4655              1061.4876              1074.4684
 Red. masses --      1.9639                 1.4599                 1.7775
 Frc consts  --      1.2720                 0.9692                 1.2091
 IR Inten    --      0.6835                 2.8503                 0.3605

                     34                     35                     36
                      A                      A                      A
 Frequencies --   1096.9373              1145.5401              1160.2766
 Red. masses --      1.9175                 1.3735                 2.0676
 Frc consts  --      1.3594                 1.0619                 1.6400
 IR Inten    --      3.7647                 2.4998                14.3198

                     37                     38                     39
                      A                      A                      A
 Frequencies --   1176.1389              1203.8007              1214.6500
 Red. masses --      1.6166                 3.6078                 1.3392
 Frc consts  --      1.3175                 3.0804                 1.1642
 IR Inten    --      5.5934                 5.8771                 0.4082

                     40                     41                     42
                      A                      A                      A
 Frequencies --   1252.7984              1268.7179              1277.7309
 Red. masses --      1.3715                 1.3020                 1.1823
 Frc consts  --      1.2682                 1.2348                 1.1373
 IR Inten    --      3.1332                 0.2933                 0.7252

                     43                     44                     45
                      A                      A                      A
 Frequencies --   1293.0450              1302.4946              1322.2929
 Red. masses --      1.4682                 1.3376                 3.6692
 Frc consts  --      1.4463                 1.3370                 3.7798
 IR Inten    --      0.4127                 0.6394                 7.3404

                     46                     47                     48
                      A                      A                      A
 Frequencies --   1394.6195              1422.0602              1436.3968
 Red. masses --      1.4359                 1.2433                 1.2128
 Frc consts  --      1.6455                 1.4814                 1.4743
 IR Inten    --      0.1817                15.6753                 3.4796

                     49                     50                     51
                      A                      A                      A
 Frequencies --   1448.7775              1457.1849              1504.5150
 Red. masses --      1.2277                 1.1756                 1.0468
 Frc consts  --      1.5183                 1.4707                 1.3961
 IR Inten    --      2.0756                10.5669                 8.2628

                     52                     53                     54
                      A                      A                      A
 Frequencies --   1508.5138              1509.8566              1518.4302
 Red. masses --      1.0880                 1.0641                 1.0773
 Frc consts  --      1.4587                 1.4293                 1.4634
 IR Inten    --      1.2002                 2.7907                 2.1159

                     55                     56                     57
                      A                      A                      A
 Frequencies --   1519.8126              1523.8273              1532.9719
 Red. masses --      1.0707                 1.0595                 1.0471
 Frc consts  --      1.4572                 1.4496                 1.4498
 IR Inten    --      3.8225                 5.7131                 6.5975

                     58                     59                     60
                      A                      A                      A
 Frequencies --   1538.3938              1543.4195              1703.2360
 Red. masses --      1.0542                 1.1308                 7.0259
 Frc consts  --      1.4699                 1.5871                12.0088
 IR Inten    --      8.4316                 1.2050                 5.5362

                     61                     62                     63
                      A                      A                      A
 Frequencies --   1730.6419              3017.7940              3040.6436
 Red. masses --      9.2191                 1.0363                 1.0417
 Frc consts  --     16.2687                 5.5606                 5.6747
 IR Inten    --    114.7000                42.5890                23.7551

                     64                     65                     66
                      A                      A                      A
 Frequencies --   3042.1874              3068.2658              3071.5535
 Red. masses --      1.0411                 1.0577                 1.0591
 Frc consts  --      5.6771                 5.8668                 5.8873
 IR Inten    --     21.0954                32.7090                45.6818

                     67                     68                     69
                      A                      A                      A
 Frequencies --   3079.1912              3080.9020              3083.1468
 Red. masses --      1.0636                 1.0832                 1.1006
 Frc consts  --      5.9416                 6.0577                 6.1642
 IR Inten    --     37.5550                26.0618                30.3029

                     70                     71                     72
                      A                      A                      A
 Frequencies --   3085.3316              3090.8552              3098.0559
 Red. masses --      1.0981                 1.0893                 1.0975
 Frc consts  --      6.1587                 6.1315                 6.2066
 IR Inten    --     24.8840                15.0426                22.7432

                     73                     74                     75
                      A                      A                      A
 Frequencies --   3100.7848              3113.7172              3122.4161
 Red. masses --      1.0996                 1.1053                 1.1089
 Frc consts  --      6.2291                 6.3137                 6.3696
 IR Inten    --     28.6836                17.9719                17.0163

                     76                     77                     78
                      A                      A                      A
 Frequencies --   3136.2246              3138.3028              3149.3252
 Red. masses --      1.1044                 1.1000                 1.0962
 Frc consts  --      6.4001                 6.3833                 6.4058
 IR Inten    --     68.8584                29.1769                20.7824

 - Thermochemistry -
 -------------------
 Temperature   298.150 Kelvin.  Pressure   1.00000 Atm.
 Atom     1 has atomic number  6 and mass  12.00000

 Molecular mass:   151.13610 amu.
 Principal axes and moments of inertia in atomic units:
                           1         2         3
     Eigenvalues --   745.766563324.407683564.96601
           X            0.99991  -0.01117   0.00780
           Y            0.01125   0.99989  -0.00994
           Z           -0.00769   0.01003   0.99992
 This molecule is an asymmetric top.
 Rotational symmetry number  1.
 Warning -- assumption of classical behavior for rotation
           may cause significant error
 Rotational temperatures (Kelvin)      0.11614     0.02605     0.02430
 Rotational constants (GHZ):           2.41998     0.54288     0.50624
 Zero-point vibrational energy     661034.4 (Joules/Mol)
                                  157.99100 (Kcal/Mol)
 Warning -- explicit consideration of  18 degrees of freedom as
           vibrations may cause significant error
 Vibrational temperatures:     39.91    87.51   109.25   178.51   203.22
          (Kelvin)            240.25   263.75   284.44   346.66   367.23
                              397.39   464.21   529.67   586.24   693.54
                              750.34   859.74   885.94   983.98  1093.46
                             1149.46  1199.02  1290.87  1331.26  1342.91
                             1358.94  1375.81  1410.84  1442.57  1474.55
                             1508.51  1527.24  1545.92  1578.25  1648.18
                             1669.38  1692.20  1732.00  1747.61  1802.50
                             1825.40  1838.37  1860.40  1874.00  1902.48
                             2006.55  2046.03  2066.65  2084.47  2096.56
                             2164.66  2170.41  2172.35  2184.68  2186.67
                             2192.45  2205.60  2213.41  2220.64  2450.58
                             2490.01  4341.93  4374.81  4377.03  4414.55
                             4419.28  4430.27  4432.73  4435.96  4439.10
                             4447.05  4457.41  4461.34  4479.94  4492.46
                             4512.33  4515.32  4531.18

 Zero-point correction=                           0.251775 (Hartree/Particle)
 Thermal correction to Energy=                    0.264483
 Thermal correction to Enthalpy=                  0.265427
 Thermal correction to Gibbs Free Energy=         0.212244
 Sum of electronic and zero-point Energies=           -445.780621
 Sum of electronic and thermal Energies=              -445.767913
 Sum of electronic and thermal Enthalpies=            -445.766969
 Sum of electronic and thermal Free Energies=         -445.820153

                     E (Thermal)             CV                S
                      KCal/Mol        Cal/Mol-Kelvin    Cal/Mol-Kelvin
 Total                  165.966             46.386            111.934
 Electronic               0.000              0.000              0.000
 Translational            0.889              2.981             40.949
 Rotational               0.889              2.981             30.559
 Vibrational            164.188             40.425             40.427
 Vibration     1          0.593              1.984              5.985
 Vibration     2          0.597              1.973              4.430
 Vibration     3          0.599              1.965              3.993
 Vibration     4          0.610              1.929              3.036
 Vibration     5          0.615              1.912              2.787
 Vibration     6          0.624              1.883              2.469
 Vibration     7          0.631              1.863              2.294
 Vibration     8          0.637              1.843              2.154
 Vibration     9          0.658              1.778              1.796
 Vibration    10          0.666              1.754              1.694
 Vibration    11          0.678              1.717              1.557
 Vibration    12          0.708              1.630              1.297
 Vibration    13          0.741              1.538              1.088
 Vibration    14          0.772              1.454              0.936
 Vibration    15          0.838              1.290              0.705
 Vibration    16          0.876              1.202              0.606
 Vibration    17          0.955              1.037              0.454
 Vibration    18          0.975              0.999              0.423

                           ! Non-Optimized Parameters !
 Normal termination of Gaussian 16 at Tue Dec  8 19:54:40 2020.

 ----------------------------------------------------------------------
 # B3LYP/6-311++G(d,p) empiricaldispersion=gd3bj scf=xqc pop=npa geom=c
 heck
 ----------------------------------------------------------------------

 ---------------------------------------
 CID_130412396_JID_1614_Energie_neutraal
 ---------------------------------------
 Structure from the checkpoint file:  "JID_1614.chk"
 Charge =  0 Multiplicity = 1

 SCF Done:  E(RB3LYP) =  -446.152746352     A.U. after   14 cycles
 Normal termination of Gaussian 16 at Tue Dec  8 19:57:36 2020.

 ----------------------------------------------------------------------
 # B3LYP/6-311++G(d,p) empiricaldispersion=gd3bj scf=xqc pop=npa geom=c
 heck
 ----------------------------------------------------------------------

 -------------------------------------
 CID_130412396_JID_1614_Energie_kation
 -------------------------------------
 Structure from the checkpoint file:  "JID_1614.chk"
 Charge =  1 Multiplicity = 2

 SCF Done:  E(UB3LYP) =  -445.849065744     A.U. after   23 cycles
 Normal termination of Gaussian 16 at Tue Dec  8 20:04:20 2020.
 Gaussian 16:  ES64L-G16RevA.03 25-Dec-2016

 ----------------------------------------------------------------------
 # B3LYP/6-311++G(d,p) empiricaldispersion=gd3bj scf=xqc pop=npa geom=c
 heck
 ----------------------------------------------------------------------

 ------------------------------------
 CID_130412396_JID_1614_Energie_anion
 ------------------------------------
 Structure from the checkpoint file:  "JID_1614.chk"
 Charge = -1 Multiplicity = 2

                         Standard orientation:
 ---------------------------------------------------------------------
 Center     Atomic      Atomic             Coordinates (Angstroms)
 Number     Number       Type             X           Y           Z
 ---------------------------------------------------------------------
      1          6           0        1.074930   -1.719726   -0.379771
      2          6           0        0.947209   -0.204322   -0.354673
      3          6           0       -0.221629    0.425932   -0.106797
      4          6           0       -0.341459    1.929529   -0.093152
      5          6           0       -1.486395   -0.341742    0.168008
      6          6           0       -2.572719    0.199940    1.146294
      7          6           0       -3.657732   -0.362680    0.192409
      8          6           0       -2.595113   -0.382967   -0.934641
      9          6           0        2.176961    0.570065   -0.700959
     10          7           0        3.344790    0.495177   -0.193162
     11          6           0        3.577235   -0.368135    0.954372
     12          1           0        0.338228   -2.169127   -1.054939
     13          1           0        0.930337   -2.170383    0.610297
     14          1           0        2.064763   -2.020093   -0.732143
     15          1           0       -1.218759    2.262899   -0.661649
     16          1           0       -0.473329    2.299959    0.931870
     17          1           0        0.539641    2.427317   -0.502687
     18          1           0       -1.251287   -1.370105    0.454351
     19          1           0       -2.545030   -0.169213    2.176298
     20          1           0       -2.595046    1.293265    1.168546
     21          1           0       -4.556310    0.240670    0.033090
     22          1           0       -3.962782   -1.374970    0.477340
     23          1           0       -2.608821    0.543530   -1.518429
     24          1           0       -2.580331   -1.230999   -1.626203
     25          1           0        2.075349    1.278954   -1.530265
     26          1           0        2.670276   -0.686047    1.487612
     27          1           0        4.126576   -1.263033    0.634116
     28          1           0        4.225267    0.165776    1.658390
 ---------------------------------------------------------------------

 SCF Done:  E(UB3LYP) =  -446.137691903     A.U. after   33 cycles
 SCF Done:  E(UB3LYP) =  -446.137691903     a.u. after    1 cycles

 The electronic state is 2-A.
 Alpha  occ. eigenvalues --  -14.19282 -10.09814 -10.08159 -10.07294 -10.06877
 Alpha  occ. eigenvalues --  -10.06873 -10.06384 -10.06344 -10.06182 -10.06043
 Alpha  occ. eigenvalues --  -10.05779  -0.80891  -0.74927  -0.69978  -0.63046
 Alpha  occ. eigenvalues --   -0.60424  -0.56524  -0.55402  -0.54050  -0.48046
 Alpha  occ. eigenvalues --   -0.43738  -0.40687  -0.38621  -0.37084  -0.35289
 Alpha  occ. eigenvalues --   -0.34940  -0.32813  -0.31882  -0.31499  -0.29877
 Alpha  occ. eigenvalues --   -0.28763  -0.27951  -0.27385  -0.26182  -0.25551
 Alpha  occ. eigenvalues --   -0.24699  -0.21337  -0.20957  -0.20543  -0.19297
 Alpha  occ. eigenvalues --   -0.13906  -0.12764   0.04719
 Alpha virt. eigenvalues --    0.06715   0.07353   0.07666   0.08046   0.08783
 Alpha virt. eigenvalues --    0.09826   0.10120   0.10459   0.10802   0.11449
 Alpha virt. eigenvalues --    0.12172   0.12851   0.13081   0.13400   0.14201

  Beta  occ. eigenvalues --  -14.19207 -10.09773 -10.08147 -10.07258 -10.06873
  Beta  occ. eigenvalues --  -10.06864 -10.06365 -10.06330 -10.06157 -10.06014
  Beta  occ. eigenvalues --  -10.05739  -0.80762  -0.74886  -0.69918  -0.62985
  Beta  occ. eigenvalues --   -0.60361  -0.56470  -0.55339  -0.53980  -0.47938
  Beta  occ. eigenvalues --   -0.43663  -0.40629  -0.38571  -0.37015  -0.35215
  Beta  occ. eigenvalues --   -0.34893  -0.32700  -0.31825  -0.31454  -0.29828
  Beta  occ. eigenvalues --   -0.28722  -0.27914  -0.27347  -0.26140  -0.25509
  Beta  occ. eigenvalues --   -0.24651  -0.21294  -0.20892  -0.20489  -0.19052
  Beta  occ. eigenvalues --   -0.13809  -0.12604
  Beta virt. eigenvalues --    0.06958   0.07485   0.07817   0.08274   0.08629
  Beta virt. eigenvalues --    0.09327   0.10170   0.10400   0.10973   0.11245
  Beta virt. eigenvalues --    0.11961   0.12455   0.13131   0.13405   0.13622

 Mulliken charges and spin densities:
               1          2
     1  C    0.864520  -1.349846
     2  C    1.210672  -0.525839
     3  C   -0.997193   1.191226
     4  C    0.079632  -0.749779
     5  C   -1.037045   1.220376
     6  C    0.413592  -0.872144
     7  C    0.112468  -0.344445
     8  C    0.567114  -1.167373
     9  C   -0.364178  -0.375546
    10  N   -0.123900   0.085566
    11  C    0.183517  -0.662927
    12  H   -0.351425   0.525228
    13  H   -0.440129   0.633219
    14  H    0.012015   0.138730
    15  H   -0.227685   0.382925
    16  H   -0.101158   0.273000
    17  H    0.211573  -0.067354
    18  H    0.099024   0.135344
    19  H   -0.533088   0.691571
    20  H    0.104697   0.008831
    21  H   -0.399742   0.559939
    22  H   -0.059625   0.176797
    23  H    0.011598   0.109895
    24  H   -0.075463   0.207814
    25  H   -0.048953   0.228750
    26  H    0.023150   0.108959
    27  H   -0.173325   0.335495
    28  H    0.039337   0.101591
 Sum of Mulliken charges =  -1.00000   1.00000

 Dipole moment (field-independent basis, Debye):
    X=              1.1847    Y=              2.4040    Z=             -1.2971  Tot=              2.9774
 Quadrupole moment (field-independent basis, Debye-Ang):
   XX=           -140.3610   YY=           -109.7871   ZZ=           -102.2734
   XY=              1.6992   XZ=              4.6182   YZ=              3.5804

 Summary of Natural Population Analysis:

                                       Natural Population
                Natural  -----------------------------------------------
    Atom  No    Charge         Core      Valence    Rydberg      Total
 -----------------------------------------------------------------------
      C    1   -0.30213      0.99963     2.29559    0.00691     3.30213
      C    2   -0.05465      0.99941     2.04408    0.01116     3.05465
      C    3    0.01556      0.99942     1.97468    0.01033     2.98444
      C    4   -0.29814      0.99962     2.29365    0.00487     3.29814
      C    5   -0.12473      0.99956     2.11140    0.01377     3.12473
      C    6   -0.18176      0.99963     2.17329    0.00884     3.18176
      C    7   -0.18872      0.99965     2.18178    0.00729     3.18872
      C    8   -0.17676      0.99962     2.17039    0.00675     3.17676
      C    9    0.06685      0.99957     1.91825    0.01533     2.93315
      N   10   -0.22636      0.99969     2.71368    0.01299     3.72636
      C   11   -0.20046      0.99963     2.19209    0.00873     3.20046
      H   12    0.10601      0.00000     0.39287    0.00112     0.39399
      H   13    0.10844      0.00000     0.38895    0.00262     0.39156
      H   14    0.10370      0.00000     0.39508    0.00121     0.39630
      H   15    0.10214      0.00000     0.39624    0.00161     0.39786
      H   16    0.10490      0.00000     0.39367    0.00143     0.39510
      H   17    0.10429      0.00000     0.39473    0.00098     0.39571
      H   18    0.10626      0.00000     0.39160    0.00214     0.39374
      H   19    0.09864      0.00000     0.39978    0.00158     0.40136
      H   20    0.09532      0.00000     0.40297    0.00170     0.40468
      H   21    0.09427      0.00000     0.40418    0.00155     0.40573
      H   22    0.09574      0.00000     0.40244    0.00183     0.40426
      H   23    0.09390      0.00000     0.40446    0.00164     0.40610
      H   24    0.09595      0.00000     0.40287    0.00118     0.40405
      H   25    0.08290      0.00000     0.41533    0.00177     0.41710
      H   26    0.08852      0.00000     0.40993    0.00155     0.41148
      H   27    0.09768      0.00000     0.40095    0.00138     0.40232
      H   28    0.09264      0.00000     0.40614    0.00122     0.40736
 =======================================================================
   * Total *    0.00000     10.99544    30.87108    0.13348    42.00000

 Normal termination of Gaussian 16 at Tue Dec  8 20:14:32 2020.
