 Gaussian 16, Revision A.03,

 -----------------------------------------------------------
 # opt freq B3LYP/6-31G(d) empiricaldispersion=gd3bj scf=xqc
 -----------------------------------------------------------

 ------------------------------
 CID_61666840_JID_7153_neutraal
 ------------------------------
 Symbolic Z-matrix:
 Charge =  0 Multiplicity = 1

 SCF Done:  E(RB3LYP) =  -877.611722597     A.U. after   15 cycles
 SCF Done:  E(RB3LYP) =  -877.619399001     A.U. after   12 cycles
 SCF Done:  E(RB3LYP) =  -877.618745246     A.U. after   12 cycles
 SCF Done:  E(RB3LYP) =  -877.621208835     A.U. after   11 cycles
 SCF Done:  E(RB3LYP) =  -877.621695701     A.U. after   12 cycles
 SCF Done:  E(RB3LYP) =  -877.623220967     A.U. after   12 cycles
 SCF Done:  E(RB3LYP) =  -877.623939880     A.U. after   13 cycles
 SCF Done:  E(RB3LYP) =  -877.624767363     A.U. after   11 cycles
 SCF Done:  E(RB3LYP) =  -877.625391450     A.U. after   13 cycles
 SCF Done:  E(RB3LYP) =  -877.626215265     A.U. after   12 cycles
 SCF Done:  E(RB3LYP) =  -877.629866855     A.U. after   10 cycles
 SCF Done:  E(RB3LYP) =  -877.629868969     A.U. after    8 cycles
 SCF Done:  E(RB3LYP) =  -877.629869225     A.U. after    8 cycles
 SCF Done:  E(RB3LYP) =  -877.629869433     A.U. after    8 cycles
 SCF Done:  E(RB3LYP) =  -877.629869467     A.U. after    7 cycles
 Optimization completed.
    -- Stationary point found.
 Normal termination of Gaussian 16 at Sun Dec 13 12:42:05 2020.

 --------------------------------------------------------------------
 #N Geom=AllCheck Guess=TCheck SCRF=Check GenChk RB3LYP/6-31G(d) Freq
 --------------------------------------------------------------------

 Structure from the checkpoint file:  "JID_7153.chk"
 ------------------------------
 CID_61666840_JID_7153_neutraal
 ------------------------------
 Charge =  0 Multiplicity = 1

 SCF Done:  E(RB3LYP) =  -877.629869466     A.U. after    1 cycles

  Exact polarizability: 139.243  -0.394 140.297   4.227  -5.409 109.214
 Approx polarizability: 183.552   5.249 201.670  18.623 -19.344 166.212

                      1                      2                      3
                      A                      A                      A
 Frequencies --     21.2779                24.3907                31.1954
 Red. masses --      5.3037                 4.3439                 8.2858
 Frc consts  --      0.0014                 0.0015                 0.0048
 IR Inten    --      1.4265                 0.5277                 0.6104

                      4                      5                      6
                      A                      A                      A
 Frequencies --     40.0659                63.5254                76.3501
 Red. masses --      5.7453                 4.5180                 2.6268
 Frc consts  --      0.0054                 0.0107                 0.0090
 IR Inten    --      1.3777                 2.4849                 0.0702

                      7                      8                      9
                      A                      A                      A
 Frequencies --     93.6401               114.1356               119.0497
 Red. masses --      6.1949                 2.1816                 3.8417
 Frc consts  --      0.0320                 0.0167                 0.0321
 IR Inten    --      2.9820                 1.3207                 0.6563

                     10                     11                     12
                      A                      A                      A
 Frequencies --    136.9892               149.1888               191.8945
 Red. masses --      1.3914                 4.5883                 4.4082
 Frc consts  --      0.0154                 0.0602                 0.0956
 IR Inten    --      0.1284                 0.3473                 2.6665

                     13                     14                     15
                      A                      A                      A
 Frequencies --    209.6071               233.0444               242.7483
 Red. masses --      2.2752                 1.4584                 2.5068
 Frc consts  --      0.0589                 0.0467                 0.0870
 IR Inten    --      4.5414                 1.3273                 0.2435

                     16                     17                     18
                      A                      A                      A
 Frequencies --    250.2438               256.2532               273.0078
 Red. masses --      1.2722                 1.3109                 3.0520
 Frc consts  --      0.0469                 0.0507                 0.1340
 IR Inten    --      1.1610                 0.5195                 0.6188

                     19                     20                     21
                      A                      A                      A
 Frequencies --    301.5893               329.6866               349.5700
 Red. masses --      3.5911                 3.3320                 3.2937
 Frc consts  --      0.1924                 0.2134                 0.2371
 IR Inten    --      9.2391                 5.9620                 5.3334

                     22                     23                     24
                      A                      A                      A
 Frequencies --    365.3335               383.7216               436.6714
 Red. masses --      4.6973                 3.1780                 2.7254
 Frc consts  --      0.3694                 0.2757                 0.3062
 IR Inten    --      0.6939                 0.5150                 1.1824

                     25                     26                     27
                      A                      A                      A
 Frequencies --    457.9810               481.3682               555.6151
 Red. masses --      3.8098                 2.9859                 3.4714
 Frc consts  --      0.4708                 0.4076                 0.6314
 IR Inten    --      1.6585                 2.1127                22.1347

                     28                     29                     30
                      A                      A                      A
 Frequencies --    589.3290               613.3329               632.4541
 Red. masses --      3.0330                 1.7400                 2.1035
 Frc consts  --      0.6206                 0.3857                 0.4957
 IR Inten    --     82.2782                67.9010                45.7089

                     31                     32                     33
                      A                      A                      A
 Frequencies --    709.4358               744.7346               757.3563
 Red. masses --      2.0017                 2.5721                 3.3853
 Frc consts  --      0.5936                 0.8405                 1.1441
 IR Inten    --     85.0548                 8.1142                11.7739

                     34                     35                     36
                      A                      A                      A
 Frequencies --    768.3223               777.7970               817.8560
 Red. masses --      4.0654                 3.3316                 3.6464
 Frc consts  --      1.4140                 1.1875                 1.4371
 IR Inten    --     48.2497                 5.8667               104.7390

                     37                     38                     39
                      A                      A                      A
 Frequencies --    851.0158               879.1992               913.5938
 Red. masses --      2.5258                 2.6826                 2.6239
 Frc consts  --      1.0778                 1.2217                 1.2903
 IR Inten    --     10.7581                 4.8263                 3.3864

                     40                     41                     42
                      A                      A                      A
 Frequencies --    932.3608               951.4438               960.4897
 Red. masses --      2.3373                 1.3010                 1.9877
 Frc consts  --      1.1971                 0.6939                 1.0804
 IR Inten    --      3.1782                 3.1321                 7.6334

                     43                     44                     45
                      A                      A                      A
 Frequencies --    984.0871               991.2478              1039.9706
 Red. masses --      1.5278                 3.3846                 3.6021
 Frc consts  --      0.8717                 1.9594                 2.2954
 IR Inten    --      0.9742                 5.0931                46.6387

                     46                     47                     48
                      A                      A                      A
 Frequencies --   1069.9178              1094.5557              1122.3158
 Red. masses --      1.8218                 2.6887                 2.8216
 Frc consts  --      1.2287                 1.8979                 2.0940
 IR Inten    --     93.6043                 1.7170                18.1173

                     49                     50                     51
                      A                      A                      A
 Frequencies --   1152.0481              1168.6406              1186.2112
 Red. masses --      2.0757                 2.8634                 1.2902
 Frc consts  --      1.6232                 2.3041                 1.0696
 IR Inten    --     17.1878                56.8795                 2.5680

                     52                     53                     54
                      A                      A                      A
 Frequencies --   1189.9325              1204.0594              1210.0949
 Red. masses --      2.6957                 1.8525                 1.9283
 Frc consts  --      2.2489                 1.5824                 1.6637
 IR Inten    --     96.9533                99.0778               139.5151

                     55                     56                     57
                      A                      A                      A
 Frequencies --   1215.2783              1234.9190              1318.1243
 Red. masses --      1.6274                 2.1438                 1.3519
 Frc consts  --      1.4161                 1.9263                 1.3839
 IR Inten    --     13.0952               172.9542                11.4763

                     58                     59                     60
                      A                      A                      A
 Frequencies --   1345.9171              1359.4540              1373.8915
 Red. masses --      1.3419                 1.5166                 1.9373
 Frc consts  --      1.4322                 1.6514                 2.1546
 IR Inten    --      7.3556                35.6995                78.9024

                     61                     62                     63
                      A                      A                      A
 Frequencies --   1381.2984              1386.9913              1409.4435
 Red. masses --      1.5617                 1.6115                 1.6941
 Frc consts  --      1.7556                 1.8265                 1.9829
 IR Inten    --     46.8236                35.1278                85.9918

                     64                     65                     66
                      A                      A                      A
 Frequencies --   1415.0379              1432.6245              1436.5623
 Red. masses --      1.8657                 1.4130                 1.4529
 Frc consts  --      2.2011                 1.7087                 1.7666
 IR Inten    --    169.2332                60.3620                69.9555

                     67                     68                     69
                      A                      A                      A
 Frequencies --   1453.8821              1481.8264              1491.6062
 Red. masses --      1.2248                 1.3304                 1.2260
 Frc consts  --      1.5254                 1.7212                 1.6071
 IR Inten    --      3.6036                21.6023                11.3781

                     70                     71                     72
                      A                      A                      A
 Frequencies --   1496.3602              1513.1456              1518.9375
 Red. masses --      1.2806                 1.0483                 1.0511
 Frc consts  --      1.6894                 1.4142                 1.4288
 IR Inten    --      7.7813                 7.2066                 1.5461

                     73                     74                     75
                      A                      A                      A
 Frequencies --   1522.8971              1525.4197              1528.0890
 Red. masses --      1.0470                 1.0712                 1.0426
 Frc consts  --      1.4306                 1.4686                 1.4344
 IR Inten    --      7.8259                 1.4315                 5.4871

                     76                     77                     78
                      A                      A                      A
 Frequencies --   1529.3397              1536.2862              1547.0948
 Red. masses --      1.0756                 1.0575                 1.0460
 Frc consts  --      1.4822                 1.4705                 1.4751
 IR Inten    --      6.4635                 4.0785                20.7397

                     79                     80                     81
                      A                      A                      A
 Frequencies --   1802.5763              1830.8851              1859.1899
 Red. masses --      6.7558                10.9032                 9.7859
 Frc consts  --     12.9334                21.5340                19.9296
 IR Inten    --    458.5651               185.3201               230.6191

                     82                     83                     84
                      A                      A                      A
 Frequencies --   3039.0188              3045.8044              3051.3996
 Red. masses --      1.0804                 1.0380                 1.0411
 Frc consts  --      5.8787                 5.6732                 5.7112
 IR Inten    --      3.7286                16.7735                28.2112

                     85                     86                     87
                      A                      A                      A
 Frequencies --   3061.6611              3080.6805              3110.6165
 Red. masses --      1.0337                 1.0295                 1.1002
 Frc consts  --      5.7091                 5.7564                 6.2720
 IR Inten    --     12.1766                27.1316                 4.0687

                     88                     89                     90
                      A                      A                      A
 Frequencies --   3116.1507              3127.3153              3135.4260
 Red. masses --      1.0994                 1.1023                 1.1014
 Frc consts  --      6.2898                 6.3519                 6.3796
 IR Inten    --     49.9901                28.9546                13.8086

                     91                     92                     93
                      A                      A                      A
 Frequencies --   3136.9674              3138.5566              3145.2566
 Red. masses --      1.1001                 1.0878                 1.1030
 Frc consts  --      6.3782                 6.3134                 6.4291
 IR Inten    --     13.1469                10.0594                15.6684

                     94                     95                     96
                      A                      A                      A
 Frequencies --   3157.3545              3168.1412              3192.3460
 Red. masses --      1.1077                 1.0873                 1.1075
 Frc consts  --      6.5063                 6.4302                 6.6496
 IR Inten    --     17.8146                 3.5690                11.3315

                     97                     98                     99
                      A                      A                      A
 Frequencies --   3570.5833              3578.3620              3690.3267
 Red. masses --      1.0748                 1.0748                 1.0642
 Frc consts  --      8.0738                 8.1084                 8.5392
 IR Inten    --     24.6351                35.1070                63.6196

 - Thermochemistry -
 -------------------
 Temperature   298.150 Kelvin.  Pressure   1.00000 Atm.
 Atom     1 has atomic number  6 and mass  12.00000

 Molecular mass:   246.12157 amu.
 Principal axes and moments of inertia in atomic units:
                           1         2         3
     Eigenvalues --  3314.782395337.959236767.16809
           X            0.99937  -0.01786  -0.03057
           Y            0.01913   0.99894   0.04194
           Z            0.02979  -0.04250   0.99865
 This molecule is an asymmetric top.
 Rotational symmetry number  1.
 Warning -- assumption of classical behavior for rotation
           may cause significant error
 Rotational temperatures (Kelvin)      0.02613     0.01623     0.01280
 Rotational constants (GHZ):           0.54445     0.33810     0.26669
 Zero-point vibrational energy     771549.4 (Joules/Mol)
                                  184.40474 (Kcal/Mol)
 Warning -- explicit consideration of  29 degrees of freedom as
           vibrations may cause significant error
 Vibrational temperatures:     30.61    35.09    44.88    57.65    91.40
          (Kelvin)            109.85   134.73   164.22   171.29   197.10
                              214.65   276.09   301.58   335.30   349.26
                              360.04   368.69   392.80   433.92   474.35
                              502.95   525.63   552.09   628.27   658.93
                              692.58   799.41   847.91   882.45   909.96
                             1020.72  1071.51  1089.67  1105.44  1119.08
                             1176.71  1224.42  1264.97  1314.46  1341.46
                             1368.92  1381.93  1415.88  1426.18  1496.29
                             1539.37  1574.82  1614.76  1657.54  1681.41
                             1706.69  1712.05  1732.37  1741.06  1748.51
                             1776.77  1896.49  1936.47  1955.95  1976.72
                             1987.38  1995.57  2027.87  2035.92  2061.23
                             2066.89  2091.81  2132.02  2146.09  2152.93
                             2177.08  2185.41  2191.11  2194.74  2198.58
                             2200.38  2210.37  2225.92  2593.51  2634.24
                             2674.96  4372.47  4382.23  4390.28  4405.05
                             4432.41  4475.48  4483.45  4499.51  4511.18
                             4513.40  4515.68  4525.32  4542.73  4558.25
                             4593.07  5137.27  5148.46  5309.56

 Zero-point correction=                           0.293868 (Hartree/Particle)
 Thermal correction to Energy=                    0.313383
 Thermal correction to Enthalpy=                  0.314327
 Thermal correction to Gibbs Free Energy=         0.243321
 Sum of electronic and zero-point Energies=           -877.336002
 Sum of electronic and thermal Energies=              -877.316486
 Sum of electronic and thermal Enthalpies=            -877.315542
 Sum of electronic and thermal Free Energies=         -877.386548

                     E (Thermal)             CV                S
                      KCal/Mol        Cal/Mol-Kelvin    Cal/Mol-Kelvin
 Total                  196.651             68.925            149.445
 Electronic               0.000              0.000              0.000
 Translational            0.889              2.981             42.403
 Rotational               0.889              2.981             33.148
 Vibrational            194.873             62.964             73.894
 Vibration     1          0.593              1.985              6.511
 Vibration     2          0.593              1.985              6.240
 Vibration     3          0.594              1.983              5.752
 Vibration     4          0.594              1.981              5.256
 Vibration     5          0.597              1.972              4.345
 Vibration     6          0.599              1.965              3.983
 Vibration     7          0.603              1.954              3.583
 Vibration     8          0.607              1.938              3.197
 Vibration     9          0.609              1.933              3.116
 Vibration    10          0.614              1.916              2.846
 Vibration    11          0.618              1.904              2.683
 Vibration    12          0.634              1.851              2.209
 Vibration    13          0.642              1.826              2.047
 Vibration    14          0.654              1.790              1.855
 Vibration    15          0.659              1.775              1.783
 Vibration    16          0.663              1.762              1.729
 Vibration    17          0.666              1.752              1.687
 Vibration    18          0.676              1.723              1.577
 Vibration    19          0.694              1.671              1.408
 Vibration    20          0.712              1.616              1.262
 Vibration    21          0.727              1.576              1.168
 Vibration    22          0.739              1.544              1.099
 Vibration    23          0.753              1.505              1.024
 Vibration    24          0.797              1.390              0.837
 Vibration    25          0.816              1.343              0.772
 Vibration    26          0.838              1.291              0.706
 Vibration    27          0.911              1.127              0.533
 Vibration    28          0.947              1.055              0.468
 Vibration    29          0.973              1.004              0.427

                           ! Non-Optimized Parameters !
 Normal termination of Gaussian 16 at Sun Dec 13 12:55:29 2020.

 ----------------------------------------------------------------------
 # B3LYP/6-311++G(d,p) empiricaldispersion=gd3bj scf=xqc pop=npa geom=c
 heck
 ----------------------------------------------------------------------

 --------------------------------------
 CID_61666840_JID_7153_Energie_neutraal
 --------------------------------------
 Structure from the checkpoint file:  "JID_7153.chk"
 Charge =  0 Multiplicity = 1

 SCF Done:  E(RB3LYP) =  -877.906386119     A.U. after   15 cycles
 Normal termination of Gaussian 16 at Sun Dec 13 13:01:58 2020.

 ----------------------------------------------------------------------
 # B3LYP/6-311++G(d,p) empiricaldispersion=gd3bj scf=xqc pop=npa geom=c
 heck
 ----------------------------------------------------------------------

 ------------------------------------
 CID_61666840_JID_7153_Energie_kation
 ------------------------------------
 Structure from the checkpoint file:  "JID_7153.chk"
 Charge =  1 Multiplicity = 2

 SCF Done:  E(UB3LYP) =  -877.578490505     A.U. after   28 cycles
 Normal termination of Gaussian 16 at Sun Dec 13 13:19:54 2020.
 Gaussian 16:  ES64L-G16RevA.03 25-Dec-2016

 ----------------------------------------------------------------------
 # B3LYP/6-311++G(d,p) empiricaldispersion=gd3bj scf=xqc pop=npa geom=c
 heck
 ----------------------------------------------------------------------

 -----------------------------------
 CID_61666840_JID_7153_Energie_anion
 -----------------------------------
 Structure from the checkpoint file:  "JID_7153.chk"
 Charge = -1 Multiplicity = 2

                         Standard orientation:
 ---------------------------------------------------------------------
 Center     Atomic      Atomic             Coordinates (Angstroms)
 Number     Number       Type             X           Y           Z
 ---------------------------------------------------------------------
      1          6           0       -3.239096    0.318779    1.734935
      2          6           0       -2.552327    1.050023    0.574278
      3          6           0       -2.133191    2.467149    0.981287
      4          6           0       -1.337345    0.242689    0.075531
      5          6           0       -1.752428   -1.149425   -0.391516
      6          8           0       -2.677717   -1.374419   -1.139813
      7          8           0       -0.930545   -2.100999    0.098125
      8          6           0       -1.195550   -3.441542   -0.354058
      9          7           0       -0.662310    0.880905   -1.063439
     10          6           0        0.462118    1.688930   -0.919855
     11          8           0        0.564609    2.764833   -1.493636
     12          7           0        1.457063    1.191354   -0.084597
     13          6           0        1.892349   -0.209937   -0.154151
     14          6           0        2.420070   -0.611910   -1.544497
     15          6           0        2.971514   -0.471277    0.882190
     16          8           0        3.131862   -1.521812    1.458360
     17          8           0        3.798528    0.591946    1.043972
     18          1           0       -2.550769    0.193179    2.580289
     19          1           0       -3.599669   -0.670519    1.434942
     20          1           0       -4.101302    0.892124    2.090939
     21          1           0       -3.262313    1.107438   -0.262341
     22          1           0       -1.408673    2.435886    1.804829
     23          1           0       -1.674455    3.017355    0.154695
     24          1           0       -3.004034    3.035868    1.324466
     25          1           0       -0.613976    0.151839    0.886977
     26          1           0       -2.203095   -3.746701   -0.061590
     27          1           0       -1.106363   -3.498759   -1.441647
     28          1           0       -0.445082   -4.065206    0.130590
     29          1           0       -1.308923    1.304576   -1.720568
     30          1           0        2.235484    1.841725   -0.068132
     31          1           0        1.067997   -0.870988    0.109038
     32          1           0        3.265269    0.019495   -1.836696
     33          1           0        2.742184   -1.658168   -1.543300
     34          1           0        1.619430   -0.492205   -2.279841
     35          1           0        4.474440    0.319986    1.692677
 ---------------------------------------------------------------------

 SCF Done:  E(UB3LYP) =  -877.897229800     A.U. after   33 cycles
 SCF Done:  E(UB3LYP) =  -877.897229800     a.u. after    1 cycles

 The electronic state is 2-A.
 Alpha  occ. eigenvalues --  -19.09470 -19.08280 -19.03695 -19.03036 -19.00805
 Alpha  occ. eigenvalues --  -14.25470 -14.24701 -10.22380 -10.22210 -10.21635
 Alpha  occ. eigenvalues --  -10.14593 -10.14221 -10.13971 -10.10458 -10.08609
 Alpha  occ. eigenvalues --  -10.08120 -10.07942  -1.03323  -1.02457  -0.97179
 Alpha  occ. eigenvalues --   -0.94657  -0.93635  -0.85897  -0.83285  -0.73030
 Alpha  occ. eigenvalues --   -0.69041  -0.67076  -0.61651  -0.60823  -0.59402
 Alpha  occ. eigenvalues --   -0.53007  -0.52233  -0.50970  -0.48663  -0.44792
 Alpha  occ. eigenvalues --   -0.44356  -0.43547  -0.40903  -0.40454  -0.39692
 Alpha  occ. eigenvalues --   -0.39100  -0.38380  -0.37181  -0.35962  -0.35706
 Alpha  occ. eigenvalues --   -0.35092  -0.34079  -0.33093  -0.32650  -0.31868
 Alpha  occ. eigenvalues --   -0.31398  -0.30878  -0.30598  -0.29799  -0.29290
 Alpha  occ. eigenvalues --   -0.27868  -0.27491  -0.26355  -0.25681  -0.24062
 Alpha  occ. eigenvalues --   -0.23329  -0.21244  -0.20776  -0.20088  -0.17838
 Alpha  occ. eigenvalues --   -0.16852   0.03901
 Alpha virt. eigenvalues --    0.05471   0.05969   0.07069   0.07394   0.07956
 Alpha virt. eigenvalues --    0.08337   0.08473   0.09059   0.09639   0.09852
 Alpha virt. eigenvalues --    0.10209   0.10915   0.11246   0.11633   0.11954

  Beta  occ. eigenvalues --  -19.09466 -19.08208 -19.03687 -19.03018 -19.00801
  Beta  occ. eigenvalues --  -14.25465 -14.24691 -10.22378 -10.22208 -10.21634
  Beta  occ. eigenvalues --  -10.14589 -10.14210 -10.13925 -10.10454 -10.08585
  Beta  occ. eigenvalues --  -10.08095 -10.07928  -1.03311  -1.02371  -0.97173
  Beta  occ. eigenvalues --   -0.94644  -0.93563  -0.85887  -0.83267  -0.73014
  Beta  occ. eigenvalues --   -0.69006  -0.67040  -0.61609  -0.60782  -0.59330
  Beta  occ. eigenvalues --   -0.52978  -0.52131  -0.50924  -0.48627  -0.44773
  Beta  occ. eigenvalues --   -0.44331  -0.43513  -0.40876  -0.40427  -0.39665
  Beta  occ. eigenvalues --   -0.39066  -0.38344  -0.37156  -0.35932  -0.35683
  Beta  occ. eigenvalues --   -0.35066  -0.34048  -0.33065  -0.32612  -0.31841
  Beta  occ. eigenvalues --   -0.31370  -0.30854  -0.30574  -0.29757  -0.29260
  Beta  occ. eigenvalues --   -0.27842  -0.27466  -0.26334  -0.25655  -0.24014
  Beta  occ. eigenvalues --   -0.23310  -0.21234  -0.20747  -0.20054  -0.17825
  Beta  occ. eigenvalues --   -0.16836
  Beta virt. eigenvalues --    0.05884   0.06598   0.07072   0.07323   0.07486
  Beta virt. eigenvalues --    0.08058   0.08601   0.08779   0.09401   0.09982
  Beta virt. eigenvalues --    0.10142   0.10415   0.11153   0.11386   0.11766

 Mulliken charges and spin densities:
               1          2
     1  C    0.555955  -1.202964
     2  C   -1.263808   1.472368
     3  C   -0.060478  -0.524864
     4  C    1.132042  -1.611322
     5  C   -0.731385   0.459717
     6  O   -0.218438   0.024540
     7  O   -0.025933   0.054158
     8  C    0.571704  -0.856210
     9  N   -0.098641   0.096887
    10  C    0.188123  -0.165744
    11  O   -0.297468  -0.001235
    12  N    0.013910  -0.087844
    13  C   -0.117722  -0.257546
    14  C    0.101840  -0.579592
    15  C   -0.490637   0.629887
    16  O   -0.223215  -0.024332
    17  O   -0.143949  -0.007097
    18  H   -0.104669   0.248924
    19  H   -0.000926   0.179915
    20  H   -0.089768   0.253602
    21  H    0.046333   0.150081
    22  H    0.079356   0.074700
    23  H    0.151538   0.017946
    24  H   -0.081411   0.249611
    25  H    0.147893   0.150716
    26  H   -0.336596   0.510191
    27  H   -0.182041   0.372261
    28  H   -0.229267   0.389625
    29  H    0.312625   0.036821
    30  H    0.244771   0.077445
    31  H    0.785689  -0.611430
    32  H   -0.035386   0.206728
    33  H   -0.016235   0.189701
    34  H    0.039063   0.140020
    35  H   -0.622865   0.944337
 Sum of Mulliken charges =  -1.00000   1.00000

 Dipole moment (field-independent basis, Debye):
    X=             -3.9473    Y=              1.4878    Z=             -2.2341  Tot=              4.7734
 Quadrupole moment (field-independent basis, Debye-Ang):
   XX=           -186.8156   YY=           -158.6997   ZZ=           -141.3351
   XY=             -7.1644   XZ=            -10.0468   YZ=              1.9419

 Summary of Natural Population Analysis:

                                       Natural Population
                Natural  -----------------------------------------------
    Atom  No    Charge         Core      Valence    Rydberg      Total
 -----------------------------------------------------------------------
      C    1   -0.28786      0.99965     2.28237    0.00584     3.28786
      C    2   -0.11561      0.99960     2.10609    0.00992     3.11561
      C    3   -0.28905      0.99965     2.28453    0.00488     3.28905
      C    4   -0.05187      0.99950     2.03873    0.01364     3.05187
      C    5    0.41231      0.99965     1.56071    0.02733     2.58769
      O    6   -0.30430      0.99987     3.29884    0.00559     4.30430
      O    7   -0.27526      0.99986     3.26694    0.00846     4.27526
      C    8   -0.10562      0.99959     2.09706    0.00896     3.10562
      N    9   -0.33574      0.99967     2.82657    0.00950     3.83574
      C   10    0.41251      0.99969     1.56412    0.02368     2.58749
      O   11   -0.32663      0.99987     3.32160    0.00516     4.32663
      N   12   -0.33825      0.99967     2.82856    0.01002     3.83825
      C   13   -0.06324      0.99953     2.05016    0.01354     3.06324
      C   14   -0.28878      0.99964     2.28341    0.00573     3.28878
      C   15    0.40984      0.99968     1.56484    0.02563     2.59016
      O   16   -0.29799      0.99987     3.29168    0.00644     4.29799
      O   17   -0.34946      0.99987     3.34231    0.00728     4.34946
      H   18    0.09903      0.00000     0.39996    0.00100     0.40097
      H   19    0.10479      0.00000     0.39423    0.00098     0.39521
      H   20    0.10271      0.00000     0.39643    0.00086     0.39729
      H   21    0.10005      0.00000     0.39828    0.00168     0.39995
      H   22    0.10008      0.00000     0.39900    0.00093     0.39992
      H   23    0.10709      0.00000     0.39187    0.00104     0.39291
      H   24    0.10105      0.00000     0.39818    0.00077     0.39895
      H   25    0.11365      0.00000     0.38347    0.00288     0.38635
      H   26    0.09398      0.00000     0.40456    0.00145     0.40602
      H   27    0.09366      0.00000     0.40500    0.00133     0.40634
      H   28    0.09672      0.00000     0.40214    0.00115     0.40328
      H   29    0.19497      0.00000     0.30323    0.00180     0.30503
      H   30    0.20217      0.00000     0.29537    0.00247     0.29783
      H   31    0.11758      0.00000     0.37926    0.00316     0.38242
      H   32    0.10308      0.00000     0.39582    0.00109     0.39692
      H   33    0.10812      0.00000     0.39089    0.00099     0.39188
      H   34    0.10573      0.00000     0.39316    0.00111     0.39427
      H   35    0.25052      0.00000     0.21590    0.03358     0.24948
 =======================================================================
   * Total *   -0.00000     16.99487    48.75526    0.24987    66.00000

 Normal termination of Gaussian 16 at Sun Dec 13 13:41:26 2020.
