 Gaussian 16, Revision A.03,

 -----------------------------------------------------------
 # opt freq B3LYP/6-31G(d) empiricaldispersion=gd3bj scf=xqc
 -----------------------------------------------------------

 ----------------------------
 CID_45121791_JID_18_neutraal
 ----------------------------
 Symbolic Z-matrix:
 Charge =  0 Multiplicity = 1

 SCF Done:  E(RB3LYP) =  -832.354797719     A.U. after   15 cycles
 SCF Done:  E(RB3LYP) =  -832.359573885     A.U. after   13 cycles
 SCF Done:  E(RB3LYP) =  -832.360158138     A.U. after   12 cycles
 SCF Done:  E(RB3LYP) =  -832.360207781     A.U. after   10 cycles
 SCF Done:  E(RB3LYP) =  -832.360215103     A.U. after    9 cycles
 SCF Done:  E(RB3LYP) =  -832.360217099     A.U. after    8 cycles
 SCF Done:  E(RB3LYP) =  -832.360217608     A.U. after    8 cycles
 SCF Done:  E(RB3LYP) =  -832.360217775     A.U. after    7 cycles
 SCF Done:  E(RB3LYP) =  -832.360217965     A.U. after    7 cycles
 SCF Done:  E(RB3LYP) =  -832.360218083     A.U. after    7 cycles
 SCF Done:  E(RB3LYP) =  -832.360218118     A.U. after    6 cycles
 Optimization completed.
    -- Stationary point found.
 Normal termination of Gaussian 16 at Tue Dec  8 10:14:41 2020.

 --------------------------------------------------------------------
 #N Geom=AllCheck Guess=TCheck SCRF=Check GenChk RB3LYP/6-31G(d) Freq
 --------------------------------------------------------------------

 Structure from the checkpoint file:  "JID_18.chk"
 ----------------------------
 CID_45121791_JID_18_neutraal
 ----------------------------
 Charge =  0 Multiplicity = 1

 SCF Done:  E(RB3LYP) =  -832.360218118     A.U. after    1 cycles

  Exact polarizability: 158.055  -3.089  92.690  -0.002  -0.002  43.204
 Approx polarizability: 237.066  -5.514 170.318  -0.002  -0.004  66.818

                      1                      2                      3
                      A                      A                      A
 Frequencies --     19.3306                85.8439               137.1175
 Red. masses --      7.6396                 4.7200                 2.5065
 Frc consts  --      0.0017                 0.0205                 0.0278
 IR Inten    --      0.2866                 0.4747                 1.1277

                      4                      5                      6
                      A                      A                      A
 Frequencies --    144.2376               158.3915               242.5851
 Red. masses --      5.2113                 1.2986                 2.0594
 Frc consts  --      0.0639                 0.0192                 0.0714
 IR Inten    --      4.5485                 0.4463                29.2789

                      7                      8                      9
                      A                      A                      A
 Frequencies --    277.7158               278.9573               332.2167
 Red. masses --      3.9088                 2.4232                 4.5930
 Frc consts  --      0.1776                 0.1111                 0.2987
 IR Inten    --      1.9099                14.7688                 7.1344

                     10                     11                     12
                      A                      A                      A
 Frequencies --    337.7966               373.0606               466.3343
 Red. masses --      1.6016                 6.2346                 8.3960
 Frc consts  --      0.1077                 0.5112                 1.0758
 IR Inten    --     60.3589                 3.4908                 7.6614

                     13                     14                     15
                      A                      A                      A
 Frequencies --    518.0533               598.1683               609.6215
 Red. masses --      3.7967                 5.1769                 6.3953
 Frc consts  --      0.6004                 1.0914                 1.4003
 IR Inten    --      0.0658                 8.5796                26.5395

                     16                     17                     18
                      A                      A                      A
 Frequencies --    654.3317               755.7106               779.0230
 Red. masses --      7.0590                 7.2674                 4.9994
 Frc consts  --      1.7807                 2.4453                 1.7876
 IR Inten    --      1.3538                33.1639                12.9315

                     19                     20                     21
                      A                      A                      A
 Frequencies --    809.8515               860.3265              1001.7800
 Red. masses --      1.9654                 1.3387                 6.0752
 Frc consts  --      0.7595                 0.5838                 3.5922
 IR Inten    --     26.5012                 9.0432                15.3583

                     22                     23                     24
                      A                      A                      A
 Frequencies --   1018.2748              1056.1494              1076.2479
 Red. masses --      1.6727                 1.0808                 1.3833
 Frc consts  --      1.0219                 0.7103                 0.9440
 IR Inten    --      5.1781                65.0194                 0.8724

                     25                     26                     27
                      A                      A                      A
 Frequencies --   1173.8367              1187.4804              1213.7037
 Red. masses --      2.5530                 3.7230                 1.5404
 Frc consts  --      2.0726                 3.0931                 1.3369
 IR Inten    --     73.4100                17.5429               165.5469

                     28                     29                     30
                      A                      A                      A
 Frequencies --   1303.7514              1329.8519              1383.1620
 Red. masses --      1.8145                 4.3129                 4.5872
 Frc consts  --      1.8172                 4.4940                 5.1706
 IR Inten    --    296.0291                64.4837                39.6747

                     31                     32                     33
                      A                      A                      A
 Frequencies --   1441.5292              1447.1912              1504.5816
 Red. masses --      1.2220                 1.2491                 1.0414
 Frc consts  --      1.4962                 1.5413                 1.3889
 IR Inten    --     22.8007                 5.1908                 8.9159

                     34                     35                     36
                      A                      A                      A
 Frequencies --   1520.7242              1538.6881              1595.1834
 Red. masses --      1.1262                 1.7926                 3.3725
 Frc consts  --      1.5346                 2.5005                 5.0562
 IR Inten    --     46.7764               318.9848               239.1957

                     37                     38                     39
                      A                      A                      A
 Frequencies --   1624.3293              1726.7425              3045.1635
 Red. masses --      5.5124                 6.4083                 1.0363
 Frc consts  --      8.5692                11.2576                 5.6618
 IR Inten    --      4.2622               403.3572                40.0215

                     40                     41                     42
                      A                      A                      A
 Frequencies --   3097.4791              3130.1701              3157.8814
 Red. masses --      1.1023                 1.1006                 1.0899
 Frc consts  --      6.2311                 6.3537                 6.4038
 IR Inten    --     15.4545                 9.8388                 8.7026

                     43                     44                     45
                      A                      A                      A
 Frequencies --   3233.1417              3463.7284              3494.7976
 Red. masses --      1.0938                 1.0734                 1.0655
 Frc consts  --      6.7365                 7.5876                 7.6671
 IR Inten    --     13.2080                12.3498                96.3875

 - Thermochemistry -
 -------------------
 Temperature   298.150 Kelvin.  Pressure   1.00000 Atm.
 Atom     1 has atomic number  6 and mass  12.00000

 Molecular mass:   157.03098 amu.
 Principal axes and moments of inertia in atomic units:
                           1         2         3
     Eigenvalues --   591.013732610.146943189.88329
           X            1.00000   0.00220   0.00000
           Y           -0.00220   1.00000  -0.00000
           Z           -0.00000   0.00000   1.00000
 This molecule is an asymmetric top.
 Rotational symmetry number  1.
 Warning -- assumption of classical behavior for rotation
           may cause significant error
 Rotational temperatures (Kelvin)      0.14655     0.03318     0.02715
 Rotational constants (GHZ):           3.05364     0.69143     0.56577
 Zero-point vibrational energy     330194.7 (Joules/Mol)
                                   78.91843 (Kcal/Mol)
 Warning -- explicit consideration of  15 degrees of freedom as
           vibrations may cause significant error
 Vibrational temperatures:     27.81   123.51   197.28   207.53   227.89
          (Kelvin)            349.03   399.57   401.36   477.99   486.01
                              536.75   670.95   745.36   860.63   877.11
                              941.44  1087.30  1120.84  1165.20  1237.82
                             1441.34  1465.07  1519.56  1548.48  1688.89
                             1708.52  1746.25  1875.81  1913.36  1990.06
                             2074.04  2082.19  2164.76  2187.98  2213.83
                             2295.11  2337.05  2484.40  4381.31  4456.58
                             4503.62  4543.49  4651.77  4983.53  5028.23

 Zero-point correction=                           0.125765 (Hartree/Particle)
 Thermal correction to Energy=                    0.136162
 Thermal correction to Enthalpy=                  0.137106
 Thermal correction to Gibbs Free Energy=         0.088587
 Sum of electronic and zero-point Energies=           -832.234454
 Sum of electronic and thermal Energies=              -832.224057
 Sum of electronic and thermal Enthalpies=            -832.223112
 Sum of electronic and thermal Free Energies=         -832.271631

                     E (Thermal)             CV                S
                      KCal/Mol        Cal/Mol-Kelvin    Cal/Mol-Kelvin
 Total                   85.443             36.574            102.116
 Electronic               0.000              0.000              0.000
 Translational            0.889              2.981             41.063
 Rotational               0.889              2.981             29.977
 Vibrational             83.665             30.612             31.076
 Vibration     1          0.593              1.986              6.702
 Vibration     2          0.601              1.959              3.753
 Vibration     3          0.614              1.916              2.844
 Vibration     4          0.616              1.909              2.747
 Vibration     5          0.621              1.893              2.569
 Vibration     6          0.659              1.775              1.784
 Vibration     7          0.679              1.715              1.548
 Vibration     8          0.679              1.712              1.540
 Vibration     9          0.714              1.611              1.249
 Vibration    10          0.718              1.600              1.223
 Vibration    11          0.744              1.527              1.067
 Vibration    12          0.824              1.325              0.748
 Vibration    13          0.873              1.210              0.614
 Vibration    14          0.956              1.036              0.453
 Vibration    15          0.969              1.011              0.433

 Optimization completed.
    -- Stationary point found.
 Normal termination of Gaussian 16 at Tue Dec  8 10:17:16 2020.

 ----------------------------------------------------------------------
 # B3LYP/6-311++G(d,p) empiricaldispersion=gd3bj scf=xqc pop=npa geom=c
 heck
 ----------------------------------------------------------------------

 ------------------------------------
 CID_45121791_JID_18_Energie_neutraal
 ------------------------------------
 Structure from the checkpoint file:  "JID_18.chk"
 Charge =  0 Multiplicity = 1

 SCF Done:  E(RB3LYP) =  -832.520324617     A.U. after   14 cycles
 Normal termination of Gaussian 16 at Tue Dec  8 10:18:03 2020.

 ----------------------------------------------------------------------
 # B3LYP/6-311++G(d,p) empiricaldispersion=gd3bj scf=xqc pop=npa geom=c
 heck
 ----------------------------------------------------------------------

 ----------------------------------
 CID_45121791_JID_18_Energie_kation
 ----------------------------------
 Structure from the checkpoint file:  "JID_18.chk"
 Charge =  1 Multiplicity = 2

 SCF Done:  E(UB3LYP) =  -832.229022870     A.U. after   21 cycles
 Normal termination of Gaussian 16 at Tue Dec  8 10:19:40 2020.
 Gaussian 16:  ES64L-G16RevA.03 25-Dec-2016

 ----------------------------------------------------------------------
 # B3LYP/6-311++G(d,p) empiricaldispersion=gd3bj scf=xqc pop=npa geom=c
 heck
 ----------------------------------------------------------------------

 ---------------------------------
 CID_45121791_JID_18_Energie_anion
 ---------------------------------
 Structure from the checkpoint file:  "JID_18.chk"
 Charge = -1 Multiplicity = 2

                         Standard orientation:
 ---------------------------------------------------------------------
 Center     Atomic      Atomic             Coordinates (Angstroms)
 Number     Number       Type             X           Y           Z
 ---------------------------------------------------------------------
      1          6           0       -3.653698   -0.474354   -0.000074
      2          6           0       -2.240884    0.012764   -0.000049
      3          6           0       -1.760618    1.284403   -0.000149
      4          7           0       -0.387892    1.441008   -0.000054
      5          6           0        0.200069    0.273643    0.000096
      6         16           0       -0.874766   -1.116706    0.000117
      7          7           0        1.567477    0.200666    0.000232
      8          6           0        2.377298   -0.923331   -0.000054
      9          7           0        3.647417   -0.961249   -0.000275
     10          8           0        2.230792    1.433412    0.000131
     11          1           0       -3.879348   -1.081450   -0.885037
     12          1           0       -3.879524   -1.081048    0.885122
     13          1           0       -4.331945    0.384505   -0.000337
     14          1           0       -2.386190    2.169702   -0.000276
     15          1           0        1.793924   -1.845430   -0.000020
     16          1           0        4.036607   -0.014069   -0.000266
     17          1           0        1.474381    2.066059   -0.000066
 ---------------------------------------------------------------------

 SCF Done:  E(UB3LYP) =  -832.511866079     A.U. after   29 cycles

 The electronic state is 2-A.
 Alpha  occ. eigenvalues --  -88.73032 -19.04631 -14.27116 -14.15846 -14.13035
 Alpha  occ. eigenvalues --  -10.09997 -10.09252 -10.05609 -10.05061 -10.04441
 Alpha  occ. eigenvalues --   -7.81626  -5.77955  -5.77599  -5.77156  -0.98207
 Alpha  occ. eigenvalues --   -0.81881  -0.77963  -0.71554  -0.66699  -0.60601
 Alpha  occ. eigenvalues --   -0.57063  -0.49465  -0.47385  -0.42141  -0.38395
 Alpha  occ. eigenvalues --   -0.37199  -0.33258  -0.31930  -0.30484  -0.30375
 Alpha  occ. eigenvalues --   -0.28963  -0.27959  -0.25248  -0.24576  -0.21185
 Alpha  occ. eigenvalues --   -0.19459  -0.14978  -0.13903  -0.13629  -0.13432
 Alpha  occ. eigenvalues --   -0.06527   0.06463
 Alpha virt. eigenvalues --    0.07941   0.10091   0.10881   0.11347   0.12233
 Alpha virt. eigenvalues --    0.12568   0.13916   0.14903   0.15384   0.15532
 Alpha virt. eigenvalues --    0.15969   0.17109   0.17742   0.17995   0.19430

  Beta  occ. eigenvalues --  -88.73012 -19.04647 -14.27245 -14.15820 -14.12712
  Beta  occ. eigenvalues --  -10.09435 -10.09083 -10.05632 -10.05043 -10.04083
  Beta  occ. eigenvalues --   -7.81608  -5.77962  -5.77602  -5.77056  -0.98225
  Beta  occ. eigenvalues --   -0.81481  -0.77618  -0.71200  -0.66324  -0.60345
  Beta  occ. eigenvalues --   -0.56749  -0.49126  -0.47269  -0.41720  -0.38214
  Beta  occ. eigenvalues --   -0.36896  -0.32715  -0.31807  -0.30372  -0.30003
  Beta  occ. eigenvalues --   -0.28743  -0.27804  -0.25049  -0.23721  -0.20943
  Beta  occ. eigenvalues --   -0.18529  -0.14840  -0.13031  -0.13019  -0.12342
  Beta  occ. eigenvalues --   -0.05439
  Beta virt. eigenvalues --    0.08019   0.10061   0.10828   0.10960   0.12173
  Beta virt. eigenvalues --    0.12527   0.13175   0.13935   0.14939   0.15229
  Beta virt. eigenvalues --    0.16119   0.16589   0.17056   0.17933   0.18695

 Mulliken charges and spin densities:
               1          2
     1  C   -0.267945  -0.087674
     2  C    0.746417   0.039897
     3  C   -0.635166   0.128901
     4  N   -0.227561   0.021435
     5  C   -0.533774   0.221497
     6  S   -0.276383   0.199258
     7  N   -0.009811  -0.039905
     8  C   -0.123290   0.119324
     9  N   -0.442080   0.171283
    10  O   -0.113473  -0.006157
    11  H    0.011202   0.129034
    12  H    0.011191   0.129062
    13  H    0.134690   0.000526
    14  H    0.109672  -0.004870
    15  H    0.138152  -0.015453
    16  H    0.181744  -0.006230
    17  H    0.296415   0.000073
 Sum of Mulliken charges =  -1.00000   1.00000

 Dipole moment (field-independent basis, Debye):
    X=             -3.1354    Y=              2.2181    Z=              0.0001  Tot=              3.8407
 Quadrupole moment (field-independent basis, Debye-Ang):
   XX=           -112.6192   YY=            -81.9652   ZZ=            -79.3163
   XY=              5.4820   XZ=              0.0026   YZ=             -0.0015

 Summary of Natural Population Analysis:

                                       Natural Population
                Natural  -----------------------------------------------
    Atom  No    Charge         Core      Valence    Rydberg      Total
 -----------------------------------------------------------------------
      C    1   -0.29657      0.99962     2.29143    0.00552     3.29657
      C    2   -0.06411      0.99949     2.05243    0.01219     3.06411
      C    3   -0.02495      0.99945     2.00972    0.01578     3.02495
      N    4   -0.30764      0.99962     2.79571    0.01231     3.80764
      C    5    0.20697      0.99957     1.77482    0.01864     2.79303
      S    6    0.15873      4.99945     2.82191    0.01991     7.84127
      N    7   -0.10394      0.99952     2.59161    0.01281     3.60394
      C    8    0.15788      0.99971     1.82595    0.01647     2.84212
      N    9   -0.31863      0.99974     2.80808    0.01081     3.81863
      O   10   -0.28928      0.99990     3.28112    0.00826     4.28928
      H   11    0.09997      0.00000     0.39803    0.00200     0.40003
      H   12    0.09997      0.00000     0.39803    0.00200     0.40003
      H   13    0.10012      0.00000     0.39914    0.00074     0.39988
      H   14    0.08939      0.00000     0.40971    0.00090     0.41061
      H   15    0.08059      0.00000     0.41803    0.00138     0.41941
      H   16    0.16111      0.00000     0.33682    0.00208     0.33889
      H   17    0.25038      0.00000     0.24670    0.00292     0.24962
 =======================================================================
   * Total *   -0.00000     13.99607    26.85922    0.14471    41.00000

 Normal termination of Gaussian 16 at Tue Dec  8 10:21:53 2020.
