 Gaussian 16, Revision A.03,

 -----------------------------------------------------------
 # opt freq B3LYP/6-31G(d) empiricaldispersion=gd3bj scf=xqc
 -----------------------------------------------------------

 -------------------------------
 CID_117248553_JID_3412_neutraal
 -------------------------------
 Symbolic Z-matrix:
 Charge =  0 Multiplicity = 1

 SCF Done:  E(RB3LYP) =  -626.232180046     A.U. after   15 cycles
 SCF Done:  E(RB3LYP) =  -626.235187172     A.U. after   12 cycles
 SCF Done:  E(RB3LYP) =  -626.235624359     A.U. after   11 cycles
 SCF Done:  E(RB3LYP) =  -626.235687177     A.U. after   11 cycles
 SCF Done:  E(RB3LYP) =  -626.235668968     A.U. after   11 cycles
 SCF Done:  E(RB3LYP) =  -626.235722054     A.U. after   10 cycles
 SCF Done:  E(RB3LYP) =  -626.235730866     A.U. after    9 cycles
 SCF Done:  E(RB3LYP) =  -626.235731999     A.U. after    9 cycles
 SCF Done:  E(RB3LYP) =  -626.235732232     A.U. after    7 cycles
 SCF Done:  E(RB3LYP) =  -626.235732367     A.U. after    7 cycles
 SCF Done:  E(RB3LYP) =  -626.235732427     A.U. after    7 cycles
 Optimization completed.
    -- Stationary point found.
 Normal termination of Gaussian 16 at Wed Dec  9 23:08:20 2020.

 --------------------------------------------------------------------
 #N Geom=AllCheck Guess=TCheck SCRF=Check GenChk RB3LYP/6-31G(d) Freq
 --------------------------------------------------------------------

 Structure from the checkpoint file:  "JID_3412.chk"
 -------------------------------
 CID_117248553_JID_3412_neutraal
 -------------------------------
 Charge =  0 Multiplicity = 1

 SCF Done:  E(RB3LYP) =  -626.235732427     A.U. after    1 cycles

  Exact polarizability: 132.873   5.344 108.189  -5.107   1.412  67.948
 Approx polarizability: 185.052   7.407 175.695  -9.783   1.749 103.926

                      1                      2                      3
                      A                      A                      A
 Frequencies --     55.5457                78.4333               108.2387
 Red. masses --      4.8865                 6.5534                 3.9506
 Frc consts  --      0.0089                 0.0238                 0.0273
 IR Inten    --      0.0955                 0.8062                 5.5211

                      4                      5                      6
                      A                      A                      A
 Frequencies --    150.4153               191.3125               241.8329
 Red. masses --      6.1187                 3.4555                 2.7308
 Frc consts  --      0.0816                 0.0745                 0.0941
 IR Inten    --      1.9342                 4.3742                 9.6176

                      7                      8                      9
                      A                      A                      A
 Frequencies --    269.8064               292.6109               328.7590
 Red. masses --      1.8540                 1.7791                 4.8841
 Frc consts  --      0.0795                 0.0897                 0.3110
 IR Inten    --     28.9243                13.8546                 3.8280

                     10                     11                     12
                      A                      A                      A
 Frequencies --    363.7343               401.0682               416.4124
 Red. masses --      2.7312                 2.1202                 5.3833
 Frc consts  --      0.2129                 0.2009                 0.5500
 IR Inten    --     10.4641                 4.5445                 2.2230

                     13                     14                     15
                      A                      A                      A
 Frequencies --    493.5294               568.9804               595.5011
 Red. masses --      3.4457                 4.6710                 1.5056
 Frc consts  --      0.4945                 0.8910                 0.3146
 IR Inten    --      5.4864                 3.2672                44.2446

                     16                     17                     18
                      A                      A                      A
 Frequencies --    610.9512               647.8432               691.9350
 Red. masses --      4.1978                 3.3711                 3.0941
 Frc consts  --      0.9232                 0.8336                 0.8728
 IR Inten    --      7.1359                 2.0607                60.0344

                     19                     20                     21
                      A                      A                      A
 Frequencies --    707.9124               721.9216               769.3586
 Red. masses --      3.7561                 4.2149                 2.5881
 Frc consts  --      1.1090                 1.2942                 0.9026
 IR Inten    --     36.0556                37.8293                16.1884

                     22                     23                     24
                      A                      A                      A
 Frequencies --    788.7799               804.1122               837.1068
 Red. masses --      2.3363                 2.2464                 2.6190
 Frc consts  --      0.8564                 0.8558                 1.0813
 IR Inten    --     25.1174                 0.7790                20.2943

                     25                     26                     27
                      A                      A                      A
 Frequencies --    878.0283               894.6094               959.8134
 Red. masses --      1.4447                 2.4413                 2.0989
 Frc consts  --      0.6562                 1.1512                 1.1393
 IR Inten    --    139.5206                29.8738                 8.3115

                     28                     29                     30
                      A                      A                      A
 Frequencies --    991.7451              1008.8029              1028.1448
 Red. masses --      2.2687                 1.9497                 4.3521
 Frc consts  --      1.3147                 1.1690                 2.7105
 IR Inten    --     19.6717                14.7059                63.7275

                     31                     32                     33
                      A                      A                      A
 Frequencies --   1083.9733              1138.1672              1169.8357
 Red. masses --      2.0471                 1.4202                 1.6288
 Frc consts  --      1.4172                 1.0839                 1.3133
 IR Inten    --     32.0298                 1.7957               111.2563

                     34                     35                     36
                      A                      A                      A
 Frequencies --   1181.6724              1197.3420              1212.3489
 Red. masses --      1.8038                 1.9961                 1.9672
 Frc consts  --      1.4840                 1.6860                 1.7035
 IR Inten    --     11.4567               219.2106                 2.2847

                     37                     38                     39
                      A                      A                      A
 Frequencies --   1254.5378              1261.0706              1300.6000
 Red. masses --      1.7022                 1.3828                 1.5892
 Frc consts  --      1.5784                 1.2957                 1.5838
 IR Inten    --     61.5540                16.7065                 9.7628

                     40                     41                     42
                      A                      A                      A
 Frequencies --   1304.3587              1330.1617              1363.1257
 Red. masses --      2.1703                 1.7341                 1.8287
 Frc consts  --      2.1755                 1.8077                 2.0020
 IR Inten    --     10.3083                 4.0738                 2.7532

                     43                     44                     45
                      A                      A                      A
 Frequencies --   1369.0256              1389.4491              1411.5265
 Red. masses --      1.6124                 1.5896                 1.7472
 Frc consts  --      1.7805                 1.8081                 2.0510
 IR Inten    --      3.1308                 9.3104                47.3310

                     46                     47                     48
                      A                      A                      A
 Frequencies --   1434.8231              1450.5317              1451.9758
 Red. masses --      1.6589                 3.0397                 4.3495
 Frc consts  --      2.0122                 3.7682                 5.4026
 IR Inten    --      9.8666                26.3543                53.2413

                     49                     50                     51
                      A                      A                      A
 Frequencies --   1507.8613              1516.1588              1524.6573
 Red. masses --      1.1901                 1.0895                 1.3305
 Frc consts  --      1.5942                 1.4756                 1.8223
 IR Inten    --     12.3854                 5.2802                25.1247

                     52                     53                     54
                      A                      A                      A
 Frequencies --   1556.5731              1603.7952              1704.2192
 Red. masses --      2.2842                 9.8441                 1.0921
 Frc consts  --      3.2607                14.9185                 1.8688
 IR Inten    --     46.8129               100.9360                26.4695

                     55                     56                     57
                      A                      A                      A
 Frequencies --   1794.4428              3043.7082              3049.2142
 Red. masses --      9.0912                 1.0639                 1.0740
 Frc consts  --     17.2478                 5.8072                 5.8834
 IR Inten    --    264.9734                26.2526                 3.5680

                     58                     59                     60
                      A                      A                      A
 Frequencies --   3057.9692              3074.1591              3098.5626
 Red. masses --      1.0680                 1.0835                 1.1023
 Frc consts  --      5.8841                 6.0328                 6.2357
 IR Inten    --     18.4639                68.5892                25.0323

                     61                     62                     63
                      A                      A                      A
 Frequencies --   3117.4673              3124.6988              3258.9523
 Red. masses --      1.0895                 1.0992                 1.0966
 Frc consts  --      6.2384                 6.3231                 6.8623
 IR Inten    --      5.5880                22.0395                 2.4281

                     64                     65                     66
                      A                      A                      A
 Frequencies --   3473.9399              3557.4867              3695.2731
 Red. masses --      1.0494                 1.0926                 1.0639
 Frc consts  --      7.4613                 8.1469                 8.5594
 IR Inten    --      0.2438                 0.0709                65.3404

 - Thermochemistry -
 -------------------
 Temperature   298.150 Kelvin.  Pressure   1.00000 Atm.
 Atom     1 has atomic number  6 and mass  12.00000

 Molecular mass:   181.08513 amu.
 Principal axes and moments of inertia in atomic units:
                           1         2         3
     Eigenvalues --  1134.825913169.983313916.74244
           X            1.00000   0.00096  -0.00131
           Y           -0.00095   0.99996   0.00836
           Z            0.00131  -0.00836   0.99996
 This molecule is an asymmetric top.
 Rotational symmetry number  1.
 Warning -- assumption of classical behavior for rotation
           may cause significant error
 Rotational temperatures (Kelvin)      0.07632     0.02732     0.02211
 Rotational constants (GHZ):           1.59032     0.56932     0.46078
 Zero-point vibrational energy     520141.8 (Joules/Mol)
                                  124.31686 (Kcal/Mol)
 Warning -- explicit consideration of  16 degrees of freedom as
           vibrations may cause significant error
 Vibrational temperatures:     79.92   112.85   155.73   216.41   275.26
          (Kelvin)            347.94   388.19   421.00   473.01   523.33
                              577.05   599.12   710.08   818.64   856.79
                              879.02   932.10   995.54  1018.53  1038.68
                             1106.94  1134.88  1156.94  1204.41  1263.29
                             1287.14  1380.96  1426.90  1451.44  1479.27
                             1559.60  1637.57  1683.13  1700.16  1722.71
                             1744.30  1805.00  1814.40  1871.27  1876.68
                             1913.81  1961.23  1969.72  1999.11  2030.87
                             2064.39  2086.99  2089.07  2169.48  2181.41
                             2193.64  2239.56  2307.50  2451.99  2581.80
                             4379.22  4387.14  4399.74  4423.03  4458.14
                             4485.34  4495.74  4688.91  4998.22  5118.43
                             5316.67

 Zero-point correction=                           0.198112 (Hartree/Particle)
 Thermal correction to Energy=                    0.209219
 Thermal correction to Enthalpy=                  0.210163
 Thermal correction to Gibbs Free Energy=         0.160856
 Sum of electronic and zero-point Energies=           -626.037621
 Sum of electronic and thermal Energies=              -626.026514
 Sum of electronic and thermal Enthalpies=            -626.025569
 Sum of electronic and thermal Free Energies=         -626.074876

                     E (Thermal)             CV                S
                      KCal/Mol        Cal/Mol-Kelvin    Cal/Mol-Kelvin
 Total                  131.287             43.085            103.774
 Electronic               0.000              0.000              0.000
 Translational            0.889              2.981             41.488
 Rotational               0.889              2.981             31.022
 Vibrational            129.509             37.123             31.264
 Vibration     1          0.596              1.975              4.609
 Vibration     2          0.600              1.964              3.930
 Vibration     3          0.606              1.943              3.300
 Vibration     4          0.618              1.902              2.667
 Vibration     5          0.634              1.852              2.215
 Vibration     6          0.658              1.776              1.789
 Vibration     7          0.674              1.729              1.597
 Vibration     8          0.688              1.688              1.459
 Vibration     9          0.712              1.618              1.266
 Vibration    10          0.737              1.547              1.106
 Vibration    11          0.767              1.468              0.959
 Vibration    12          0.780              1.435              0.904
 Vibration    13          0.849              1.264              0.674
 Vibration    14          0.925              1.098              0.506
 Vibration    15          0.953              1.041              0.457
 Vibration    16          0.970              1.009              0.431

 Optimization completed.
    -- Stationary point found.
 Normal termination of Gaussian 16 at Wed Dec  9 23:14:18 2020.

 ----------------------------------------------------------------------
 # B3LYP/6-311++G(d,p) empiricaldispersion=gd3bj scf=xqc pop=npa geom=c
 heck
 ----------------------------------------------------------------------

 ---------------------------------------
 CID_117248553_JID_3412_Energie_neutraal
 ---------------------------------------
 Structure from the checkpoint file:  "JID_3412.chk"
 Charge =  0 Multiplicity = 1

 SCF Done:  E(RB3LYP) =  -626.424175263     A.U. after   15 cycles
 Normal termination of Gaussian 16 at Wed Dec  9 23:16:54 2020.

 ----------------------------------------------------------------------
 # B3LYP/6-311++G(d,p) empiricaldispersion=gd3bj scf=xqc pop=npa geom=c
 heck
 ----------------------------------------------------------------------

 -------------------------------------
 CID_117248553_JID_3412_Energie_kation
 -------------------------------------
 Structure from the checkpoint file:  "JID_3412.chk"
 Charge =  1 Multiplicity = 2

 SCF Done:  E(UB3LYP) =  -626.111689548     A.U. after   24 cycles
 Normal termination of Gaussian 16 at Wed Dec  9 23:22:33 2020.
 Gaussian 16:  ES64L-G16RevA.03 25-Dec-2016

 ----------------------------------------------------------------------
 # B3LYP/6-311++G(d,p) empiricaldispersion=gd3bj scf=xqc pop=npa geom=c
 heck
 ----------------------------------------------------------------------

 ------------------------------------
 CID_117248553_JID_3412_Energie_anion
 ------------------------------------
 Structure from the checkpoint file:  "JID_3412.chk"
 Charge = -1 Multiplicity = 2

                         Standard orientation:
 ---------------------------------------------------------------------
 Center     Atomic      Atomic             Coordinates (Angstroms)
 Number     Number       Type             X           Y           Z
 ---------------------------------------------------------------------
      1          6           0        2.011731   -1.395925   -0.738055
      2          6           0        0.542130   -1.458470   -0.286132
      3          6           0       -0.069444   -0.095023   -0.196777
      4          6           0       -1.369842    0.356531   -0.018876
      5          7           0       -1.406990    1.737538    0.050254
      6          6           0       -0.160440    2.117521   -0.078463
      7          7           0        0.695993    1.048351   -0.228340
      8          6           0        2.139203    1.085924   -0.453056
      9          6           0        2.771213   -0.258469   -0.037410
     10          7           0        2.815482   -0.498458    1.405518
     11          6           0       -2.535308   -0.517898    0.086529
     12          8           0       -2.478479   -1.738047    0.047148
     13          8           0       -3.704780    0.146039    0.232991
     14          1           0        2.059301   -1.233178   -1.822115
     15          1           0        2.506019   -2.346546   -0.521647
     16          1           0       -0.056773   -2.081654   -0.955522
     17          1           0        0.468713   -1.947104    0.694225
     18          1           0        0.200320    3.137747   -0.074219
     19          1           0        2.558258    1.912574    0.130227
     20          1           0        2.336473    1.285945   -1.514114
     21          1           0        3.807123   -0.250842   -0.395485
     22          1           0        3.382288    0.213553    1.862709
     23          1           0        1.882352   -0.421142    1.806822
     24          1           0       -4.384862   -0.550449    0.289422
 ---------------------------------------------------------------------

 SCF Done:  E(UB3LYP) =  -626.418714433     A.U. after   30 cycles

 The electronic state is 2-A.
 Alpha  occ. eigenvalues --  -19.06914 -19.00466 -14.27397 -14.20055 -14.19129
 Alpha  occ. eigenvalues --  -10.19858 -10.12538 -10.11420 -10.10786 -10.10331
 Alpha  occ. eigenvalues --  -10.09153 -10.08105 -10.06946  -1.00753  -0.92576
 Alpha  occ. eigenvalues --   -0.91283  -0.80940  -0.77675  -0.70166  -0.66092
 Alpha  occ. eigenvalues --   -0.63201  -0.56229  -0.56014  -0.50625  -0.48512
 Alpha  occ. eigenvalues --   -0.43987  -0.43196  -0.39835  -0.38397  -0.37436
 Alpha  occ. eigenvalues --   -0.36419  -0.35820  -0.35214  -0.33801  -0.33103
 Alpha  occ. eigenvalues --   -0.32388  -0.31135  -0.29767  -0.28639  -0.25310
 Alpha  occ. eigenvalues --   -0.24488  -0.23688  -0.22469  -0.18673  -0.17924
 Alpha  occ. eigenvalues --   -0.17641  -0.14643  -0.13323   0.04283
 Alpha virt. eigenvalues --    0.06752   0.07413   0.07759   0.08364   0.09125
 Alpha virt. eigenvalues --    0.10070   0.10618   0.11430   0.11875   0.12525
 Alpha virt. eigenvalues --    0.13404   0.14208   0.15059   0.15546   0.16271

  Beta  occ. eigenvalues --  -19.06900 -19.00424 -14.27389 -14.20047 -14.19087
  Beta  occ. eigenvalues --  -10.19797 -10.12537 -10.11353 -10.10725 -10.10308
  Beta  occ. eigenvalues --  -10.09154 -10.08102 -10.06919  -1.00694  -0.92539
  Beta  occ. eigenvalues --   -0.91218  -0.80890  -0.77615  -0.70096  -0.66002
  Beta  occ. eigenvalues --   -0.63121  -0.56154  -0.55931  -0.50579  -0.48451
  Beta  occ. eigenvalues --   -0.43938  -0.43087  -0.39757  -0.38334  -0.37349
  Beta  occ. eigenvalues --   -0.36363  -0.35772  -0.35040  -0.33727  -0.32993
  Beta  occ. eigenvalues --   -0.32326  -0.31081  -0.29723  -0.28577  -0.25248
  Beta  occ. eigenvalues --   -0.24432  -0.23631  -0.22290  -0.18648  -0.17837
  Beta  occ. eigenvalues --   -0.17602  -0.14579  -0.13156
  Beta virt. eigenvalues --    0.07125   0.07396   0.07705   0.08741   0.09035
  Beta virt. eigenvalues --    0.09874   0.10436   0.10881   0.11986   0.12424
  Beta virt. eigenvalues --    0.13029   0.13974   0.14426   0.15141   0.15698

 Mulliken charges and spin densities:
               1          2
     1  C    0.769094  -1.271314
     2  C   -0.136090  -0.454056
     3  C    0.130121   0.289896
     4  C   -0.566338   0.152105
     5  N   -0.129712   0.029861
     6  C    0.203111   0.097686
     7  N   -0.106476   0.199374
     8  C    2.196686  -2.794261
     9  C   -0.838832   0.918769
    10  N   -0.184638  -0.159822
    11  C    0.122972  -0.323139
    12  O   -0.358887   0.011881
    13  O   -0.167363   0.002147
    14  H   -0.195289   0.354781
    15  H   -0.027343   0.210856
    16  H    0.220344  -0.020286
    17  H    0.110129   0.107932
    18  H   -0.330473   0.517848
    19  H   -0.575322   0.779583
    20  H   -0.580610   0.795060
    21  H   -0.864024   1.108373
    22  H   -0.186318   0.439517
    23  H    0.221962   0.005078
    24  H    0.273298   0.002132
 Sum of Mulliken charges =  -1.00000   1.00000

 Dipole moment (field-independent basis, Debye):
    X=             -7.7003    Y=             -2.8834    Z=              0.7336  Tot=              8.2551
 Quadrupole moment (field-independent basis, Debye-Ang):
   XX=           -144.8199   YY=           -114.6446   ZZ=           -105.1322
   XY=             -4.9555   XZ=              1.5323   YZ=              1.1600

 Summary of Natural Population Analysis:

                                       Natural Population
                Natural  -----------------------------------------------
    Atom  No    Charge         Core      Valence    Rydberg      Total
 -----------------------------------------------------------------------
      C    1   -0.18927      0.99961     2.17956    0.01010     3.18927
      C    2   -0.21231      0.99959     2.20538    0.00734     3.21231
      C    3    0.11984      0.99950     1.86910    0.01156     2.88016
      C    4   -0.02488      0.99940     2.01077    0.01471     3.02488
      N    5   -0.23462      0.99971     2.72588    0.00903     3.73462
      C    6    0.10721      0.99963     1.87611    0.01705     2.89279
      N    7   -0.20478      0.99962     2.69420    0.01096     3.70478
      C    8   -0.08712      0.99958     2.07514    0.01239     3.08712
      C    9   -0.02165      0.99961     2.00677    0.01527     3.02165
      N   10   -0.42230      0.99977     2.91199    0.01054     3.92230
      C   11    0.39319      0.99964     1.58283    0.02433     2.60681
      O   12   -0.32305      0.99988     3.31710    0.00608     4.32305
      O   13   -0.33645      0.99988     3.33024    0.00633     4.33645
      H   14    0.10176      0.00000     0.39684    0.00140     0.39824
      H   15    0.10567      0.00000     0.39329    0.00104     0.39433
      H   16    0.11877      0.00000     0.38008    0.00114     0.38123
      H   17    0.11077      0.00000     0.38793    0.00129     0.38923
      H   18    0.09498      0.00000     0.40370    0.00132     0.40502
      H   19    0.10711      0.00000     0.38711    0.00578     0.39289
      H   20    0.10706      0.00000     0.38748    0.00545     0.39294
      H   21    0.10469      0.00000     0.39089    0.00442     0.39531
      H   22    0.18149      0.00000     0.31561    0.00290     0.31851
      H   23    0.17186      0.00000     0.32610    0.00204     0.32814
      H   24    0.23203      0.00000     0.26409    0.00388     0.26797
 =======================================================================
   * Total *   -0.00000     12.99541    34.81821    0.18639    48.00000

 Normal termination of Gaussian 16 at Wed Dec  9 23:29:35 2020.
