 Gaussian 16, Revision A.03,

 -----------------------------------------------------------
 # opt freq B3LYP/6-31G(d) empiricaldispersion=gd3bj scf=xqc
 -----------------------------------------------------------

 -------------------------------
 CID_133616203_JID_1703_neutraal
 -------------------------------
 Symbolic Z-matrix:
 Charge =  0 Multiplicity = 1

 SCF Done:  E(RB3LYP) =  -906.290730583     A.U. after   16 cycles
 SCF Done:  E(RB3LYP) =  -906.298228951     A.U. after   13 cycles
 SCF Done:  E(RB3LYP) =  -906.301341822     A.U. after   14 cycles
 SCF Done:  E(RB3LYP) =  -906.301603565     A.U. after   15 cycles
 SCF Done:  E(RB3LYP) =  -906.302096932     A.U. after   15 cycles
 SCF Done:  E(RB3LYP) =  -906.303973402     A.U. after   14 cycles
 SCF Done:  E(RB3LYP) =  -906.304467948     A.U. after   14 cycles
 SCF Done:  E(RB3LYP) =  -906.304695856     A.U. after   12 cycles
 SCF Done:  E(RB3LYP) =  -906.304707080     A.U. after   10 cycles
 SCF Done:  E(RB3LYP) =  -906.304708052     A.U. after   10 cycles
 SCF Done:  E(RB3LYP) =  -906.304709237     A.U. after    9 cycles
 SCF Done:  E(RB3LYP) =  -906.304709404     A.U. after    9 cycles
 SCF Done:  E(RB3LYP) =  -906.304709484     A.U. after    9 cycles
 Optimization completed.
    -- Stationary point found.
 Normal termination of Gaussian 16 at Tue Dec  8 20:46:38 2020.

 --------------------------------------------------------------------
 #N Geom=AllCheck Guess=TCheck SCRF=Check GenChk RB3LYP/6-31G(d) Freq
 --------------------------------------------------------------------

 Structure from the checkpoint file:  "JID_1703.chk"
 -------------------------------
 CID_133616203_JID_1703_neutraal
 -------------------------------
 Charge =  0 Multiplicity = 1

 SCF Done:  E(RB3LYP) =  -906.304709484     A.U. after    1 cycles

  Exact polarizability: 178.137   4.015 102.950  -0.685   0.360  38.461
 Approx polarizability: 279.650   6.751 208.214   1.378   0.962  60.876

                      1                      2                      3
                      A                      A                      A
 Frequencies --     62.7504                89.6909               105.8636
 Red. masses --      6.1042                 5.8350                 6.3933
 Frc consts  --      0.0142                 0.0277                 0.0422
 IR Inten    --      3.6558                 3.7640                 3.4128

                      4                      5                      6
                      A                      A                      A
 Frequencies --    149.1648               197.1355               208.3484
 Red. masses --      2.6739                 6.6857                 8.6269
 Frc consts  --      0.0351                 0.1531                 0.2206
 IR Inten    --     15.5670                 5.4834                 6.2410

                      7                      8                      9
                      A                      A                      A
 Frequencies --    328.2694               336.8398               388.2667
 Red. masses --      9.6368                 5.1378                 3.9181
 Frc consts  --      0.6119                 0.3435                 0.3480
 IR Inten    --      0.2963                 1.3013                23.1981

                     10                     11                     12
                      A                      A                      A
 Frequencies --    443.3436               456.3826               460.4738
 Red. masses --      4.5871                 5.0764                 1.5475
 Frc consts  --      0.5312                 0.6230                 0.1933
 IR Inten    --     19.7726                 0.6576                11.1508

                     13                     14                     15
                      A                      A                      A
 Frequencies --    515.2268               630.8743               687.2962
 Red. masses --      8.0101                 2.7109                 4.3476
 Frc consts  --      1.2528                 0.6357                 1.2100
 IR Inten    --      5.8229                12.4232               253.9768

                     16                     17                     18
                      A                      A                      A
 Frequencies --    713.2357               735.9325               754.7305
 Red. masses --      1.7804                 5.6986                 5.2984
 Frc consts  --      0.5336                 1.8184                 1.7782
 IR Inten    --    319.9748                 7.2323                 3.8769

                     19                     20                     21
                      A                      A                      A
 Frequencies --    804.9842               821.9360               887.4856
 Red. masses --      1.5042                 9.0441                 1.4463
 Frc consts  --      0.5743                 3.5999                 0.6712
 IR Inten    --     30.2570                24.6928                 5.2640

                     22                     23                     24
                      A                      A                      A
 Frequencies --    894.0405               944.3014              1011.6366
 Red. masses --      3.9921                 1.5567                 2.8448
 Frc consts  --      1.8800                 0.8179                 1.7153
 IR Inten    --     14.9625                23.6495                 0.4559

                     25                     26                     27
                      A                      A                      A
 Frequencies --   1100.0474              1158.2150              1215.9798
 Red. masses --      2.5531                 4.9861                 1.8583
 Frc consts  --      1.8203                 3.9408                 1.6189
 IR Inten    --     24.7476                39.4492                13.6982

                     28                     29                     30
                      A                      A                      A
 Frequencies --   1228.1059              1285.3580              1380.5067
 Red. masses --      1.6777                 1.2146                 4.7514
 Frc consts  --      1.4908                 1.1823                 5.3352
 IR Inten    --     33.1371                22.9362               258.9278

                     31                     32                     33
                      A                      A                      A
 Frequencies --   1403.4868              1457.4523              1487.4840
 Red. masses --      3.2577                 3.7870                 3.5909
 Frc consts  --      3.7808                 4.7395                 4.6812
 IR Inten    --    284.2500                17.1606                48.3504

                     34                     35                     36
                      A                      A                      A
 Frequencies --   1594.0474              1622.8070              1685.8004
 Red. masses --      7.0903                12.6319                 1.8753
 Frc consts  --     10.6150                19.5998                 3.1400
 IR Inten    --     41.1177               152.7526                50.9335

                     37                     38                     39
                      A                      A                      A
 Frequencies --   1707.9357              3053.9160              3257.4601
 Red. masses --      1.9396                 1.0860                 1.0940
 Frc consts  --      3.3336                 5.9675                 6.8396
 IR Inten    --     15.9947                54.1070                 1.4563

                     40                     41                     42
                      A                      A                      A
 Frequencies --   3279.9777              3429.3654              3615.7494
 Red. masses --      1.0931                 1.0535                 1.0906
 Frc consts  --      6.9285                 7.2995                 8.4005
 IR Inten    --      3.4308                 2.9965                20.5439

 - Thermochemistry -
 -------------------
 Temperature   298.150 Kelvin.  Pressure   1.00000 Atm.
 Atom     1 has atomic number  6 and mass  12.00000

 Molecular mass:   171.01025 amu.
 Principal axes and moments of inertia in atomic units:
                           1         2         3
     Eigenvalues --   678.635413868.847574545.34106
           X            0.99996   0.00797  -0.00270
           Y           -0.00798   0.99997  -0.00099
           Z            0.00269   0.00101   1.00000
 This molecule is an asymmetric top.
 Rotational symmetry number  1.
 Warning -- assumption of classical behavior for rotation
           may cause significant error
 Rotational temperatures (Kelvin)      0.12763     0.02239     0.01906
 Rotational constants (GHZ):           2.65937     0.46648     0.39705
 Zero-point vibrational energy     284662.8 (Joules/Mol)
                                   68.03604 (Kcal/Mol)
 Warning -- explicit consideration of  13 degrees of freedom as
           vibrations may cause significant error
 Vibrational temperatures:     90.28   129.05   152.31   214.61   283.63
          (Kelvin)            299.77   472.31   484.64   558.63   637.87
                              656.63   662.52   741.30   907.69   988.87
                             1026.19  1058.84  1085.89  1158.19  1182.58
                             1276.89  1286.32  1358.64  1455.52  1582.72
                             1666.41  1749.52  1766.97  1849.34  1986.24
                             2019.30  2096.95  2140.16  2293.48  2334.86
                             2425.49  2457.34  4393.90  4686.76  4719.16
                             4934.09  5202.26

 Zero-point correction=                           0.108422 (Hartree/Particle)
 Thermal correction to Energy=                    0.118405
 Thermal correction to Enthalpy=                  0.119349
 Thermal correction to Gibbs Free Energy=         0.072000
 Sum of electronic and zero-point Energies=           -906.196287
 Sum of electronic and thermal Energies=              -906.186304
 Sum of electronic and thermal Enthalpies=            -906.185360
 Sum of electronic and thermal Free Energies=         -906.232710

                     E (Thermal)             CV                S
                      KCal/Mol        Cal/Mol-Kelvin    Cal/Mol-Kelvin
 Total                   74.300             36.218             99.655
 Electronic               0.000              0.000              0.000
 Translational            0.889              2.981             41.317
 Rotational               0.889              2.981             30.857
 Vibrational             72.523             30.257             27.480
 Vibration     1          0.597              1.972              4.369
 Vibration     2          0.602              1.956              3.667
 Vibration     3          0.605              1.945              3.343
 Vibration     4          0.618              1.904              2.683
 Vibration     5          0.637              1.844              2.160
 Vibration     6          0.642              1.828              2.058
 Vibration     7          0.711              1.619              1.269
 Vibration     8          0.718              1.602              1.227
 Vibration     9          0.756              1.495              1.007
 Vibration    10          0.803              1.376              0.816
 Vibration    11          0.815              1.347              0.777
 Vibration    12          0.818              1.338              0.765
 Vibration    13          0.870              1.216              0.621

 Optimization completed.
    -- Stationary point found.
 Normal termination of Gaussian 16 at Tue Dec  8 20:49:18 2020.

 ----------------------------------------------------------------------
 # B3LYP/6-311++G(d,p) empiricaldispersion=gd3bj scf=xqc pop=npa geom=c
 heck
 ----------------------------------------------------------------------

 ---------------------------------------
 CID_133616203_JID_1703_Energie_neutraal
 ---------------------------------------
 Structure from the checkpoint file:  "JID_1703.chk"
 Charge =  0 Multiplicity = 1

 SCF Done:  E(RB3LYP) =  -906.483400981     A.U. after   17 cycles
 Normal termination of Gaussian 16 at Tue Dec  8 20:50:53 2020.

 ----------------------------------------------------------------------
 # B3LYP/6-311++G(d,p) empiricaldispersion=gd3bj scf=xqc pop=npa geom=c
 heck
 ----------------------------------------------------------------------

 -------------------------------------
 CID_133616203_JID_1703_Energie_kation
 -------------------------------------
 Structure from the checkpoint file:  "JID_1703.chk"
 Charge =  1 Multiplicity = 2

 SCF Done:  E(UB3LYP) =  -906.175187877     A.U. after   26 cycles
 Normal termination of Gaussian 16 at Tue Dec  8 20:54:23 2020.
 Gaussian 16:  ES64L-G16RevA.03 25-Dec-2016

 ----------------------------------------------------------------------
 # B3LYP/6-311++G(d,p) empiricaldispersion=gd3bj scf=xqc pop=npa geom=c
 heck
 ----------------------------------------------------------------------

 ------------------------------------
 CID_133616203_JID_1703_Energie_anion
 ------------------------------------
 Structure from the checkpoint file:  "JID_1703.chk"
 Charge = -1 Multiplicity = 2

                         Standard orientation:
 ---------------------------------------------------------------------
 Center     Atomic      Atomic             Coordinates (Angstroms)
 Number     Number       Type             X           Y           Z
 ---------------------------------------------------------------------
      1          6           0        0.167030   -0.892407   -0.012156
      2          6           0        1.304837   -0.129311   -0.001855
      3         16           0        0.990627    1.578373   -0.001290
      4          6           0       -0.702209    1.261982   -0.014943
      5          6           0       -1.009975   -0.088020   -0.018013
      6          6           0       -2.360486   -0.642483   -0.023874
      7          7           0       -3.390853    0.121160    0.026787
      8          7           0       -4.625293   -0.450104   -0.070051
      9          7           0        2.652532   -0.611665    0.008055
     10          8           0        3.554092    0.233191    0.017320
     11          8           0        2.818275   -1.833094    0.007042
     12          1           0        0.188531   -1.974754   -0.014509
     13          1           0       -1.412498    2.076992   -0.023066
     14          1           0       -2.450133   -1.735647   -0.079016
     15          1           0       -4.684095   -1.425382    0.230124
     16          1           0       -5.320651    0.129752    0.383715
 ---------------------------------------------------------------------

 SCF Done:  E(UB3LYP) =  -906.529463001     A.U. after   24 cycles

 The electronic state is 2-A.
 Alpha  occ. eigenvalues --  -88.73330 -18.95182 -18.95098 -14.33516 -14.24558
 Alpha  occ. eigenvalues --  -14.22593 -10.09249 -10.07727 -10.05058 -10.04655
 Alpha  occ. eigenvalues --  -10.03604  -7.81953  -5.78242  -5.77881  -5.77587
 Alpha  occ. eigenvalues --   -1.03175  -0.89355  -0.86030  -0.75214  -0.70819
 Alpha  occ. eigenvalues --   -0.62598  -0.60865  -0.53021  -0.50157  -0.44123
 Alpha  occ. eigenvalues --   -0.41657  -0.40330  -0.38074  -0.36014  -0.35523
 Alpha  occ. eigenvalues --   -0.32445  -0.31186  -0.29224  -0.26168  -0.25756
 Alpha  occ. eigenvalues --   -0.24376  -0.21541  -0.17186  -0.16307  -0.14041
 Alpha  occ. eigenvalues --   -0.12900  -0.11763  -0.10865  -0.09125   0.01987
 Alpha virt. eigenvalues --    0.06322   0.07873   0.09306   0.10475   0.12181
 Alpha virt. eigenvalues --    0.13870   0.14246   0.14837   0.15785   0.16197
 Alpha virt. eigenvalues --    0.16790   0.17678   0.17995   0.18527   0.19452

  Beta  occ. eigenvalues --  -88.73263 -18.94778 -18.94668 -14.32974 -14.24572
  Beta  occ. eigenvalues --  -14.22627 -10.09194 -10.07698 -10.05188 -10.04204
  Beta  occ. eigenvalues --  -10.03420  -7.81893  -5.78212  -5.77854  -5.77364
  Beta  occ. eigenvalues --   -1.02261  -0.89393  -0.85243  -0.74938  -0.70774
  Beta  occ. eigenvalues --   -0.61987  -0.60489  -0.52483  -0.49648  -0.43998
  Beta  occ. eigenvalues --   -0.41537  -0.40108  -0.37408  -0.35830  -0.32936
  Beta  occ. eigenvalues --   -0.31812  -0.31017  -0.29192  -0.25971  -0.25572
  Beta  occ. eigenvalues --   -0.23478  -0.21228  -0.17197  -0.15984  -0.12499
  Beta  occ. eigenvalues --   -0.11399  -0.10448  -0.10172  -0.07977
  Beta virt. eigenvalues --    0.06317   0.07893   0.09252   0.09880   0.10476
  Beta virt. eigenvalues --    0.12164   0.13871   0.14300   0.14856   0.15790
  Beta virt. eigenvalues --    0.16811   0.17101   0.17962   0.18383   0.19120

 Mulliken charges and spin densities:
               1          2
     1  C    0.350939   0.223616
     2  C   -0.928810  -0.068503
     3  S   -0.599140   0.123552
     4  C    1.123787   0.323820
     5  C   -0.327574  -0.109873
     6  C   -0.757721   0.056410
     7  N   -0.123390  -0.015717
     8  N   -0.167602  -0.004293
     9  N   -0.165784   0.186023
    10  O   -0.223833   0.156602
    11  O   -0.179025   0.164086
    12  H    0.217817  -0.011441
    13  H    0.257729  -0.023729
    14  H    0.114837  -0.003867
    15  H    0.184684   0.003014
    16  H    0.223086   0.000299
 Sum of Mulliken charges =  -1.00000   1.00000

 Dipole moment (field-independent basis, Debye):
    X=             -9.0634    Y=              0.2909    Z=              0.9467  Tot=              9.1174
 Quadrupole moment (field-independent basis, Debye-Ang):
   XX=           -115.8115   YY=            -80.8851   ZZ=            -77.7951
   XY=             10.7541   XZ=             -5.8226   YZ=             -0.3995

 Summary of Natural Population Analysis:

                                       Natural Population
                Natural  -----------------------------------------------
    Atom  No    Charge         Core      Valence    Rydberg      Total
 -----------------------------------------------------------------------
      C    1   -0.07475      0.99945     2.06479    0.01051     3.07475
      C    2   -0.04247      0.99942     2.02834    0.01470     3.04247
      S    3    0.24606      4.99941     2.72935    0.02518     7.75394
      C    4   -0.08199      0.99951     2.07131    0.01117     3.08199
      C    5   -0.11696      0.99949     2.10703    0.01044     3.11696
      C    6    0.04335      0.99959     1.94309    0.01397     2.95665
      N    7   -0.15724      0.99964     2.64108    0.01651     3.65724
      N    8   -0.31789      0.99976     2.80431    0.01382     3.81789
      N    9    0.28591      0.99966     2.18636    0.02806     3.21409
      O   10   -0.20113      0.99990     3.19355    0.00769     4.20113
      O   11   -0.19682      0.99990     3.18918    0.00774     4.19682
      H   12    0.11042      0.00000     0.38823    0.00136     0.38958
      H   13    0.10154      0.00000     0.39722    0.00125     0.39846
      H   14    0.06779      0.00000     0.43005    0.00216     0.43221
      H   15    0.15912      0.00000     0.33771    0.00317     0.34088
      H   16    0.17506      0.00000     0.32333    0.00161     0.32494
 =======================================================================
   * Total *   -0.00000     14.99575    28.83491    0.16934    44.00000

 Normal termination of Gaussian 16 at Tue Dec  8 20:57:38 2020.
