 Gaussian 16, Revision A.03,

 -----------------------------------------------------------
 # opt freq B3LYP/6-31G(d) empiricaldispersion=gd3bj scf=xqc
 -----------------------------------------------------------

 ------------------------------
 CID_20515483_JID_3092_neutraal
 ------------------------------
 Symbolic Z-matrix:
 Charge =  0 Multiplicity = 1

 SCF Done:  E(RB3LYP) =  -611.394229290     A.U. after   15 cycles
 SCF Done:  E(RB3LYP) =  -611.399968543     A.U. after   12 cycles
 SCF Done:  E(RB3LYP) =  -611.400177125     A.U. after   12 cycles
 SCF Done:  E(RB3LYP) =  -611.400903400     A.U. after   12 cycles
 SCF Done:  E(RB3LYP) =  -611.401264754     A.U. after   11 cycles
 SCF Done:  E(RB3LYP) =  -611.401626050     A.U. after   12 cycles
 SCF Done:  E(RB3LYP) =  -611.401682106     A.U. after   10 cycles
 SCF Done:  E(RB3LYP) =  -611.401699389     A.U. after   10 cycles
 SCF Done:  E(RB3LYP) =  -611.401705485     A.U. after    9 cycles
 SCF Done:  E(RB3LYP) =  -611.401707214     A.U. after    8 cycles
 SCF Done:  E(RB3LYP) =  -611.401709043     A.U. after    9 cycles
 SCF Done:  E(RB3LYP) =  -611.401711129     A.U. after    9 cycles
 SCF Done:  E(RB3LYP) =  -611.401712657     A.U. after    9 cycles
 SCF Done:  E(RB3LYP) =  -611.401713607     A.U. after    8 cycles
 SCF Done:  E(RB3LYP) =  -611.401713874     A.U. after    8 cycles
 Optimization completed.
    -- Stationary point found.
 Normal termination of Gaussian 16 at Wed Dec  9 22:26:06 2020.

 --------------------------------------------------------------------
 #N Geom=AllCheck Guess=TCheck SCRF=Check GenChk RB3LYP/6-31G(d) Freq
 --------------------------------------------------------------------

 Structure from the checkpoint file:  "JID_3092.chk"
 ------------------------------
 CID_20515483_JID_3092_neutraal
 ------------------------------
 Charge =  0 Multiplicity = 1

 SCF Done:  E(RB3LYP) =  -611.401713874     A.U. after    1 cycles

  Exact polarizability: 160.062  -3.252 128.244  -5.676   2.144  66.470
 Approx polarizability: 208.921 -14.181 216.233 -11.980   4.304  97.360

                      1                      2                      3
                      A                      A                      A
 Frequencies --     48.9138                54.6073                91.9323
 Red. masses --      3.0088                 3.7593                 2.0743
 Frc consts  --      0.0042                 0.0066                 0.0103
 IR Inten    --      0.0990                 2.3523                 2.2628

                      4                      5                      6
                      A                      A                      A
 Frequencies --    101.2280               115.2078               157.8482
 Red. masses --      1.7032                 3.0827                 2.4104
 Frc consts  --      0.0103                 0.0241                 0.0354
 IR Inten    --      1.1060                 0.2515                 2.0538

                      7                      8                      9
                      A                      A                      A
 Frequencies --    166.3934               191.3275               223.3096
 Red. masses --      1.5000                 1.7605                 3.3092
 Frc consts  --      0.0245                 0.0380                 0.0972
 IR Inten    --      1.5309                 3.1233                 1.2292

                     10                     11                     12
                      A                      A                      A
 Frequencies --    239.5197               286.0431               320.0591
 Red. masses --      1.2692                 3.7151                 2.7640
 Frc consts  --      0.0429                 0.1791                 0.1668
 IR Inten    --      2.7640                 1.3804                 3.0168

                     13                     14                     15
                      A                      A                      A
 Frequencies --    336.5373               349.3739               362.9089
 Red. masses --      3.3656                 2.7045                 2.8698
 Frc consts  --      0.2246                 0.1945                 0.2227
 IR Inten    --      3.1361                22.6698                22.7089

                     16                     17                     18
                      A                      A                      A
 Frequencies --    383.5719               416.9600               461.8422
 Red. masses --      1.3578                 5.6974                 3.2197
 Frc consts  --      0.1177                 0.5836                 0.4046
 IR Inten    --     40.7106                 3.6983                 3.4302

                     19                     20                     21
                      A                      A                      A
 Frequencies --    591.3988               596.2838               620.3124
 Red. masses --      3.6942                 3.2633                 5.0229
 Frc consts  --      0.7613                 0.6836                 1.1387
 IR Inten    --     88.0424                 1.5004                 4.1323

                     22                     23                     24
                      A                      A                      A
 Frequencies --    638.5702               660.6724               691.1913
 Red. masses --      1.6426                 4.2628                 2.2291
 Frc consts  --      0.3946                 1.0963                 0.6274
 IR Inten    --    154.9576                 2.7075                47.7019

                     25                     26                     27
                      A                      A                      A
 Frequencies --    739.2542               767.9509               774.0634
 Red. masses --      3.9522                 2.0980                 1.9298
 Frc consts  --      1.2726                 0.7290                 0.6813
 IR Inten    --      1.0624                53.3106                22.1238

                     28                     29                     30
                      A                      A                      A
 Frequencies --    837.1355               859.0248               915.6503
 Red. masses --      2.1563                 2.7690                 2.5503
 Frc consts  --      0.8903                 1.2039                 1.2598
 IR Inten    --      0.5037                 6.0229                 2.6995

                     31                     32                     33
                      A                      A                      A
 Frequencies --   1017.2882              1044.9335              1072.8643
 Red. masses --      1.5373                 2.7279                 1.5136
 Frc consts  --      0.9374                 1.7549                 1.0265
 IR Inten    --      3.8753                 4.3187                 8.3079

                     34                     35                     36
                      A                      A                      A
 Frequencies --   1074.5069              1120.1420              1137.3833
 Red. masses --      2.0972                 2.4176                 2.4045
 Frc consts  --      1.4267                 1.7872                 1.8327
 IR Inten    --     48.9757               111.2449               216.1936

                     37                     38                     39
                      A                      A                      A
 Frequencies --   1160.1674              1166.0586              1184.4574
 Red. masses --      1.2926                 2.0795                 2.8174
 Frc consts  --      1.0250                 1.6659                 2.3288
 IR Inten    --      0.1487                88.9992                70.1505

                     40                     41                     42
                      A                      A                      A
 Frequencies --   1207.2666              1248.7816              1315.4028
 Red. masses --      1.7638                 1.5932                 4.5314
 Frc consts  --      1.5146                 1.4639                 4.6196
 IR Inten    --     33.5046                32.6177               157.7457

                     43                     44                     45
                      A                      A                      A
 Frequencies --   1344.3767              1392.5874              1418.2459
 Red. masses --      1.1050                 3.6579                 1.3837
 Frc consts  --      1.1767                 4.1795                 1.6398
 IR Inten    --      7.5047                89.4278                17.4579

                     46                     47                     48
                      A                      A                      A
 Frequencies --   1440.9371              1444.7328              1466.3333
 Red. masses --      1.3220                 1.3120                 2.3788
 Frc consts  --      1.6173                 1.6135                 3.0136
 IR Inten    --     18.2674                 3.2372                88.5470

                     49                     50                     51
                      A                      A                      A
 Frequencies --   1497.2716              1503.6273              1513.6672
 Red. masses --      1.2374                 1.0428                 1.1196
 Frc consts  --      1.6344                 1.3890                 1.5114
 IR Inten    --     22.4724                11.4805                11.6830

                     52                     53                     54
                      A                      A                      A
 Frequencies --   1516.3839              1520.2700              1520.4111
 Red. masses --      1.1199                 1.2937                 1.0595
 Frc consts  --      1.5172                 1.7617                 1.4431
 IR Inten    --     13.2462                56.5591                 6.5826

                     55                     56                     57
                      A                      A                      A
 Frequencies --   1533.1321              1539.1713              1554.2191
 Red. masses --      1.8717                 1.0988                 2.2915
 Frc consts  --      2.5921                 1.5337                 3.2613
 IR Inten    --    103.7776                26.9296                19.5248

                     58                     59                     60
                      A                      A                      A
 Frequencies --   1565.7424              1613.1630              1679.9642
 Red. masses --      2.6601                 3.3532                 1.3710
 Frc consts  --      3.8422                 5.1413                 2.2798
 IR Inten    --     62.0440                55.9928               126.1443

                     61                     62                     63
                      A                      A                      A
 Frequencies --   1761.9906              3040.6353              3057.9287
 Red. masses --     10.9119                 1.0397                 1.0367
 Frc consts  --     19.9599                 5.6638                 5.7115
 IR Inten    --    468.7927                35.6375                22.2567

                     64                     65                     66
                      A                      A                      A
 Frequencies --   3086.5215              3088.5758              3090.1803
 Red. masses --      1.0325                 1.1011                 1.0598
 Frc consts  --      5.7956                 6.1887                 5.9627
 IR Inten    --     37.8181                19.1101                35.8904

                     67                     68                     69
                      A                      A                      A
 Frequencies --   3121.2948              3139.6322              3140.6356
 Red. masses --      1.1025                 1.1026                 1.0977
 Frc consts  --      6.3285                 6.4039                 6.3795
 IR Inten    --     28.5999                12.2512                13.5834

                     70                     71                     72
                      A                      A                      A
 Frequencies --   3151.6539              3157.6500              3176.1824
 Red. masses --      1.1052                 1.1060                 1.1046
 Frc consts  --      6.4680                 6.4976                 6.5652
 IR Inten    --     11.8366                26.5862                15.0971

                     73                     74                     75
                      A                      A                      A
 Frequencies --   3251.6936              3552.9970              3661.1069
 Red. masses --      1.0958                 1.0467                 1.0992
 Frc consts  --      6.8265                 7.7850                 8.6808
 IR Inten    --      7.2525                20.4063                31.8344

 - Thermochemistry -
 -------------------
 Temperature   298.150 Kelvin.  Pressure   1.00000 Atm.
 Atom     1 has atomic number  6 and mass  12.00000

 Molecular mass:   182.10553 amu.
 Principal axes and moments of inertia in atomic units:
                           1         2         3
     Eigenvalues --  1198.266483499.892184484.51517
           X            0.99990   0.01307   0.00441
           Y           -0.01308   0.99991   0.00189
           Z           -0.00438  -0.00195   0.99999
 This molecule is an asymmetric top.
 Rotational symmetry number  1.
 Warning -- assumption of classical behavior for rotation
           may cause significant error
 Rotational temperatures (Kelvin)      0.07228     0.02475     0.01931
 Rotational constants (GHZ):           1.50613     0.51566     0.40244
 Zero-point vibrational energy     599875.0 (Joules/Mol)
                                  143.37355 (Kcal/Mol)
 Warning -- explicit consideration of  21 degrees of freedom as
           vibrations may cause significant error
 Vibrational temperatures:     70.38    78.57   132.27   145.64   165.76
          (Kelvin)            227.11   239.40   275.28   321.29   344.62
                              411.55   460.49   484.20   502.67   522.14
                              551.87   599.91   664.49   850.89   857.92
                              892.49   918.76   950.56   994.47  1063.62
                             1104.91  1113.70  1204.45  1235.95  1317.42
                             1463.65  1503.43  1543.61  1545.98  1611.63
                             1636.44  1669.22  1677.70  1704.17  1736.99
                             1796.72  1892.57  1934.26  2003.62  2040.54
                             2073.19  2078.65  2109.73  2154.24  2163.38
                             2177.83  2181.74  2187.33  2187.53  2205.84
                             2214.52  2236.17  2252.75  2320.98  2417.09
                             2535.11  4374.80  4399.68  4440.82  4443.77
                             4446.08  4490.85  4517.23  4518.67  4534.53
                             4543.15  4569.82  4678.46  5111.97  5267.52

 Zero-point correction=                           0.228480 (Hartree/Particle)
 Thermal correction to Energy=                    0.242473
 Thermal correction to Enthalpy=                  0.243418
 Thermal correction to Gibbs Free Energy=         0.187812
 Sum of electronic and zero-point Energies=           -611.173234
 Sum of electronic and thermal Energies=              -611.159241
 Sum of electronic and thermal Enthalpies=            -611.158296
 Sum of electronic and thermal Free Energies=         -611.213902

                     E (Thermal)             CV                S
                      KCal/Mol        Cal/Mol-Kelvin    Cal/Mol-Kelvin
 Total                  152.154             51.280            117.031
 Electronic               0.000              0.000              0.000
 Translational            0.889              2.981             41.505
 Rotational               0.889              2.981             31.309
 Vibrational            150.377             45.319             44.217
 Vibration     1          0.595              1.978              4.861
 Vibration     2          0.596              1.976              4.643
 Vibration     3          0.602              1.955              3.619
 Vibration     4          0.604              1.948              3.431
 Vibration     5          0.608              1.937              3.179
 Vibration     6          0.621              1.894              2.575
 Vibration     7          0.624              1.884              2.476
 Vibration     8          0.634              1.852              2.215
 Vibration     9          0.649              1.806              1.932
 Vibration    10          0.657              1.780              1.806
 Vibration    11          0.684              1.700              1.497
 Vibration    12          0.706              1.635              1.310
 Vibration    13          0.717              1.603              1.229
 Vibration    14          0.727              1.577              1.169
 Vibration    15          0.737              1.549              1.110
 Vibration    16          0.753              1.505              1.025
 Vibration    17          0.780              1.433              0.902
 Vibration    18          0.820              1.335              0.761
 Vibration    19          0.949              1.050              0.465
 Vibration    20          0.954              1.040              0.456
 Vibration    21          0.980              0.989              0.416

                           ! Non-Optimized Parameters !
 Normal termination of Gaussian 16 at Wed Dec  9 22:32:06 2020.

 ----------------------------------------------------------------------
 # B3LYP/6-311++G(d,p) empiricaldispersion=gd3bj scf=xqc pop=npa geom=c
 heck
 ----------------------------------------------------------------------

 --------------------------------------
 CID_20515483_JID_3092_Energie_neutraal
 --------------------------------------
 Structure from the checkpoint file:  "JID_3092.chk"
 Charge =  0 Multiplicity = 1

 SCF Done:  E(RB3LYP) =  -611.580179560     A.U. after   15 cycles
 Normal termination of Gaussian 16 at Wed Dec  9 22:34:49 2020.

 ----------------------------------------------------------------------
 # B3LYP/6-311++G(d,p) empiricaldispersion=gd3bj scf=xqc pop=npa geom=c
 heck
 ----------------------------------------------------------------------

 ------------------------------------
 CID_20515483_JID_3092_Energie_kation
 ------------------------------------
 Structure from the checkpoint file:  "JID_3092.chk"
 Charge =  1 Multiplicity = 2

 SCF Done:  E(UB3LYP) =  -611.314894881     A.U. after   23 cycles
 Normal termination of Gaussian 16 at Wed Dec  9 22:40:34 2020.
 Gaussian 16:  ES64L-G16RevA.03 25-Dec-2016

 ----------------------------------------------------------------------
 # B3LYP/6-311++G(d,p) empiricaldispersion=gd3bj scf=xqc pop=npa geom=c
 heck
 ----------------------------------------------------------------------

 -----------------------------------
 CID_20515483_JID_3092_Energie_anion
 -----------------------------------
 Structure from the checkpoint file:  "JID_3092.chk"
 Charge = -1 Multiplicity = 2

                         Standard orientation:
 ---------------------------------------------------------------------
 Center     Atomic      Atomic             Coordinates (Angstroms)
 Number     Number       Type             X           Y           Z
 ---------------------------------------------------------------------
      1          6           0        3.903143   -0.326013    0.960874
      2          6           0        3.343472    0.024235   -0.409258
      3          8           0        1.983796    0.493498   -0.317274
      4          6           0        1.014285   -0.482096   -0.258625
      5          8           0        1.291940   -1.674066   -0.304708
      6          6           0       -0.297629    0.093035   -0.137773
      7          6           0       -0.699530    1.438766   -0.052766
      8          6           0       -2.103708    1.442580    0.117747
      9          6           0       -2.536558    0.122988    0.128115
     10          7           0       -1.457553   -0.695699   -0.028077
     11          6           0       -1.494224   -2.149008   -0.073149
     12          6           0       -3.935745   -0.383009    0.273158
     13          7           0        0.107223    2.556826   -0.178555
     14          1           0        3.829049    0.529327    1.640926
     15          1           0        4.958756   -0.608842    0.875703
     16          1           0        3.352377   -1.167595    1.388715
     17          1           0        3.888203    0.855003   -0.865546
     18          1           0        3.373909   -0.839018   -1.077659
     19          1           0       -2.740012    2.312781    0.207343
     20          1           0       -2.532894   -2.472776    0.001707
     21          1           0       -1.064464   -2.515838   -1.007289
     22          1           0       -0.918131   -2.578119    0.749714
     23          1           0       -4.263637   -0.955353   -0.603781
     24          1           0       -4.056243   -1.029147    1.151758
     25          1           0       -4.616021    0.464564    0.388559
     26          1           0        1.092142    2.363630   -0.047279
     27          1           0       -0.217644    3.369166    0.329459
 ---------------------------------------------------------------------

 SCF Done:  E(UB3LYP) =  -611.565961558     A.U. after   33 cycles
 SCF Done:  E(UB3LYP) =  -611.565961558     a.u. after    1 cycles

 The electronic state is 2-A.
 Alpha  occ. eigenvalues --  -19.06032 -18.99694 -14.26010 -14.21272 -10.19445
 Alpha  occ. eigenvalues --  -10.13096 -10.11110 -10.11004 -10.10321 -10.09094
 Alpha  occ. eigenvalues --  -10.07552 -10.07150 -10.05242  -0.99583  -0.90994
 Alpha  occ. eigenvalues --   -0.88643  -0.80871  -0.69598  -0.68693  -0.66369
 Alpha  occ. eigenvalues --   -0.60704  -0.58583  -0.55111  -0.49411  -0.47318
 Alpha  occ. eigenvalues --   -0.45608  -0.43040  -0.40438  -0.38380  -0.37544
 Alpha  occ. eigenvalues --   -0.36553  -0.35565  -0.35204  -0.33890  -0.32023
 Alpha  occ. eigenvalues --   -0.31886  -0.30913  -0.30503  -0.29339  -0.28779
 Alpha  occ. eigenvalues --   -0.28105  -0.27182  -0.26800  -0.24488  -0.21678
 Alpha  occ. eigenvalues --   -0.20259  -0.17691  -0.12495  -0.09725   0.04272
 Alpha virt. eigenvalues --    0.05825   0.06740   0.07607   0.08077   0.08484
 Alpha virt. eigenvalues --    0.09035   0.09529   0.10140   0.10863   0.11837
 Alpha virt. eigenvalues --    0.11984   0.12358   0.13452   0.13741   0.14757

  Beta  occ. eigenvalues --  -19.06030 -18.99689 -14.26009 -14.21240 -10.19441
  Beta  occ. eigenvalues --  -10.13081 -10.11105 -10.11001 -10.10296 -10.09093
  Beta  occ. eigenvalues --  -10.07498 -10.07125 -10.05228  -0.99575  -0.90987
  Beta  occ. eigenvalues --   -0.88633  -0.80825  -0.69572  -0.68666  -0.66329
  Beta  occ. eigenvalues --   -0.60657  -0.58542  -0.55060  -0.49371  -0.47278
  Beta  occ. eigenvalues --   -0.45581  -0.43006  -0.40404  -0.38347  -0.37515
  Beta  occ. eigenvalues --   -0.36527  -0.35539  -0.35181  -0.33855  -0.31987
  Beta  occ. eigenvalues --   -0.31841  -0.30885  -0.30458  -0.29305  -0.28745
  Beta  occ. eigenvalues --   -0.28077  -0.27154  -0.26770  -0.24468  -0.21648
  Beta  occ. eigenvalues --   -0.20247  -0.17684  -0.12476  -0.09704
  Beta virt. eigenvalues --    0.06398   0.06969   0.07546   0.07865   0.08688
  Beta virt. eigenvalues --    0.08802   0.09513   0.10240   0.10747   0.11283
  Beta virt. eigenvalues --    0.11988   0.12318   0.12751   0.13595   0.14033

 Mulliken charges and spin densities:
               1          2
     1  C    0.457125  -0.772024
     2  C    0.065521  -0.261738
     3  O   -0.092633   0.013667
     4  C    0.417720  -0.780818
     5  O   -0.302687   0.007520
     6  C    0.614626  -0.438472
     7  C   -0.868327   0.724917
     8  C   -0.893703   1.060006
     9  C   -1.972218   1.869395
    10  N   -0.121408   0.206002
    11  C    0.316690  -0.681837
    12  C    4.217174  -4.937668
    13  N   -0.386534   0.024712
    14  H   -0.122772   0.261670
    15  H   -0.130154   0.258880
    16  H   -0.004482   0.173518
    17  H   -0.298279   0.462134
    18  H    0.141541   0.022654
    19  H   -0.615173   0.788684
    20  H   -0.290099   0.430038
    21  H    0.031567   0.158266
    22  H    0.025984   0.166458
    23  H   -0.332513   0.504739
    24  H   -0.423432   0.600713
    25  H   -0.367512   0.529248
    26  H    0.186211   0.109666
    27  H   -0.252233   0.499669
 Sum of Mulliken charges =  -1.00000   1.00000

 Dipole moment (field-independent basis, Debye):
    X=              4.0331    Y=             -1.3409    Z=             -1.1965  Tot=              4.4153
 Quadrupole moment (field-independent basis, Debye-Ang):
   XX=           -163.3327   YY=           -124.9177   ZZ=           -105.6877
   XY=             -5.3066   XZ=              1.7823   YZ=              0.1007

 Summary of Natural Population Analysis:

                                       Natural Population
                Natural  -----------------------------------------------
    Atom  No    Charge         Core      Valence    Rydberg      Total
 -----------------------------------------------------------------------
      C    1   -0.29815      0.99966     2.29425    0.00424     3.29815
      C    2   -0.01545      0.99958     2.00380    0.01208     3.01545
      O    3   -0.29753      0.99987     3.28807    0.00960     4.29753
      C    4    0.38079      0.99958     1.59745    0.02218     2.61921
      O    5   -0.32975      0.99988     3.32431    0.00556     4.32975
      C    6   -0.02517      0.99942     2.01358    0.01217     3.02517
      C    7    0.09365      0.99948     1.89511    0.01177     2.90635
      C    8   -0.16827      0.99946     2.15899    0.00982     3.16827
      C    9    0.11450      0.99954     1.87401    0.01196     2.88550
      N   10   -0.19502      0.99960     2.68570    0.00973     3.69502
      C   11   -0.17316      0.99963     2.16548    0.00805     3.17316
      C   12   -0.30599      0.99963     2.30049    0.00587     3.30599
      N   13   -0.39413      0.99970     2.88463    0.00980     3.89413
      H   14    0.09977      0.00000     0.39851    0.00172     0.40023
      H   15    0.09899      0.00000     0.39979    0.00122     0.40101
      H   16    0.10590      0.00000     0.39279    0.00131     0.39410
      H   17    0.08897      0.00000     0.40963    0.00140     0.41103
      H   18    0.09415      0.00000     0.40464    0.00121     0.40585
      H   19    0.10609      0.00000     0.39291    0.00099     0.39391
      H   20    0.09993      0.00000     0.39892    0.00114     0.40007
      H   21    0.10331      0.00000     0.39567    0.00101     0.39669
      H   22    0.10321      0.00000     0.39576    0.00103     0.39679
      H   23    0.10779      0.00000     0.39057    0.00164     0.39221
      H   24    0.10949      0.00000     0.38815    0.00236     0.39051
      H   25    0.11161      0.00000     0.38694    0.00144     0.38839
      H   26    0.19884      0.00000     0.29885    0.00231     0.30116
      H   27    0.18565      0.00000     0.31180    0.00255     0.31435
 =======================================================================
   * Total *    0.00000     12.99504    35.85079    0.15417    49.00000

 Normal termination of Gaussian 16 at Wed Dec  9 22:48:57 2020.
