 Gaussian 16, Revision A.03,

 -----------------------------------------------------------
 # opt freq B3LYP/6-31G(d) empiricaldispersion=gd3bj scf=xqc
 -----------------------------------------------------------

 -------------------------------
 CID_151143830_JID_6524_neutraal
 -------------------------------
 Symbolic Z-matrix:
 Charge =  0 Multiplicity = 1

 SCF Done:  E(RB3LYP) =  -756.507398780     A.U. after   16 cycles
 SCF Done:  E(RB3LYP) =  -756.511463132     A.U. after   16 cycles
 SCF Done:  E(RB3LYP) =  -756.513481585     A.U. after   13 cycles
 SCF Done:  E(RB3LYP) =  -756.514883995     A.U. after   16 cycles
 SCF Done:  E(RB3LYP) =  -756.515759504     A.U. after   16 cycles
 SCF Done:  E(RB3LYP) =  -756.516143016     A.U. after   14 cycles
 SCF Done:  E(RB3LYP) =  -756.516322158     A.U. after   11 cycles
 SCF Done:  E(RB3LYP) =  -756.516380205     A.U. after   11 cycles
 SCF Done:  E(RB3LYP) =  -756.516410968     A.U. after   11 cycles
 SCF Done:  E(RB3LYP) =  -756.516431269     A.U. after   10 cycles
 SCF Done:  E(RB3LYP) =  -756.516472182     A.U. after   12 cycles
 SCF Done:  E(RB3LYP) =  -756.516488023     A.U. after   11 cycles
 SCF Done:  E(RB3LYP) =  -756.516491516     A.U. after   10 cycles
 SCF Done:  E(RB3LYP) =  -756.516491953     A.U. after    8 cycles
 SCF Done:  E(RB3LYP) =  -756.516492017     A.U. after    8 cycles
 Optimization completed.
    -- Stationary point found.
 Normal termination of Gaussian 16 at Thu Dec 10 23:23:40 2020.

 --------------------------------------------------------------------
 #N Geom=AllCheck Guess=TCheck SCRF=Check GenChk RB3LYP/6-31G(d) Freq
 --------------------------------------------------------------------

 Structure from the checkpoint file:  "JID_6524.chk"
 -------------------------------
 CID_151143830_JID_6524_neutraal
 -------------------------------
 Charge =  0 Multiplicity = 1

 SCF Done:  E(RB3LYP) =  -756.516492017     A.U. after    1 cycles

  Exact polarizability: 214.124   0.965 147.752  -4.898   3.867  66.513
 Approx polarizability: 368.515   3.063 235.717 -13.658   8.945 100.539

                      1                      2                      3
                      A                      A                      A
 Frequencies --     34.1036                42.9666                76.1437
 Red. masses --      3.3678                 4.9812                 3.6891
 Frc consts  --      0.0023                 0.0054                 0.0126
 IR Inten    --      0.2737                 0.3193                 3.5309

                      4                      5                      6
                      A                      A                      A
 Frequencies --     96.4354               115.3794               153.8759
 Red. masses --      4.4379                 4.4555                 4.8501
 Frc consts  --      0.0243                 0.0349                 0.0677
 IR Inten    --      0.4526                 0.3748                 2.7776

                      7                      8                      9
                      A                      A                      A
 Frequencies --    163.9548               203.1300               215.2855
 Red. masses --      2.7821                 4.3102                 3.1098
 Frc consts  --      0.0441                 0.1048                 0.0849
 IR Inten    --      1.2169                 0.8855                 0.6852

                     10                     11                     12
                      A                      A                      A
 Frequencies --    233.0173               257.8102               261.9838
 Red. masses --      2.1549                 1.1939                 3.1790
 Frc consts  --      0.0689                 0.0468                 0.1286
 IR Inten    --      0.1424                 0.3595                 1.2913

                     13                     14                     15
                      A                      A                      A
 Frequencies --    353.6602               360.4158               394.3306
 Red. masses --      3.2159                 4.4078                 5.9625
 Frc consts  --      0.2370                 0.3374                 0.5463
 IR Inten    --      2.1936                 0.3263                 0.6078

                     16                     17                     18
                      A                      A                      A
 Frequencies --    401.6193               443.1307               521.8288
 Red. masses --      6.9278                 5.3205                13.3098
 Frc consts  --      0.6584                 0.6156                 2.1354
 IR Inten    --      1.2810                 5.7709                 7.9949

                     19                     20                     21
                      A                      A                      A
 Frequencies --    563.7277               569.0128               583.5286
 Red. masses --      5.8894                 6.0419                 4.6781
 Frc consts  --      1.1027                 1.1526                 0.9385
 IR Inten    --      0.9578                 1.3924                 3.1747

                     22                     23                     24
                      A                      A                      A
 Frequencies --    610.9953               647.1947               662.7739
 Red. masses --      4.4842                 7.3764                 4.8404
 Frc consts  --      0.9863                 1.8204                 1.2527
 IR Inten    --      0.6956                 4.3651                27.3526

                     25                     26                     27
                      A                      A                      A
 Frequencies --    715.2041               739.1742               764.4347
 Red. masses --      5.5850                 9.2344                 5.3399
 Frc consts  --      1.6832                 2.9727                 1.8385
 IR Inten    --      4.8407                 1.0335                 8.1358

                     28                     29                     30
                      A                      A                      A
 Frequencies --    779.8922               810.1611               813.1124
 Red. masses --      4.9039                 1.4089                 1.4873
 Frc consts  --      1.7574                 0.5449                 0.5794
 IR Inten    --      3.0715                13.8032                25.1047

                     31                     32                     33
                      A                      A                      A
 Frequencies --    916.6460               941.0663               979.6538
 Red. masses --      1.2809                 9.3738                 2.2511
 Frc consts  --      0.6341                 4.8911                 1.2729
 IR Inten    --      0.2619                18.8345                13.1341

                     34                     35                     36
                      A                      A                      A
 Frequencies --   1006.6651              1064.5385              1090.6162
 Red. masses --      6.3827                 5.0567                 2.1478
 Frc consts  --      3.8109                 3.3763                 1.5052
 IR Inten    --      5.1366                47.0501                15.1915

                     37                     38                     39
                      A                      A                      A
 Frequencies --   1114.7653              1132.0645              1182.6947
 Red. masses --      1.6339                 3.1625                 2.7071
 Frc consts  --      1.1963                 2.3879                 2.2310
 IR Inten    --      0.8434               143.9904                24.9584

                     40                     41                     42
                      A                      A                      A
 Frequencies --   1185.9969              1222.4241              1239.2565
 Red. masses --      1.2705                 1.4418                 2.9467
 Frc consts  --      1.0529                 1.2694                 2.6663
 IR Inten    --      0.8893                 5.8838                59.3456

                     43                     44                     45
                      A                      A                      A
 Frequencies --   1265.8787              1276.2154              1312.7256
 Red. masses --      3.2353                 2.0714                 1.5719
 Frc consts  --      3.0545                 1.9878                 1.5960
 IR Inten    --     37.8495                22.1898               127.0912

                     46                     47                     48
                      A                      A                      A
 Frequencies --   1344.2698              1373.3053              1391.0415
 Red. masses --      2.8859                 1.6922                 8.3388
 Frc consts  --      3.0725                 1.8804                 9.5068
 IR Inten    --    195.9423                 3.3014                13.2446

                     49                     50                     51
                      A                      A                      A
 Frequencies --   1407.2783              1439.1761              1440.1589
 Red. masses --      8.0154                 2.0127                 1.9772
 Frc consts  --      9.3527                 2.4561                 2.4161
 IR Inten    --     53.5492                 1.8664                 4.3713

                     52                     53                     54
                      A                      A                      A
 Frequencies --   1498.6580              1502.7951              1521.0804
 Red. masses --      1.2228                 1.0808                 1.0476
 Frc consts  --      1.6181                 1.4381                 1.4281
 IR Inten    --     37.1397                 3.3894                 6.1273

                     55                     56                     57
                      A                      A                      A
 Frequencies --   1528.3880              1534.1156              1536.8142
 Red. masses --      1.0403                 1.0615                 1.0611
 Frc consts  --      1.4317                 1.4719                 1.4766
 IR Inten    --     10.6063                58.6962                 2.7107

                     58                     59                     60
                      A                      A                      A
 Frequencies --   1567.0914              1633.8175              1660.7271
 Red. masses --      3.1467                10.3052                 9.3554
 Frc consts  --      4.5530                16.2075                15.2022
 IR Inten    --    283.1966                12.8561                12.4691

                     61                     62                     63
                      A                      A                      A
 Frequencies --   1679.3512              2267.7179              3028.8149
 Red. masses --      8.3147                13.9907                 1.0347
 Frc consts  --     13.8158                42.3905                 5.5927
 IR Inten    --     57.6051               748.0297                68.3810

                     64                     65                     66
                      A                      A                      A
 Frequencies --   3052.2530              3063.7095              3088.9876
 Red. masses --      1.0682                 1.0349                 1.1068
 Frc consts  --      5.8632                 5.7233                 6.2224
 IR Inten    --     13.5566                26.1742                40.8442

                     67                     68                     69
                      A                      A                      A
 Frequencies --   3123.6157              3135.2945              3145.9148
 Red. masses --      1.0965                 1.1037                 1.1018
 Frc consts  --      6.3034                 6.3925                 6.4244
 IR Inten    --      1.1929                28.6680                23.1449

                     70                     71                     72
                      A                      A                      A
 Frequencies --   3166.5181              3217.0448              3237.1542
 Red. masses --      1.0999                 1.0889                 1.0917
 Frc consts  --      6.4978                 6.6401                 6.7402
 IR Inten    --     22.4876                 5.6267                 9.1184

 - Thermochemistry -
 -------------------
 Temperature   298.150 Kelvin.  Pressure   1.00000 Atm.
 Atom     1 has atomic number  6 and mass  12.00000

 Molecular mass:   218.08038 amu.
 Principal axes and moments of inertia in atomic units:
                           1         2         3
     Eigenvalues --  2558.254224116.389056532.03106
           X            0.99618  -0.08727   0.00243
           Y            0.08728   0.99618  -0.00354
           Z           -0.00211   0.00374   0.99999
 This molecule is an asymmetric top.
 Rotational symmetry number  1.
 Warning -- assumption of classical behavior for rotation
           may cause significant error
 Rotational temperatures (Kelvin)      0.03386     0.02104     0.01326
 Rotational constants (GHZ):           0.70546     0.43843     0.27629
 Zero-point vibrational energy     521001.1 (Joules/Mol)
                                  124.52225 (Kcal/Mol)
 Warning -- explicit consideration of  22 degrees of freedom as
           vibrations may cause significant error
 Vibrational temperatures:     49.07    61.82   109.55   138.75   166.01
          (Kelvin)            221.39   235.89   292.26   309.75   335.26
                              370.93   376.94   508.84   518.56   567.35
                              577.84   637.57   750.80   811.08   818.68
                              839.57   879.09   931.17   953.58  1029.02
                             1063.51  1099.85  1122.09  1165.64  1169.89
                             1318.85  1353.98  1409.50  1448.37  1531.63
                             1569.15  1603.90  1628.79  1701.63  1706.39
                             1758.80  1783.01  1821.32  1836.19  1888.72
                             1934.10  1975.88  2001.40  2024.76  2070.65
                             2072.07  2156.23  2162.19  2188.50  2199.01
                             2207.25  2211.13  2254.70  2350.70  2389.42
                             2416.21  3262.74  4357.79  4391.51  4407.99
                             4444.36  4494.19  4510.99  4526.27  4555.91
                             4628.61  4657.54

 Zero-point correction=                           0.198439 (Hartree/Particle)
 Thermal correction to Energy=                    0.212764
 Thermal correction to Enthalpy=                  0.213708
 Thermal correction to Gibbs Free Energy=         0.156085
 Sum of electronic and zero-point Energies=           -756.318053
 Sum of electronic and thermal Energies=              -756.303728
 Sum of electronic and thermal Enthalpies=            -756.302784
 Sum of electronic and thermal Free Energies=         -756.360407

                     E (Thermal)             CV                S
                      KCal/Mol        Cal/Mol-Kelvin    Cal/Mol-Kelvin
 Total                  133.511             52.819            121.279
 Electronic               0.000              0.000              0.000
 Translational            0.889              2.981             42.042
 Rotational               0.889              2.981             32.598
 Vibrational            131.734             46.857             46.640
 Vibration     1          0.594              1.983              5.575
 Vibration     2          0.595              1.980              5.117
 Vibration     3          0.599              1.965              3.988
 Vibration     4          0.603              1.952              3.525
 Vibration     5          0.608              1.937              3.176
 Vibration     6          0.619              1.898              2.624
 Vibration     7          0.623              1.887              2.504
 Vibration     8          0.639              1.835              2.105
 Vibration     9          0.645              1.818              1.998
 Vibration    10          0.654              1.790              1.856
 Vibration    11          0.667              1.750              1.677
 Vibration    12          0.669              1.742              1.649
 Vibration    13          0.730              1.568              1.150
 Vibration    14          0.735              1.554              1.120
 Vibration    15          0.761              1.482              0.984
 Vibration    16          0.767              1.467              0.957
 Vibration    17          0.803              1.376              0.817
 Vibration    18          0.877              1.202              0.606
 Vibration    19          0.920              1.110              0.516
 Vibration    20          0.925              1.098              0.506
 Vibration    21          0.940              1.067              0.479
 Vibration    22          0.970              1.009              0.431

                           ! Non-Optimized Parameters !
 Normal termination of Gaussian 16 at Thu Dec 10 23:30:51 2020.

 ----------------------------------------------------------------------
 # B3LYP/6-311++G(d,p) empiricaldispersion=gd3bj scf=xqc pop=npa geom=c
 heck
 ----------------------------------------------------------------------

 ---------------------------------------
 CID_151143830_JID_6524_Energie_neutraal
 ---------------------------------------
 Structure from the checkpoint file:  "JID_6524.chk"
 Charge =  0 Multiplicity = 1

 SCF Done:  E(RB3LYP) =  -756.716848241     A.U. after   15 cycles
 Normal termination of Gaussian 16 at Thu Dec 10 23:33:23 2020.

 ----------------------------------------------------------------------
 # B3LYP/6-311++G(d,p) empiricaldispersion=gd3bj scf=xqc pop=npa geom=c
 heck
 ----------------------------------------------------------------------

 -------------------------------------
 CID_151143830_JID_6524_Energie_kation
 -------------------------------------
 Structure from the checkpoint file:  "JID_6524.chk"
 Charge =  1 Multiplicity = 2

 SCF Done:  E(UB3LYP) =  -756.438304375     A.U. after   24 cycles
 Normal termination of Gaussian 16 at Thu Dec 10 23:38:53 2020.
 Gaussian 16:  ES64L-G16RevA.03 25-Dec-2016

 ----------------------------------------------------------------------
 # B3LYP/6-311++G(d,p) empiricaldispersion=gd3bj scf=xqc pop=npa geom=c
 heck
 ----------------------------------------------------------------------

 ------------------------------------
 CID_151143830_JID_6524_Energie_anion
 ------------------------------------
 Structure from the checkpoint file:  "JID_6524.chk"
 Charge = -1 Multiplicity = 2

                         Standard orientation:
 ---------------------------------------------------------------------
 Center     Atomic      Atomic             Coordinates (Angstroms)
 Number     Number       Type             X           Y           Z
 ---------------------------------------------------------------------
      1          6           0        3.184212   -2.509543    0.757555
      2          6           0        2.187345   -2.599100   -0.409854
      3          6           0        1.067936   -1.626635   -0.285241
      4          7           0       -0.204517   -1.850596   -0.219544
      5          6           0       -0.785747   -0.585522   -0.096843
      6          6           0       -2.131976   -0.190836    0.012844
      7          6           0       -2.378444    1.182663    0.123958
      8          6           0       -1.334909    2.122166    0.127977
      9          6           0        0.005991    1.748238    0.021273
     10          6           0        0.227859    0.373617   -0.091570
     11          8           0        1.423431   -0.287228   -0.213459
     12          7           0        0.991738    2.759150    0.035990
     13          7           0        2.186984    2.439351   -0.031166
     14          7           0        3.320200    2.315554   -0.084031
     15          8           0       -3.070427   -1.168136    0.001767
     16          6           0       -4.430069   -0.776026    0.110296
     17          1           0        3.627789   -1.511166    0.815806
     18          1           0        3.990798   -3.236735    0.622580
     19          1           0        2.688181   -2.720227    1.710526
     20          1           0        2.712868   -2.415472   -1.356200
     21          1           0        1.739167   -3.594198   -0.470613
     22          1           0       -3.394301    1.547578    0.211043
     23          1           0       -1.563726    3.178660    0.217590
     24          1           0       -4.621641   -0.254572    1.057070
     25          1           0       -4.727802   -0.129573   -0.725417
     26          1           0       -5.009391   -1.699734    0.080046
 ---------------------------------------------------------------------

 SCF Done:  E(UB3LYP) =  -756.711803391     A.U. after   33 cycles
 SCF Done:  E(UB3LYP) =  -756.711804245     a.u. after    2 cycles

 The electronic state is 2-A.
 Alpha  occ. eigenvalues --  -19.08619 -19.05361 -14.34177 -14.24968 -14.24609
 Alpha  occ. eigenvalues --  -14.20384 -10.15501 -10.12798 -10.12745 -10.12668
 Alpha  occ. eigenvalues --  -10.11042 -10.09502 -10.08855 -10.06945 -10.06905
 Alpha  occ. eigenvalues --  -10.06576  -1.02184  -1.01274  -0.97151  -0.86369
 Alpha  occ. eigenvalues --   -0.81996  -0.75154  -0.69693  -0.66449  -0.63613
 Alpha  occ. eigenvalues --   -0.61167  -0.55772  -0.53424  -0.52136  -0.48573
 Alpha  occ. eigenvalues --   -0.45800  -0.43070  -0.41391  -0.39711  -0.39008
 Alpha  occ. eigenvalues --   -0.38012  -0.37443  -0.37006  -0.35623  -0.34641
 Alpha  occ. eigenvalues --   -0.33301  -0.32513  -0.30929  -0.29776  -0.29023
 Alpha  occ. eigenvalues --   -0.27941  -0.27286  -0.27033  -0.25990  -0.24254
 Alpha  occ. eigenvalues --   -0.23654  -0.21388  -0.19901  -0.18400  -0.17015
 Alpha  occ. eigenvalues --   -0.13568  -0.09338   0.04337
 Alpha virt. eigenvalues --    0.05765   0.06571   0.07657   0.08265   0.09060
 Alpha virt. eigenvalues --    0.09701   0.09822   0.10135   0.10357   0.10679
 Alpha virt. eigenvalues --    0.12204   0.12483   0.12822   0.13474   0.14354

  Beta  occ. eigenvalues --  -19.08595 -19.05341 -14.33862 -14.24659 -14.24648
  Beta  occ. eigenvalues --  -14.20364 -10.15370 -10.12767 -10.12681 -10.12666
  Beta  occ. eigenvalues --  -10.10952 -10.09493 -10.08858 -10.06923 -10.06899
  Beta  occ. eigenvalues --  -10.06489  -1.02062  -1.00790  -0.97092  -0.86144
  Beta  occ. eigenvalues --   -0.81912  -0.75029  -0.69583  -0.66295  -0.63538
  Beta  occ. eigenvalues --   -0.61062  -0.55654  -0.53325  -0.51966  -0.48464
  Beta  occ. eigenvalues --   -0.45716  -0.42936  -0.41299  -0.39378  -0.38777
  Beta  occ. eigenvalues --   -0.37627  -0.37016  -0.36485  -0.35531  -0.34593
  Beta  occ. eigenvalues --   -0.32856  -0.32208  -0.30793  -0.29662  -0.28896
  Beta  occ. eigenvalues --   -0.27859  -0.27118  -0.26946  -0.25937  -0.23960
  Beta  occ. eigenvalues --   -0.23607  -0.21201  -0.19464  -0.18157  -0.16850
  Beta  occ. eigenvalues --   -0.13313  -0.08970
  Beta virt. eigenvalues --    0.06480   0.06886   0.08281   0.08504   0.09216
  Beta virt. eigenvalues --    0.09311   0.09993   0.10276   0.10429   0.10598
  Beta virt. eigenvalues --    0.10888   0.12298   0.12793   0.13135   0.13606

 Mulliken charges and spin densities:
               1          2
     1  C    0.345584  -0.784205
     2  C   -1.304098   1.177049
     3  C    0.916232  -0.975367
     4  N   -0.058668   0.019092
     5  C   -0.242841   0.000726
     6  C   -0.628426   0.197024
     7  C    0.789041  -0.191526
     8  C   -0.000047  -0.067049
     9  C   -0.510583  -0.184621
    10  C    0.449969  -0.252783
    11  O   -0.072126   0.019634
    12  N    0.074501   0.015501
    13  N    0.182375   0.044400
    14  N   -0.390114   0.229467
    15  O   -0.202700   0.036217
    16  C    0.457034  -0.698720
    17  H    0.113572   0.052949
    18  H   -0.513522   0.669611
    19  H    0.078099   0.051958
    20  H   -0.000948   0.168474
    21  H    0.116366   0.047913
    22  H   -0.108036   0.297428
    23  H   -0.153056   0.333146
    24  H   -0.059208   0.196516
    25  H   -0.160569   0.304549
    26  H   -0.117830   0.292621
 Sum of Mulliken charges =  -1.00000   1.00000

 Dipole moment (field-independent basis, Debye):
    X=             -1.4403    Y=             -0.4438    Z=             -0.1333  Tot=              1.5130
 Quadrupole moment (field-independent basis, Debye-Ang):
   XX=           -166.0955   YY=           -138.7883   ZZ=           -106.5806
   XY=              2.1400   XZ=             -0.8328   YZ=             -0.0393

 Summary of Natural Population Analysis:

                                       Natural Population
                Natural  -----------------------------------------------
    Atom  No    Charge         Core      Valence    Rydberg      Total
 -----------------------------------------------------------------------
      C    1   -0.28200      0.99966     2.27735    0.00499     3.28200
      C    2   -0.22124      0.99959     2.21266    0.00900     3.22124
      C    3    0.29972      0.99959     1.68085    0.01984     2.70028
      N    4   -0.24397      0.99966     2.73664    0.00767     3.74397
      C    5    0.02805      0.99942     1.95899    0.01354     2.97195
      C    6    0.16428      0.99935     1.82311    0.01325     2.83572
      C    7   -0.15447      0.99955     2.14639    0.00854     3.15447
      C    8   -0.08708      0.99956     2.07727    0.01026     3.08708
      C    9    0.04404      0.99937     1.94429    0.01230     2.95596
      C   10    0.12553      0.99931     1.86302    0.01213     2.87447
      O   11   -0.24376      0.99985     3.23735    0.00656     4.24376
      N   12   -0.19236      0.99965     2.67971    0.01300     3.69236
      N   13    0.14422      0.99971     2.34111    0.01497     3.35578
      N   14   -0.00497      0.99982     2.49247    0.01269     3.50497
      O   15   -0.26335      0.99985     3.25465    0.00884     4.26335
      C   16   -0.10113      0.99961     2.09243    0.00909     3.10113
      H   17    0.10559      0.00000     0.39323    0.00118     0.39441
      H   18    0.09966      0.00000     0.39844    0.00190     0.40034
      H   19    0.09740      0.00000     0.40174    0.00086     0.40260
      H   20    0.10860      0.00000     0.39010    0.00130     0.39140
      H   21    0.10970      0.00000     0.38916    0.00113     0.39030
      H   22    0.10418      0.00000     0.39455    0.00127     0.39582
      H   23    0.10322      0.00000     0.39512    0.00166     0.39678
      H   24    0.08313      0.00000     0.41556    0.00131     0.41687
      H   25    0.08510      0.00000     0.41326    0.00164     0.41490
      H   26    0.09190      0.00000     0.40719    0.00091     0.40810
 =======================================================================
   * Total *   -0.00000     15.99354    40.81665    0.18981    57.00000

 Normal termination of Gaussian 16 at Thu Dec 10 23:54:33 2020.
