 Gaussian 16, Revision A.03,

 -----------------------------------------------------------
 # opt freq B3LYP/6-31G(d) empiricaldispersion=gd3bj scf=xqc
 -----------------------------------------------------------

 ------------------------------
 CID_64497626_JID_2661_neutraal
 ------------------------------
 Symbolic Z-matrix:
 Charge =  0 Multiplicity = 1

 SCF Done:  E(RB3LYP) =  -487.827679930     A.U. after   12 cycles
 SCF Done:  E(RB3LYP) =  -487.827370388     A.U. after   11 cycles
 SCF Done:  E(RB3LYP) =  -487.829799521     A.U. after   11 cycles
 SCF Done:  E(RB3LYP) =  -487.830855605     A.U. after   10 cycles
 SCF Done:  E(RB3LYP) =  -487.830942347     A.U. after   10 cycles
 SCF Done:  E(RB3LYP) =  -487.831017333     A.U. after   10 cycles
 SCF Done:  E(RB3LYP) =  -487.831054330     A.U. after    9 cycles
 SCF Done:  E(RB3LYP) =  -487.831080946     A.U. after   10 cycles
 SCF Done:  E(RB3LYP) =  -487.831095389     A.U. after    9 cycles
 SCF Done:  E(RB3LYP) =  -487.831100284     A.U. after   10 cycles
 SCF Done:  E(RB3LYP) =  -487.831138792     A.U. after    9 cycles
 SCF Done:  E(RB3LYP) =  -487.831143666     A.U. after    9 cycles
 SCF Done:  E(RB3LYP) =  -487.831143620     A.U. after    9 cycles
 SCF Done:  E(RB3LYP) =  -487.831143180     A.U. after    7 cycles
 SCF Done:  E(RB3LYP) =  -487.831144507     A.U. after    8 cycles
 SCF Done:  E(RB3LYP) =  -487.831144530     A.U. after    6 cycles
 Optimization completed.
    -- Stationary point found.
 Normal termination of Gaussian 16 at Wed Dec  9 18:00:22 2020.

 --------------------------------------------------------------------
 #N Geom=AllCheck Guess=TCheck SCRF=Check GenChk RB3LYP/6-31G(d) Freq
 --------------------------------------------------------------------

 Structure from the checkpoint file:  "JID_2661.chk"
 ------------------------------
 CID_64497626_JID_2661_neutraal
 ------------------------------
 Charge =  0 Multiplicity = 1

 SCF Done:  E(RB3LYP) =  -487.831144530     A.U. after    1 cycles

  Exact polarizability: 132.986   0.724 117.257  -0.296  -1.848 109.114
 Approx polarizability: 168.567   0.869 164.843  -1.692  -4.480 164.232

                      1                      2                      3
                      A                      A                      A
 Frequencies --     48.2751                65.8516               113.4179
 Red. masses --      2.1899                 2.5351                 2.9119
 Frc consts  --      0.0030                 0.0065                 0.0221
 IR Inten    --      2.6371                 2.1048                 0.4226

                      4                      5                      6
                      A                      A                      A
 Frequencies --    138.0150               221.0094               228.6576
 Red. masses --      2.5440                 1.5290                 2.3782
 Frc consts  --      0.0286                 0.0440                 0.0733
 IR Inten    --      0.8668                 0.5574                 0.3082

                      7                      8                      9
                      A                      A                      A
 Frequencies --    250.6017               269.6063               287.9534
 Red. masses --      1.0617                 1.9785                 1.7302
 Frc consts  --      0.0393                 0.0847                 0.0845
 IR Inten    --      0.1905                 2.6079                 0.6647

                     10                     11                     12
                      A                      A                      A
 Frequencies --    297.4114               310.4579               323.2672
 Red. masses --      1.9430                 2.3891                 1.7217
 Frc consts  --      0.1013                 0.1357                 0.1060
 IR Inten    --      0.3302                 0.2924                 0.6419

                     13                     14                     15
                      A                      A                      A
 Frequencies --    344.6004               373.5822               384.9531
 Red. masses --      1.1949                 1.9741                 1.9194
 Frc consts  --      0.0836                 0.1623                 0.1676
 IR Inten    --      0.5329                 0.4482                 0.4507

                     16                     17                     18
                      A                      A                      A
 Frequencies --    407.7726               437.8701               458.2155
 Red. masses --      2.1238                 2.0046                 2.1450
 Frc consts  --      0.2081                 0.2264                 0.2653
 IR Inten    --      0.0390                 0.1428                 0.4670

                     19                     20                     21
                      A                      A                      A
 Frequencies --    475.0594               507.4278               596.7969
 Red. masses --      2.2727                 2.3871                 3.4060
 Frc consts  --      0.3022                 0.3621                 0.7147
 IR Inten    --      0.6061                 1.6903                 5.0808

                     22                     23                     24
                      A                      A                      A
 Frequencies --    646.9879               727.5617               732.6312
 Red. masses --      2.8038                 1.8201                 2.3313
 Frc consts  --      0.6915                 0.5677                 0.7372
 IR Inten    --      0.5493                60.2499                11.5089

                     25                     26                     27
                      A                      A                      A
 Frequencies --    824.7369               835.2084               841.4584
 Red. masses --      2.9213                 1.6831                 2.2422
 Frc consts  --      1.1707                 0.6918                 0.9354
 IR Inten    --      5.7540                 6.7886                 9.9610

                     28                     29                     30
                      A                      A                      A
 Frequencies --    898.9630               904.8473               926.0564
 Red. masses --      1.7578                 2.3392                 2.1200
 Frc consts  --      0.8370                 1.1284                 1.0712
 IR Inten    --     21.9230                 0.7066                 3.4068

                     31                     32                     33
                      A                      A                      A
 Frequencies --    947.1389               951.1669               970.7128
 Red. masses --      1.7596                 1.7095                 1.4067
 Frc consts  --      0.9300                 0.9112                 0.7809
 IR Inten    --      1.0069                 0.3263                 1.3087

                     34                     35                     36
                      A                      A                      A
 Frequencies --    975.7316              1014.7969              1049.7988
 Red. masses --      1.4180                 1.9097                 1.4758
 Frc consts  --      0.7954                 1.1587                 0.9583
 IR Inten    --      2.4136                 4.8400                 0.6095

                     37                     38                     39
                      A                      A                      A
 Frequencies --   1053.1390              1076.3114              1090.6428
 Red. masses --      1.7001                 1.5652                 1.7466
 Frc consts  --      1.1109                 1.0683                 1.2241
 IR Inten    --      0.1216                 0.3297                11.4318

                     40                     41                     42
                      A                      A                      A
 Frequencies --   1106.8496              1116.3979              1146.6104
 Red. masses --      1.9413                 2.0411                 1.6212
 Frc consts  --      1.4012                 1.4988                 1.2558
 IR Inten    --      3.7474                 0.0741                13.7734

                     43                     44                     45
                      A                      A                      A
 Frequencies --   1155.7378              1176.5894              1187.1116
 Red. masses --      1.2550                 1.5572                 1.4855
 Frc consts  --      0.9877                 1.2701                 1.2334
 IR Inten    --      7.9795                19.8691                 1.2187

                     46                     47                     48
                      A                      A                      A
 Frequencies --   1219.2781              1237.1532              1263.2889
 Red. masses --      1.6797                 2.2707                 2.3235
 Frc consts  --      1.4713                 2.0477                 2.1847
 IR Inten    --      9.1434                10.1358                 2.5912

                     49                     50                     51
                      A                      A                      A
 Frequencies --   1264.8231              1315.1384              1334.1312
 Red. masses --      2.1466                 1.3670                 1.5836
 Frc consts  --      2.0233                 1.3930                 1.6607
 IR Inten    --      7.4796                 6.6446                 2.0178

                     52                     53                     54
                      A                      A                      A
 Frequencies --   1347.9888              1353.6391              1373.7376
 Red. masses --      1.3654                 1.5616                 1.3214
 Frc consts  --      1.4618                 1.6859                 1.4692
 IR Inten    --      3.6556                 1.5123                 0.3703

                     55                     56                     57
                      A                      A                      A
 Frequencies --   1387.7513              1404.8358              1408.7540
 Red. masses --      1.3445                 1.3980                 1.3863
 Frc consts  --      1.5256                 1.6255                 1.6209
 IR Inten    --      1.7774                 2.7567                 4.3767

                     58                     59                     60
                      A                      A                      A
 Frequencies --   1412.7643              1428.8236              1430.5350
 Red. masses --      1.3808                 1.2284                 1.2547
 Frc consts  --      1.6238                 1.4775                 1.5129
 IR Inten    --      1.7809                 3.0170                 4.1288

                     61                     62                     63
                      A                      A                      A
 Frequencies --   1435.1697              1464.7518              1481.5773
 Red. masses --      1.2759                 1.2273                 1.1652
 Frc consts  --      1.5483                 1.5514                 1.5070
 IR Inten    --      1.9645                14.4052                 2.0846

                     64                     65                     66
                      A                      A                      A
 Frequencies --   1504.2581              1505.4983              1510.9870
 Red. masses --      1.1048                 1.1325                 1.0582
 Frc consts  --      1.4729                 1.5124                 1.4235
 IR Inten    --      7.6557                13.0922                 0.3530

                     67                     68                     69
                      A                      A                      A
 Frequencies --   1514.4153              1516.9355              1521.4120
 Red. masses --      1.0992                 1.0732                 1.0669
 Frc consts  --      1.4853                 1.4549                 1.4551
 IR Inten    --      1.8036                 0.4948                 1.0161

                     70                     71                     72
                      A                      A                      A
 Frequencies --   1525.9912              1530.9041              1536.3520
 Red. masses --      1.0621                 1.0713                 1.0900
 Frc consts  --      1.4572                 1.4794                 1.5159
 IR Inten    --      3.4434                14.8239                 5.8950

                     73                     74                     75
                      A                      A                      A
 Frequencies --   1542.6565              1545.6352              1551.8922
 Red. masses --      1.0559                 1.0529                 1.0558
 Frc consts  --      1.4805                 1.4820                 1.4982
 IR Inten    --      1.6177                 3.1083                14.2092

                     76                     77                     78
                      A                      A                      A
 Frequencies --   1556.7660              2967.9231              3008.7275
 Red. masses --      1.0574                 1.0588                 1.0803
 Frc consts  --      1.5098                 5.4949                 5.7620
 IR Inten    --      9.1439                83.7947                 9.9415

                     79                     80                     81
                      A                      A                      A
 Frequencies --   3021.6750              3025.5186              3032.0578
 Red. masses --      1.0750                 1.0697                 1.0720
 Frc consts  --      5.7829                 5.7693                 5.8065
 IR Inten    --      2.5028                13.4403                36.4246

                     82                     83                     84
                      A                      A                      A
 Frequencies --   3037.3669              3041.2011              3044.1802
 Red. masses --      1.0359                 1.0492                 1.0646
 Frc consts  --      5.6307                 5.7172                 5.8125
 IR Inten    --     26.0114                64.8760                86.1658

                     85                     86                     87
                      A                      A                      A
 Frequencies --   3050.5717              3059.0947              3071.0807
 Red. masses --      1.0653                 1.0419                 1.0756
 Frc consts  --      5.8410                 5.7445                 5.9771
 IR Inten    --     27.5558                 8.7513                65.3478

                     88                     89                     90
                      A                      A                      A
 Frequencies --   3074.0005              3075.9286              3091.3959
 Red. masses --      1.0929                 1.0948                 1.0997
 Frc consts  --      6.0846                 6.1029                 6.1922
 IR Inten    --     28.7813                51.1814                61.4422

                     91                     92                     93
                      A                      A                      A
 Frequencies --   3098.3259              3106.6868              3109.0466
 Red. masses --      1.1020                 1.1008                 1.1016
 Frc consts  --      6.2326                 6.2596                 6.2740
 IR Inten    --     19.6661                25.0396                52.7742

                     94                     95                     96
                      A                      A                      A
 Frequencies --   3116.1978              3116.3716              3124.4717
 Red. masses --      1.1006                 1.0988                 1.0964
 Frc consts  --      6.2967                 6.2875                 6.3061
 IR Inten    --     16.7395                71.5072                33.2088

                     97                     98                     99
                      A                      A                      A
 Frequencies --   3129.4183              3138.8840              3545.4530
 Red. masses --      1.0946                 1.1002                 1.0720
 Frc consts  --      6.3159                 6.3868                 7.9394
 IR Inten    --      8.2142                50.8057                 2.2242

 - Thermochemistry -
 -------------------
 Temperature   298.150 Kelvin.  Pressure   1.00000 Atm.
 Atom     1 has atomic number  6 and mass  12.00000

 Molecular mass:   169.18305 amu.
 Principal axes and moments of inertia in atomic units:
                           1         2         3
     Eigenvalues --  1382.466462598.468673071.98203
           X            0.99999   0.00122   0.00310
           Y           -0.00121   0.99999  -0.00453
           Z           -0.00310   0.00452   0.99998
 This molecule is an asymmetric top.
 Rotational symmetry number  1.
 Warning -- assumption of classical behavior for rotation
           may cause significant error
 Rotational temperatures (Kelvin)      0.06265     0.03333     0.02819
 Rotational constants (GHZ):           1.30545     0.69454     0.58748
 Zero-point vibrational energy     869753.4 (Joules/Mol)
                                  207.87605 (Kcal/Mol)
 Warning -- explicit consideration of  21 degrees of freedom as
           vibrations may cause significant error
 Vibrational temperatures:     69.46    94.75   163.18   198.57   317.98
          (Kelvin)            328.99   360.56   387.90   414.30   427.91
                              446.68   465.11   495.80   537.50   553.86
                              586.69   630.00   659.27   683.50   730.08
                              858.66   930.87  1046.80  1054.09  1186.61
                             1201.68  1210.67  1293.41  1301.87  1332.39
                             1362.72  1368.52  1396.64  1403.86  1460.07
                             1510.43  1515.23  1548.57  1569.19  1592.51
                             1606.25  1649.72  1662.85  1692.85  1707.99
                             1754.27  1779.99  1817.59  1819.80  1892.19
                             1919.52  1939.46  1947.58  1976.50  1996.66
                             2021.25  2026.88  2032.65  2055.76  2058.22
                             2064.89  2107.45  2131.66  2164.29  2166.08
                             2173.97  2178.91  2182.53  2188.97  2195.56
                             2202.63  2210.47  2219.54  2223.82  2232.83
                             2239.84  4270.18  4328.89  4347.52  4353.05
                             4362.45  4370.09  4375.61  4379.90  4389.09
                             4401.35  4418.60  4422.80  4425.58  4447.83
                             4457.80  4469.83  4473.22  4483.51  4483.76
                             4495.42  4502.53  4516.15  5101.12

 Zero-point correction=                           0.331272 (Hartree/Particle)
 Thermal correction to Energy=                    0.344617
 Thermal correction to Enthalpy=                  0.345561
 Thermal correction to Gibbs Free Energy=         0.292748
 Sum of electronic and zero-point Energies=           -487.499873
 Sum of electronic and thermal Energies=              -487.486528
 Sum of electronic and thermal Enthalpies=            -487.485583
 Sum of electronic and thermal Free Energies=         -487.538397

                     E (Thermal)             CV                S
                      KCal/Mol        Cal/Mol-Kelvin    Cal/Mol-Kelvin
 Total                  216.250             53.465            111.155
 Electronic               0.000              0.000              0.000
 Translational            0.889              2.981             41.285
 Rotational               0.889              2.981             30.779
 Vibrational            214.473             47.504             39.091
 Vibration     1          0.595              1.978              4.887
 Vibration     2          0.597              1.971              4.274
 Vibration     3          0.607              1.938              3.210
 Vibration     4          0.614              1.915              2.831
 Vibration     5          0.648              1.809              1.951
 Vibration     6          0.651              1.797              1.889
 Vibration     7          0.663              1.762              1.726
 Vibration     8          0.674              1.729              1.599
 Vibration     9          0.685              1.696              1.486
 Vibration    10          0.691              1.679              1.431
 Vibration    11          0.699              1.654              1.360
 Vibration    12          0.708              1.629              1.294
 Vibration    13          0.723              1.586              1.191
 Vibration    14          0.745              1.526              1.065
 Vibration    15          0.754              1.502              1.020
 Vibration    16          0.772              1.453              0.935
 Vibration    17          0.798              1.388              0.833
 Vibration    18          0.816              1.343              0.771
 Vibration    19          0.832              1.305              0.724
 Vibration    20          0.863              1.234              0.640
 Vibration    21          0.955              1.039              0.455

 Optimization completed.
    -- Stationary point found.
 Normal termination of Gaussian 16 at Wed Dec  9 18:11:33 2020.

 ----------------------------------------------------------------------
 # B3LYP/6-311++G(d,p) empiricaldispersion=gd3bj scf=xqc pop=npa geom=c
 heck
 ----------------------------------------------------------------------

 --------------------------------------
 CID_64497626_JID_2661_Energie_neutraal
 --------------------------------------
 Structure from the checkpoint file:  "JID_2661.chk"
 Charge =  0 Multiplicity = 1

 SCF Done:  E(RB3LYP) =  -487.967732564     A.U. after   13 cycles
 Normal termination of Gaussian 16 at Wed Dec  9 18:15:37 2020.

 ----------------------------------------------------------------------
 # B3LYP/6-311++G(d,p) empiricaldispersion=gd3bj scf=xqc pop=npa geom=c
 heck
 ----------------------------------------------------------------------

 ------------------------------------
 CID_64497626_JID_2661_Energie_kation
 ------------------------------------
 Structure from the checkpoint file:  "JID_2661.chk"
 Charge =  1 Multiplicity = 2

 SCF Done:  E(UB3LYP) =  -487.668275237     A.U. after   18 cycles
 Normal termination of Gaussian 16 at Wed Dec  9 18:23:13 2020.
 Gaussian 16:  ES64L-G16RevA.03 25-Dec-2016

 ----------------------------------------------------------------------
 # B3LYP/6-311++G(d,p) empiricaldispersion=gd3bj scf=xqc pop=npa geom=c
 heck
 ----------------------------------------------------------------------

 -----------------------------------
 CID_64497626_JID_2661_Energie_anion
 -----------------------------------
 Structure from the checkpoint file:  "JID_2661.chk"
 Charge = -1 Multiplicity = 2

                         Standard orientation:
 ---------------------------------------------------------------------
 Center     Atomic      Atomic             Coordinates (Angstroms)
 Number     Number       Type             X           Y           Z
 ---------------------------------------------------------------------
      1          6           0       -3.230423    0.079687    0.028212
      2          6           0       -1.770879   -0.423989    0.086370
      3          6           0       -1.417570   -0.573993    1.578934
      4          6           0       -1.715491   -1.816679   -0.564384
      5          6           0       -0.900570    0.614358   -0.724427
      6          6           0       -0.518923    1.891051    0.061565
      7          6           0        0.791264    1.776647    0.857731
      8          6           0        1.961661    1.357857   -0.040092
      9          6           0        1.679106    0.021407   -0.760085
     10          6           0        0.340476    0.110466   -1.509696
     11          7           0        1.740418   -1.172294    0.093053
     12          6           0        3.083852   -1.529806    0.533198
     13          1           0       -3.894066   -0.575966    0.603982
     14          1           0       -3.596155    0.103765   -1.004987
     15          1           0       -3.324348    1.091423    0.440399
     16          1           0       -2.138889   -1.248124    2.055588
     17          1           0       -0.430152   -1.012595    1.745571
     18          1           0       -1.461492    0.380064    2.112643
     19          1           0       -1.980215   -1.771169   -1.627777
     20          1           0       -0.716613   -2.255942   -0.479673
     21          1           0       -2.429700   -2.490335   -0.075377
     22          1           0       -1.587784    0.941055   -1.516283
     23          1           0       -0.395916    2.708605   -0.662984
     24          1           0       -1.338807    2.197056    0.722196
     25          1           0        0.681712    1.055524    1.675831
     26          1           0        1.013476    2.739667    1.334081
     27          1           0        2.888280    1.291267    0.542763
     28          1           0        2.127635    2.135475   -0.799228
     29          1           0        2.458105   -0.129794   -1.519870
     30          1           0        0.140390   -0.848633   -1.992335
     31          1           0        0.493552    0.837552   -2.319796
     32          1           0        1.150737   -1.035823    0.907981
     33          1           0        3.622591   -0.744269    1.092482
     34          1           0        3.027788   -2.417815    1.171565
     35          1           0        3.691934   -1.786965   -0.342096
 ---------------------------------------------------------------------

 SCF Done:  E(UB3LYP) =  -487.951782727     A.U. after   27 cycles

 The electronic state is 2-A.
 Alpha  occ. eigenvalues --  -14.18849 -10.08671 -10.08126 -10.08081 -10.06531
 Alpha  occ. eigenvalues --  -10.05594 -10.05517 -10.05515 -10.05387 -10.05322
 Alpha  occ. eigenvalues --  -10.05259 -10.04952  -0.80089  -0.73054  -0.69207
 Alpha  occ. eigenvalues --   -0.63382  -0.62336  -0.58389  -0.58067  -0.55597
 Alpha  occ. eigenvalues --   -0.51056  -0.49930  -0.45558  -0.40871  -0.39204
 Alpha  occ. eigenvalues --   -0.36975  -0.35105  -0.34736  -0.34577  -0.32927
 Alpha  occ. eigenvalues --   -0.32269  -0.30981  -0.29859  -0.29260  -0.28110
 Alpha  occ. eigenvalues --   -0.27825  -0.27016  -0.26332  -0.25905  -0.25264
 Alpha  occ. eigenvalues --   -0.24280  -0.23457  -0.22399  -0.22238  -0.19474
 Alpha  occ. eigenvalues --   -0.19290  -0.18679  -0.11860   0.04578
 Alpha virt. eigenvalues --    0.06852   0.07092   0.07708   0.09037   0.09107
 Alpha virt. eigenvalues --    0.09389   0.09782   0.09999   0.11379   0.11689
 Alpha virt. eigenvalues --    0.11912   0.12357   0.12567   0.12964   0.13534

  Beta  occ. eigenvalues --  -14.18837 -10.08664 -10.08094 -10.08079 -10.06527
  Beta  occ. eigenvalues --  -10.05574 -10.05496 -10.05492 -10.05361 -10.05302
  Beta  occ. eigenvalues --  -10.05246 -10.04937  -0.80068  -0.73033  -0.69178
  Beta  occ. eigenvalues --   -0.63347  -0.62299  -0.58340  -0.58029  -0.55526
  Beta  occ. eigenvalues --   -0.51014  -0.49882  -0.45511  -0.40829  -0.39144
  Beta  occ. eigenvalues --   -0.36944  -0.35073  -0.34702  -0.34542  -0.32892
  Beta  occ. eigenvalues --   -0.32234  -0.30954  -0.29828  -0.29225  -0.28081
  Beta  occ. eigenvalues --   -0.27795  -0.26983  -0.26305  -0.25879  -0.25231
  Beta  occ. eigenvalues --   -0.24252  -0.23430  -0.22365  -0.22208  -0.19443
  Beta  occ. eigenvalues --   -0.19258  -0.18649  -0.11837
  Beta virt. eigenvalues --    0.06659   0.07525   0.07820   0.08428   0.09412
  Beta virt. eigenvalues --    0.09583   0.09871   0.10234   0.10420   0.11704
  Beta virt. eigenvalues --    0.12144   0.12322   0.12667   0.12848   0.13381

 Mulliken charges and spin densities:
               1          2
     1  C    0.219175  -0.806378
     2  C   -1.749813   2.120730
     3  C    0.376226  -0.987895
     4  C    0.575809  -1.203450
     5  C    1.493239  -0.961155
     6  C    0.490258  -1.216784
     7  C   -0.411792   0.334642
     8  C    0.818734  -1.548011
     9  C   -1.056267   1.094047
    10  C   -0.190030  -0.463033
    11  N   -0.086405   0.014004
    12  C    0.574813  -0.878845
    13  H   -0.097221   0.226947
    14  H   -0.175825   0.310488
    15  H   -0.132090   0.273883
    16  H    0.105585   0.041457
    17  H   -0.667244   0.812765
    18  H   -0.094928   0.264373
    19  H   -0.121143   0.270796
    20  H    0.051641   0.113587
    21  H    0.080170   0.046294
    22  H    0.169731   0.047224
    23  H   -0.160400   0.315257
    24  H    0.015103   0.126053
    25  H   -0.010848   0.109630
    26  H   -0.544460   0.737025
    27  H   -0.176115   0.339818
    28  H   -0.047488   0.177784
    29  H   -0.157632   0.349124
    30  H    0.195047  -0.028120
    31  H   -0.376455   0.542212
    32  H    0.710796  -0.583808
    33  H   -0.108291   0.239370
    34  H   -0.293594   0.423317
    35  H   -0.218285   0.346653
 Sum of Mulliken charges =  -1.00000   1.00000

 Dipole moment (field-independent basis, Debye):
    X=             -1.4051    Y=             -1.4472    Z=             -0.5929  Tot=              2.1024
 Quadrupole moment (field-independent basis, Debye-Ang):
   XX=           -139.3785   YY=           -127.0889   ZZ=           -119.4861
   XY=              1.2700   XZ=             -2.3301   YZ=              0.0361

 Summary of Natural Population Analysis:

                                       Natural Population
                Natural  -----------------------------------------------
    Atom  No    Charge         Core      Valence    Rydberg      Total
 -----------------------------------------------------------------------
      C    1   -0.28249      0.99963     2.27543    0.00743     3.28249
      C    2   -0.04495      0.99957     2.03322    0.01216     3.04495
      C    3   -0.28335      0.99961     2.27623    0.00751     3.28335
      C    4   -0.28898      0.99962     2.28310    0.00626     3.28898
      C    5   -0.10543      0.99955     2.09246    0.01343     3.10543
      C    6   -0.19077      0.99961     2.18164    0.00952     3.19077
      C    7   -0.19425      0.99962     2.18572    0.00890     3.19425
      C    8   -0.19732      0.99960     2.18895    0.00876     3.19732
      C    9   -0.00688      0.99957     1.99393    0.01337     3.00688
      C   10   -0.19067      0.99959     2.18021    0.01087     3.19067
      N   11   -0.34656      0.99974     2.83501    0.01181     3.84656
      C   12   -0.17657      0.99965     2.16879    0.00813     3.17657
      H   13    0.09652      0.00000     0.40262    0.00086     0.40348
      H   14    0.09847      0.00000     0.40045    0.00108     0.40153
      H   15    0.10004      0.00000     0.39891    0.00105     0.39996
      H   16    0.09923      0.00000     0.39987    0.00090     0.40077
      H   17    0.09159      0.00000     0.40680    0.00161     0.40841
      H   18    0.10193      0.00000     0.39700    0.00107     0.39807
      H   19    0.09807      0.00000     0.40093    0.00100     0.40193
      H   20    0.10916      0.00000     0.38925    0.00158     0.39084
      H   21    0.09618      0.00000     0.40289    0.00094     0.40382
      H   22    0.09952      0.00000     0.39868    0.00180     0.40048
      H   23    0.09743      0.00000     0.40128    0.00129     0.40257
      H   24    0.09962      0.00000     0.39907    0.00131     0.40038
      H   25    0.09258      0.00000     0.40527    0.00215     0.40742
      H   26    0.10011      0.00000     0.39857    0.00132     0.39989
      H   27    0.09979      0.00000     0.39896    0.00125     0.40021
      H   28    0.09643      0.00000     0.40215    0.00142     0.40357
      H   29    0.09274      0.00000     0.40565    0.00161     0.40726
      H   30    0.10535      0.00000     0.39311    0.00153     0.39465
      H   31    0.09897      0.00000     0.39988    0.00115     0.40103
      H   32    0.17120      0.00000     0.32450    0.00430     0.32880
      H   33    0.07944      0.00000     0.41904    0.00152     0.42056
      H   34    0.09358      0.00000     0.40555    0.00087     0.40642
      H   35    0.09027      0.00000     0.40846    0.00127     0.40973
 =======================================================================
   * Total *    0.00000     11.99536    35.85359    0.15105    48.00000

 Normal termination of Gaussian 16 at Wed Dec  9 18:34:13 2020.
