 Gaussian 16, Revision A.03,

 -----------------------------------------------------------
 # opt freq B3LYP/6-31G(d) empiricaldispersion=gd3bj scf=xqc
 -----------------------------------------------------------

 ------------------------------
 CID_62573291_JID_5005_neutraal
 ------------------------------
 Symbolic Z-matrix:
 Charge =  0 Multiplicity = 1

 SCF Done:  E(RB3LYP) =  -621.809304995     A.U. after   13 cycles
 SCF Done:  E(RB3LYP) =  -621.812500572     A.U. after   11 cycles
 SCF Done:  E(RB3LYP) =  -621.809824860     A.U. after   11 cycles
 SCF Done:  E(RB3LYP) =  -621.812829702     A.U. after   10 cycles
 SCF Done:  E(RB3LYP) =  -621.813443100     A.U. after   10 cycles
 SCF Done:  E(RB3LYP) =  -621.813782637     A.U. after   10 cycles
 SCF Done:  E(RB3LYP) =  -621.813873309     A.U. after   10 cycles
 SCF Done:  E(RB3LYP) =  -621.813921070     A.U. after   10 cycles
 SCF Done:  E(RB3LYP) =  -621.813948214     A.U. after    9 cycles
 SCF Done:  E(RB3LYP) =  -621.813966352     A.U. after    9 cycles
 SCF Done:  E(RB3LYP) =  -621.813974475     A.U. after    8 cycles
 SCF Done:  E(RB3LYP) =  -621.813978844     A.U. after    8 cycles
 SCF Done:  E(RB3LYP) =  -621.813979797     A.U. after    7 cycles
 SCF Done:  E(RB3LYP) =  -621.813980229     A.U. after    7 cycles
 Optimization completed.
    -- Stationary point found.
 Normal termination of Gaussian 16 at Thu Dec 10 14:49:07 2020.

 --------------------------------------------------------------------
 #N Geom=AllCheck Guess=TCheck SCRF=Check GenChk RB3LYP/6-31G(d) Freq
 --------------------------------------------------------------------

 Structure from the checkpoint file:  "JID_5005.chk"
 ------------------------------
 CID_62573291_JID_5005_neutraal
 ------------------------------
 Charge =  0 Multiplicity = 1

 SCF Done:  E(RB3LYP) =  -621.813980229     A.U. after    1 cycles

  Exact polarizability: 162.776   3.914 148.296   1.843  -1.105 137.090
 Approx polarizability: 204.027  -0.132 204.404   1.808  -2.792 202.670

                      1                      2                      3
                      A                      A                      A
 Frequencies --     20.9974                36.8322                62.7328
 Red. masses --      3.2034                 3.3715                 3.4111
 Frc consts  --      0.0008                 0.0027                 0.0079
 IR Inten    --      0.0956                 0.1660                 0.3495

                      4                      5                      6
                      A                      A                      A
 Frequencies --     85.2383                92.8897               111.4470
 Red. masses --      3.2246                 2.5369                 2.7359
 Frc consts  --      0.0138                 0.0129                 0.0200
 IR Inten    --      0.1022                 0.1460                 0.4454

                      7                      8                      9
                      A                      A                      A
 Frequencies --    133.9503               164.2366               176.3778
 Red. masses --      1.8503                 2.6522                 2.2449
 Frc consts  --      0.0196                 0.0421                 0.0411
 IR Inten    --      0.0868                 1.5247                 2.0193

                     10                     11                     12
                      A                      A                      A
 Frequencies --    204.0559               211.5440               223.9058
 Red. masses --      1.3292                 2.6819                 1.3146
 Frc consts  --      0.0326                 0.0707                 0.0388
 IR Inten    --      4.8838                 1.2565                 1.0051

                     13                     14                     15
                      A                      A                      A
 Frequencies --    239.4527               269.4867               306.3712
 Red. masses --      2.1296                 2.0010                 2.2418
 Frc consts  --      0.0719                 0.0856                 0.1240
 IR Inten    --      1.0927                 0.0767                 0.6069

                     16                     17                     18
                      A                      A                      A
 Frequencies --    318.8823               343.7678               387.0302
 Red. masses --      2.0730                 2.4373                 2.0777
 Frc consts  --      0.1242                 0.1697                 0.1834
 IR Inten    --      0.3913                 0.5767                 1.4844

                     19                     20                     21
                      A                      A                      A
 Frequencies --    392.4357               415.0097               436.1685
 Red. masses --      2.2723                 2.3068                 1.8840
 Frc consts  --      0.2062                 0.2341                 0.2112
 IR Inten    --      4.6709                 2.2485                 0.1083

                     22                     23                     24
                      A                      A                      A
 Frequencies --    489.0424               499.4051               515.7413
 Red. masses --      1.8418                 2.8506                 2.0926
 Frc consts  --      0.2595                 0.4189                 0.3279
 IR Inten    --      1.8119                 2.4164                 0.3731

                     25                     26                     27
                      A                      A                      A
 Frequencies --    555.3774               650.4131               718.3347
 Red. masses --      2.7654                 2.1569                 2.0058
 Frc consts  --      0.5025                 0.5376                 0.6098
 IR Inten    --     10.0782                 9.9026                 3.1048

                     28                     29                     30
                      A                      A                      A
 Frequencies --    781.8621               792.4216               804.4129
 Red. masses --      1.4497                 1.2153                 1.4451
 Frc consts  --      0.5221                 0.4496                 0.5509
 IR Inten    --     30.7348                 1.6913                 6.6036

                     31                     32                     33
                      A                      A                      A
 Frequencies --    810.3667               815.3937               848.6210
 Red. masses --      2.3761                 1.7435                 1.8392
 Frc consts  --      0.9193                 0.6830                 0.7804
 IR Inten    --     10.3478                 3.5790                 5.6613

                     34                     35                     36
                      A                      A                      A
 Frequencies --    878.3365               883.5440               886.5660
 Red. masses --      2.5016                 1.8330                 2.1162
 Frc consts  --      1.1371                 0.8431                 0.9800
 IR Inten    --      0.5040                 3.2852                 3.7077

                     37                     38                     39
                      A                      A                      A
 Frequencies --    892.9651               928.4474               947.1374
 Red. masses --      1.6870                 1.8014                 1.6797
 Frc consts  --      0.7926                 0.9149                 0.8878
 IR Inten    --      0.8103                 6.1497                 4.5834

                     40                     41                     42
                      A                      A                      A
 Frequencies --    956.2865               981.3498              1017.3997
 Red. masses --      1.3852                 2.0598                 1.9732
 Frc consts  --      0.7463                 1.1687                 1.2034
 IR Inten    --      2.3128                 8.2893                12.1025

                     43                     44                     45
                      A                      A                      A
 Frequencies --   1042.8940              1051.5371              1052.5218
 Red. masses --      2.5734                 2.2395                 1.6974
 Frc consts  --      1.6491                 1.4590                 1.1079
 IR Inten    --     14.0138                13.9088                 0.7221

                     46                     47                     48
                      A                      A                      A
 Frequencies --   1070.3304              1086.2507              1098.2561
 Red. masses --      1.9022                 2.1039                 1.7756
 Frc consts  --      1.2839                 1.4627                 1.2619
 IR Inten    --      3.0225                 7.8483                 1.1361

                     49                     50                     51
                      A                      A                      A
 Frequencies --   1106.9959              1116.9726              1140.3394
 Red. masses --      1.5725                 2.0656                 1.7649
 Frc consts  --      1.1354                 1.5184                 1.3522
 IR Inten    --     13.8457                27.7336                 9.1482

                     52                     53                     54
                      A                      A                      A
 Frequencies --   1142.6137              1146.6678              1154.1923
 Red. masses --      1.7890                 1.1671                 1.8884
 Frc consts  --      1.3761                 0.9042                 1.4822
 IR Inten    --     23.4194                 5.6126                 1.7010

                     55                     56                     57
                      A                      A                      A
 Frequencies --   1187.4914              1197.5112              1207.4644
 Red. masses --      2.3608                 1.7390                 1.9155
 Frc consts  --      1.9614                 1.4693                 1.6454
 IR Inten    --      9.7300                 5.3889                22.3653

                     58                     59                     60
                      A                      A                      A
 Frequencies --   1257.6100              1273.1131              1284.4711
 Red. masses --      1.9647                 1.2447                 1.2905
 Frc consts  --      1.8308                 1.1887                 1.2545
 IR Inten    --     19.0139                27.5843                 0.3823

                     61                     62                     63
                      A                      A                      A
 Frequencies --   1290.7812              1305.5105              1313.8302
 Red. masses --      1.2317                 1.2359                 1.2422
 Frc consts  --      1.2091                 1.2411                 1.2633
 IR Inten    --      3.9720                 2.4643                 1.1505

                     64                     65                     66
                      A                      A                      A
 Frequencies --   1326.7189              1352.4486              1366.2648
 Red. masses --      1.1493                 1.3586                 1.3484
 Frc consts  --      1.1919                 1.4641                 1.4830
 IR Inten    --      3.4344                 7.9545                 8.5631

                     67                     68                     69
                      A                      A                      A
 Frequencies --   1371.6001              1379.3586              1385.7346
 Red. masses --      1.3329                 1.4888                 1.4016
 Frc consts  --      1.4774                 1.6689                 1.5857
 IR Inten    --      0.4947                26.2627                 9.4567

                     70                     71                     72
                      A                      A                      A
 Frequencies --   1399.7497              1402.7317              1403.3694
 Red. masses --      1.4414                 1.3129                 1.4348
 Frc consts  --      1.6639                 1.5221                 1.6649
 IR Inten    --     12.8574                14.9678                 1.4306

                     73                     74                     75
                      A                      A                      A
 Frequencies --   1407.7295              1412.1346              1421.2375
 Red. masses --      1.4029                 1.4307                 1.4288
 Frc consts  --      1.6380                 1.6809                 1.7004
 IR Inten    --      4.4288                 6.8696                18.7361

                     76                     77                     78
                      A                      A                      A
 Frequencies --   1423.1483              1431.8393              1434.4223
 Red. masses --      1.3056                 1.3062                 1.3382
 Frc consts  --      1.5580                 1.5778                 1.6223
 IR Inten    --      8.0775                11.7041                11.9988

                     79                     80                     81
                      A                      A                      A
 Frequencies --   1445.1598              1456.8662              1500.6490
 Red. masses --      1.3231                 1.3129                 1.0735
 Frc consts  --      1.6281                 1.6418                 1.4243
 IR Inten    --      5.2842                11.6370                 1.1629

                     82                     83                     84
                      A                      A                      A
 Frequencies --   1503.1018              1505.4728              1512.8130
 Red. masses --      1.1022                 1.0934                 1.1151
 Frc consts  --      1.4671                 1.4601                 1.5036
 IR Inten    --      0.3805                 7.2218                 6.2709

                     85                     86                     87
                      A                      A                      A
 Frequencies --   1515.9065              1520.3240              1523.8380
 Red. masses --      1.0947                 1.0849                 1.0715
 Frc consts  --      1.4822                 1.4774                 1.4660
 IR Inten    --      4.6240                 5.7768                 0.7692

                     88                     89                     90
                      A                      A                      A
 Frequencies --   1525.4183              1527.6130              1530.1313
 Red. masses --      1.0506                 1.1362                 1.0653
 Frc consts  --      1.4403                 1.5622                 1.4695
 IR Inten    --      1.6556                21.3852                 8.0567

                     91                     92                     93
                      A                      A                      A
 Frequencies --   1533.1133              1538.6347              1544.2801
 Red. masses --      1.0670                 1.1199                 1.0650
 Frc consts  --      1.4776                 1.5621                 1.4964
 IR Inten    --      1.0963                 3.0248                 8.8544

                     94                     95                     96
                      A                      A                      A
 Frequencies --   1552.2202              1558.0500              2908.4734
 Red. masses --      1.0907                 1.0889                 1.0751
 Frc consts  --      1.5484                 1.5574                 5.3585
 IR Inten    --     15.9922                 6.9597                82.3741

                     97                     98                     99
                      A                      A                      A
 Frequencies --   2912.3753              2927.9348              3005.3750
 Red. masses --      1.0820                 1.0735                 1.0669
 Frc consts  --      5.4073                 5.4221                 5.6778
 IR Inten    --     54.7418               109.8973                55.2028

                    100                    101                    102
                      A                      A                      A
 Frequencies --   3015.8970              3016.7344              3024.8061
 Red. masses --      1.0671                 1.0742                 1.0810
 Frc consts  --      5.7187                 5.7596                 5.8271
 IR Inten    --     37.5439                58.0680                26.5233

                    103                    104                    105
                      A                      A                      A
 Frequencies --   3025.1686              3036.4302              3044.9064
 Red. masses --      1.0626                 1.0659                 1.0414
 Frc consts  --      5.7297                 5.7900                 5.6885
 IR Inten    --     39.2640                37.0225                35.3963

                    106                    107                    108
                      A                      A                      A
 Frequencies --   3046.9133              3048.3087              3050.4481
 Red. masses --      1.0649                 1.0638                 1.0641
 Frc consts  --      5.8247                 5.8241                 5.8341
 IR Inten    --     26.7695                40.9315                54.2218

                    109                    110                    111
                      A                      A                      A
 Frequencies --   3051.4765              3058.7073              3062.3611
 Red. masses --      1.0370                 1.0888                 1.0993
 Frc consts  --      5.6893                 6.0017                 6.0741
 IR Inten    --     22.5360                 7.4933                56.0755

                    112                    113                    114
                      A                      A                      A
 Frequencies --   3064.7149              3069.6759              3079.3037
 Red. masses --      1.0961                 1.0926                 1.0996
 Frc consts  --      6.0654                 6.0661                 6.1433
 IR Inten    --     24.3596                60.6505                23.7375

                    115                    116                    117
                      A                      A                      A
 Frequencies --   3079.9960              3090.4068              3096.8401
 Red. masses --      1.0951                 1.1026                 1.1012
 Frc consts  --      6.1207                 6.2046                 6.2224
 IR Inten    --     57.9182                 5.3542               119.6974

                    118                    119                    120
                      A                      A                      A
 Frequencies --   3105.4735              3112.3472              3125.8068
 Red. masses --      1.1010                 1.1010                 1.0909
 Frc consts  --      6.2562                 6.2835                 6.2802
 IR Inten    --     43.1472                46.6148                38.5625

                    121                    122                    123
                      A                      A                      A
 Frequencies --   3132.8179              3140.7117              3518.0777
 Red. masses --      1.1015                 1.0992                 1.0730
 Frc consts  --      6.3692                 6.3880                 7.8242
 IR Inten    --     42.0618                 9.9736                 0.3903

 - Thermochemistry -
 -------------------
 Temperature   298.150 Kelvin.  Pressure   1.00000 Atm.
 Atom     1 has atomic number  6 and mass  12.00000

 Molecular mass:   212.22525 amu.
 Principal axes and moments of inertia in atomic units:
                           1         2         3
     Eigenvalues --  2194.862465007.482895739.32626
           X            0.99997   0.00561   0.00472
           Y           -0.00564   0.99996   0.00717
           Z           -0.00468  -0.00719   0.99996
 This molecule is an asymmetric top.
 Rotational symmetry number  1.
 Warning -- assumption of classical behavior for rotation
           may cause significant error
 Rotational temperatures (Kelvin)      0.03946     0.01730     0.01509
 Rotational constants (GHZ):           0.82226     0.36041     0.31445
 Zero-point vibrational energy    1066938.3 (Joules/Mol)
                                  255.00438 (Kcal/Mol)
 Warning -- explicit consideration of  25 degrees of freedom as
           vibrations may cause significant error
 Vibrational temperatures:     30.21    52.99    90.26   122.64   133.65
          (Kelvin)            160.35   192.72   236.30   253.77   293.59
                              304.36   322.15   344.52   387.73   440.80
                              458.80   494.61   556.85   564.63   597.11
                              627.55   703.62   718.53   742.04   799.06
                              935.80  1033.52  1124.93  1140.12  1157.37
                             1165.94  1173.17  1220.98  1263.73  1271.22
                             1275.57  1284.78  1335.83  1362.72  1375.88
                             1411.94  1463.81  1500.49  1512.93  1514.34
                             1539.97  1562.87  1580.15  1592.72  1607.07
                             1640.69  1643.97  1649.80  1660.63  1708.54
                             1722.95  1737.27  1809.42  1831.73  1848.07
                             1857.15  1878.34  1890.31  1908.85  1945.87
                             1965.75  1973.43  1984.59  1993.76  2013.93
                             2018.22  2019.14  2025.41  2031.75  2044.84
                             2047.59  2060.10  2063.81  2079.26  2096.11
                             2159.10  2162.63  2166.04  2176.60  2181.05
                             2187.41  2192.46  2194.74  2197.89  2201.52
                             2205.81  2213.75  2221.87  2233.30  2241.69
                             4184.64  4190.26  4212.65  4324.06  4339.20
                             4340.41  4352.02  4352.54  4368.75  4380.94
                             4383.83  4385.84  4388.91  4390.39  4400.80
                             4406.05  4409.44  4416.58  4430.43  4431.43
                             4446.41  4455.66  4468.08  4477.97  4497.34
                             4507.43  4518.78  5061.73

 Zero-point correction=                           0.406375 (Hartree/Particle)
 Thermal correction to Energy=                    0.423468
 Thermal correction to Enthalpy=                  0.424413
 Thermal correction to Gibbs Free Energy=         0.361088
 Sum of electronic and zero-point Energies=           -621.407605
 Sum of electronic and thermal Energies=              -621.390512
 Sum of electronic and thermal Enthalpies=            -621.389568
 Sum of electronic and thermal Free Energies=         -621.452893

                     E (Thermal)             CV                S
                      KCal/Mol        Cal/Mol-Kelvin    Cal/Mol-Kelvin
 Total                  265.730             65.434            133.279
 Electronic               0.000              0.000              0.000
 Translational            0.889              2.981             41.961
 Rotational               0.889              2.981             32.511
 Vibrational            263.953             59.473             58.806
 Vibration     1          0.593              1.986              6.538
 Vibration     2          0.594              1.982              5.423
 Vibration     3          0.597              1.972              4.369
 Vibration     4          0.601              1.959              3.766
 Vibration     5          0.602              1.954              3.598
 Vibration     6          0.607              1.940              3.244
 Vibration     7          0.613              1.919              2.889
 Vibration     8          0.623              1.886              2.500
 Vibration     9          0.628              1.871              2.366
 Vibration    10          0.640              1.834              2.096
 Vibration    11          0.643              1.823              2.030
 Vibration    12          0.649              1.805              1.927
 Vibration    13          0.657              1.780              1.807
 Vibration    14          0.674              1.729              1.599
 Vibration    15          0.697              1.662              1.382
 Vibration    16          0.705              1.637              1.316
 Vibration    17          0.723              1.588              1.195
 Vibration    18          0.755              1.498              1.012
 Vibration    19          0.760              1.486              0.991
 Vibration    20          0.778              1.438              0.909
 Vibration    21          0.797              1.391              0.839
 Vibration    22          0.845              1.274              0.686
 Vibration    23          0.855              1.251              0.660
 Vibration    24          0.871              1.215              0.620
 Vibration    25          0.911              1.128              0.533

 Optimization completed.
    -- Stationary point found.
 Normal termination of Gaussian 16 at Thu Dec 10 15:04:46 2020.

 ----------------------------------------------------------------------
 # B3LYP/6-311++G(d,p) empiricaldispersion=gd3bj scf=xqc pop=npa geom=c
 heck
 ----------------------------------------------------------------------

 --------------------------------------
 CID_62573291_JID_5005_Energie_neutraal
 --------------------------------------
 Structure from the checkpoint file:  "JID_5005.chk"
 Charge =  0 Multiplicity = 1

 SCF Done:  E(RB3LYP) =  -621.986514768     A.U. after   13 cycles
 Normal termination of Gaussian 16 at Thu Dec 10 15:13:21 2020.

 ----------------------------------------------------------------------
 # B3LYP/6-311++G(d,p) empiricaldispersion=gd3bj scf=xqc pop=npa geom=c
 heck
 ----------------------------------------------------------------------

 ------------------------------------
 CID_62573291_JID_5005_Energie_kation
 ------------------------------------
 Structure from the checkpoint file:  "JID_5005.chk"
 Charge =  1 Multiplicity = 2

 SCF Done:  E(UB3LYP) =  -621.719587428     A.U. after   18 cycles
 Normal termination of Gaussian 16 at Thu Dec 10 15:28:24 2020.
 Gaussian 16:  ES64L-G16RevA.03 25-Dec-2016

 ----------------------------------------------------------------------
 # B3LYP/6-311++G(d,p) empiricaldispersion=gd3bj scf=xqc pop=npa geom=c
 heck
 ----------------------------------------------------------------------

 -----------------------------------
 CID_62573291_JID_5005_Energie_anion
 -----------------------------------
 Structure from the checkpoint file:  "JID_5005.chk"
 Charge = -1 Multiplicity = 2

                         Standard orientation:
 ---------------------------------------------------------------------
 Center     Atomic      Atomic             Coordinates (Angstroms)
 Number     Number       Type             X           Y           Z
 ---------------------------------------------------------------------
      1          6           0       -0.735885    2.809462    0.037333
      2          6           0       -2.214383    2.409297   -0.048078
      3          6           0       -2.468852    1.007885   -0.635664
      4          7           0       -2.643833   -0.050732    0.352680
      5          6           0       -3.234224   -1.273531   -0.165046
      6          6           0       -2.445790   -2.036274   -1.246619
      7          6           0       -1.747860   -0.182585    1.490543
      8          6           0       -0.458269   -1.001280    1.314697
      9          7           0        0.375639   -0.463157    0.249575
     10          6           0        1.568877   -1.255676   -0.066620
     11          6           0        2.121850   -0.805783   -1.428536
     12          6           0        2.647810    0.636065   -1.394378
     13          6           0        3.704091    0.811831   -0.294720
     14          6           0        3.168705    0.363900    1.072360
     15          6           0        2.646761   -1.077314    1.017973
     16          1           0       -0.138233    2.070537    0.578155
     17          1           0       -0.619753    3.784304    0.524802
     18          1           0       -0.305123    2.889570   -0.968614
     19          1           0       -2.696077    2.468684    0.935426
     20          1           0       -2.733734    3.140655   -0.680004
     21          1           0       -3.406252    1.027925   -1.208841
     22          1           0       -1.677042    0.799717   -1.382430
     23          1           0       -3.416281   -1.940104    0.687518
     24          1           0       -4.221562   -1.021117   -0.581160
     25          1           0       -1.480098   -2.394260   -0.876705
     26          1           0       -3.018070   -2.907637   -1.586548
     27          1           0       -2.261272   -1.403803   -2.122240
     28          1           0       -1.479899    0.820684    1.829951
     29          1           0       -2.316620   -0.647496    2.309508
     30          1           0        0.095549   -0.956085    2.260921
     31          1           0       -0.709488   -2.068581    1.156884
     32          1           0       -0.191871   -0.391486   -0.591066
     33          1           0        1.316830   -2.332754   -0.129272
     34          1           0        2.935286   -1.486814   -1.713001
     35          1           0        1.342708   -0.914075   -2.196465
     36          1           0        1.812672    1.321011   -1.206349
     37          1           0        3.068229    0.901985   -2.372430
     38          1           0        4.034772    1.857080   -0.250611
     39          1           0        4.591382    0.212122   -0.548414
     40          1           0        2.349577    1.026677    1.375507
     41          1           0        3.953665    0.449226    1.834227
     42          1           0        2.256680   -1.381423    1.996491
     43          1           0        3.474401   -1.763317    0.789508
 ---------------------------------------------------------------------

 SCF Done:  E(UB3LYP) =  -621.971327461     A.U. after   27 cycles

 The electronic state is 2-A.
 Alpha  occ. eigenvalues --  -14.20182 -14.19487 -10.09728 -10.09691 -10.09638
 Alpha  occ. eigenvalues --  -10.09631 -10.09041 -10.07283 -10.06503 -10.06441
 Alpha  occ. eigenvalues --  -10.06373 -10.06237 -10.06192 -10.05963 -10.05933
 Alpha  occ. eigenvalues --   -0.83056  -0.80640  -0.72063  -0.68512  -0.66042
 Alpha  occ. eigenvalues --   -0.64325  -0.63617  -0.61274  -0.57122  -0.53194
 Alpha  occ. eigenvalues --   -0.51112  -0.50975  -0.49737  -0.45767  -0.44689
 Alpha  occ. eigenvalues --   -0.40979  -0.38780  -0.38188  -0.37613  -0.36038
 Alpha  occ. eigenvalues --   -0.35427  -0.34266  -0.33576  -0.32608  -0.32408
 Alpha  occ. eigenvalues --   -0.31282  -0.30252  -0.30075  -0.28860  -0.28640
 Alpha  occ. eigenvalues --   -0.27957  -0.27611  -0.27049  -0.26450  -0.25181
 Alpha  occ. eigenvalues --   -0.24943  -0.24237  -0.23856  -0.23662  -0.23355
 Alpha  occ. eigenvalues --   -0.22315  -0.20511  -0.20064  -0.13137  -0.10479
 Alpha  occ. eigenvalues --    0.04289
 Alpha virt. eigenvalues --    0.06167   0.06616   0.06799   0.07996   0.08099
 Alpha virt. eigenvalues --    0.08344   0.08721   0.09251   0.10240   0.10369
 Alpha virt. eigenvalues --    0.10596   0.11018   0.11201   0.11789   0.12123

  Beta  occ. eigenvalues --  -14.20182 -14.19478 -10.09718 -10.09672 -10.09625
  Beta  occ. eigenvalues --  -10.09620 -10.09026 -10.07273 -10.06485 -10.06427
  Beta  occ. eigenvalues --  -10.06360 -10.06228 -10.06183 -10.05952 -10.05902
  Beta  occ. eigenvalues --   -0.83044  -0.80625  -0.72039  -0.68490  -0.66014
  Beta  occ. eigenvalues --   -0.64296  -0.63584  -0.61243  -0.57084  -0.53144
  Beta  occ. eigenvalues --   -0.51069  -0.50937  -0.49699  -0.45722  -0.44650
  Beta  occ. eigenvalues --   -0.40960  -0.38734  -0.38162  -0.37590  -0.36006
  Beta  occ. eigenvalues --   -0.35403  -0.34242  -0.33555  -0.32588  -0.32383
  Beta  occ. eigenvalues --   -0.31260  -0.30220  -0.30046  -0.28833  -0.28608
  Beta  occ. eigenvalues --   -0.27928  -0.27572  -0.27026  -0.26423  -0.25153
  Beta  occ. eigenvalues --   -0.24914  -0.24212  -0.23834  -0.23638  -0.23332
  Beta  occ. eigenvalues --   -0.22290  -0.20484  -0.20037  -0.13104  -0.10453
  Beta virt. eigenvalues --    0.06181   0.06862   0.07122   0.07314   0.08400
  Beta virt. eigenvalues --    0.08543   0.08672   0.09115   0.09505   0.10524
  Beta virt. eigenvalues --    0.10714   0.10927   0.11279   0.11428   0.12075

 Mulliken charges and spin densities:
               1          2
     1  C   -0.482115   0.026974
     2  C    0.667955  -1.016394
     3  C   -0.412211   0.172696
     4  N    0.143984   0.003079
     5  C    0.106060  -0.331559
     6  C   -0.019542  -0.392902
     7  C   -0.168423  -0.432536
     8  C    0.013744  -0.252914
     9  N    0.163359  -0.003114
    10  C    0.016313   0.041329
    11  C   -0.396865   0.015420
    12  C   -0.136029   0.070048
    13  C    0.719746  -1.337289
    14  C   -0.295718   0.225787
    15  C   -0.016486  -0.605662
    16  H    0.382466  -0.228635
    17  H   -0.031135   0.161111
    18  H   -0.021730   0.158047
    19  H    0.101734   0.039411
    20  H   -0.036666   0.188958
    21  H   -0.436289   0.596566
    22  H   -0.221315   0.335694
    23  H   -0.108288   0.219684
    24  H   -0.002259   0.156981
    25  H    0.148545   0.012184
    26  H   -0.735880   0.895796
    27  H    0.002678   0.134080
    28  H    0.064773   0.089092
    29  H   -0.168071   0.351520
    30  H    0.150263  -0.039414
    31  H    0.027210   0.115138
    32  H    1.558917  -1.550399
    33  H   -0.132430   0.286558
    34  H   -0.421848   0.587736
    35  H   -0.231653   0.392758
    36  H   -0.085588   0.157688
    37  H   -0.204066   0.381251
    38  H    0.000026   0.157461
    39  H   -0.034558   0.157783
    40  H   -0.083358   0.210628
    41  H   -0.117962   0.290006
    42  H   -0.135233   0.287487
    43  H   -0.132053   0.271869
 Sum of Mulliken charges =  -1.00000   1.00000

 Dipole moment (field-independent basis, Debye):
    X=             -0.1185    Y=              2.3017    Z=              2.9376  Tot=              3.7338
 Quadrupole moment (field-independent basis, Debye-Ang):
   XX=           -179.5224   YY=           -149.6746   ZZ=           -142.6751
   XY=             -3.8208   XZ=             -4.0445   YZ=             -1.6822

 Summary of Natural Population Analysis:

                                       Natural Population
                Natural  -----------------------------------------------
    Atom  No    Charge         Core      Valence    Rydberg      Total
 -----------------------------------------------------------------------
      C    1   -0.29148      0.99966     2.28614    0.00568     3.29148
      C    2   -0.19839      0.99964     2.19118    0.00757     3.19839
      C    3   -0.07850      0.99960     2.06726    0.01164     3.07850
      N    4   -0.28678      0.99972     2.77374    0.01331     3.78678
      C    5   -0.08058      0.99962     2.06963    0.01133     3.08058
      C    6   -0.29827      0.99966     2.29308    0.00553     3.29827
      C    7   -0.08194      0.99960     2.07060    0.01174     3.08194
      C    8   -0.09262      0.99962     2.08296    0.01004     3.09262
      N    9   -0.35665      0.99972     2.84642    0.01051     3.85665
      C   10   -0.00413      0.99959     1.99222    0.01232     3.00413
      C   11   -0.18984      0.99961     2.18105    0.00918     3.18984
      C   12   -0.19273      0.99962     2.18457    0.00853     3.19273
      C   13   -0.18735      0.99963     2.18015    0.00757     3.18735
      C   14   -0.19242      0.99962     2.18451    0.00829     3.19242
      C   15   -0.19173      0.99961     2.18343    0.00870     3.19173
      H   16    0.10686      0.00000     0.39144    0.00170     0.39314
      H   17    0.09430      0.00000     0.40497    0.00073     0.40570
      H   18    0.09622      0.00000     0.40264    0.00113     0.40378
      H   19    0.09664      0.00000     0.40212    0.00124     0.40336
      H   20    0.09689      0.00000     0.40214    0.00097     0.40311
      H   21    0.09430      0.00000     0.40415    0.00155     0.40570
      H   22    0.07607      0.00000     0.42187    0.00206     0.42393
      H   23    0.09202      0.00000     0.40685    0.00113     0.40798
      H   24    0.08949      0.00000     0.40923    0.00128     0.41051
      H   25    0.09651      0.00000     0.40169    0.00180     0.40349
      H   26    0.10010      0.00000     0.39848    0.00142     0.39990
      H   27    0.09760      0.00000     0.40101    0.00138     0.40240
      H   28    0.09689      0.00000     0.40174    0.00137     0.40311
      H   29    0.09179      0.00000     0.40723    0.00098     0.40821
      H   30    0.09216      0.00000     0.40642    0.00142     0.40784
      H   31    0.07709      0.00000     0.42114    0.00178     0.42291
      H   32    0.17738      0.00000     0.31770    0.00492     0.32262
      H   33    0.08228      0.00000     0.41563    0.00209     0.41772
      H   34    0.09822      0.00000     0.40050    0.00127     0.40178
      H   35    0.09853      0.00000     0.40000    0.00147     0.40147
      H   36    0.09913      0.00000     0.39897    0.00190     0.40087
      H   37    0.09660      0.00000     0.40240    0.00100     0.40340
      H   38    0.09636      0.00000     0.40274    0.00090     0.40364
      H   39    0.09080      0.00000     0.40790    0.00130     0.40920
      H   40    0.09871      0.00000     0.39945    0.00184     0.40129
      H   41    0.09561      0.00000     0.40352    0.00088     0.40439
      H   42    0.09841      0.00000     0.40047    0.00113     0.40159
      H   43    0.09642      0.00000     0.40236    0.00122     0.40358
 =======================================================================
   * Total *   -0.00000     14.99451    44.82169    0.18380    60.00000

 Normal termination of Gaussian 16 at Thu Dec 10 15:55:22 2020.
