 Gaussian 16, Revision A.03,

 -----------------------------------------------------------
 # opt freq B3LYP/6-31G(d) empiricaldispersion=gd3bj scf=xqc
 -----------------------------------------------------------

 -------------------------------
 CID_132135250_JID_1419_neutraal
 -------------------------------
 Symbolic Z-matrix:
 Charge =  0 Multiplicity = 1

 SCF Done:  E(RB3LYP) =  -462.085824363     A.U. after   14 cycles
 SCF Done:  E(RB3LYP) =  -462.088591189     A.U. after   12 cycles
 SCF Done:  E(RB3LYP) =  -462.088882658     A.U. after   12 cycles
 SCF Done:  E(RB3LYP) =  -462.089318894     A.U. after   11 cycles
 SCF Done:  E(RB3LYP) =  -462.089420185     A.U. after   11 cycles
 SCF Done:  E(RB3LYP) =  -462.089453132     A.U. after   11 cycles
 SCF Done:  E(RB3LYP) =  -462.089474447     A.U. after   11 cycles
 SCF Done:  E(RB3LYP) =  -462.089489412     A.U. after   11 cycles
 SCF Done:  E(RB3LYP) =  -462.089551894     A.U. after   11 cycles
 SCF Done:  E(RB3LYP) =  -462.089608859     A.U. after   12 cycles
 SCF Done:  E(RB3LYP) =  -462.090499202     A.U. after   11 cycles
 SCF Done:  E(RB3LYP) =  -462.090541927     A.U. after   10 cycles
 SCF Done:  E(RB3LYP) =  -462.090556531     A.U. after   10 cycles
 SCF Done:  E(RB3LYP) =  -462.090559082     A.U. after    8 cycles
 SCF Done:  E(RB3LYP) =  -462.090559379     A.U. after    7 cycles
 SCF Done:  E(RB3LYP) =  -462.090559439     A.U. after    6 cycles
 Optimization completed.
    -- Stationary point found.

 1\1\GINC-NODE107\FOpt\RB3LYP\6-31G(d)\C9H16N2\VSC10255\08-Dec-2020\0\\
 # opt freq B3LYP/6-31G(d) empiricaldispersion=gd3bj scf=xqc\\CID_13213
 5250_JID_1419_neutraal\\0,1\C,0.8537337054,0.3397883379,0.0925978509\N
 ,0.5948604072,0.8434382763,1.4324691272\C,-0.8203175272,1.0762990986,1
 .6592723894\C,1.2339706835,0.0804592438,2.5093466352\C,0.8468903479,-1
 .4232102241,2.5956018114\C,1.9116091762,-2.3385776902,1.9827275213\C,3
 .2249155344,-2.136145926,2.6874482182\C,4.0375713341,-3.1359356103,3.0
 641133979\N,3.5200801376,-0.7934493018,2.9221637734\C,2.7516483943,0.2

 Normal termination of Gaussian 16 at Tue Dec  8 20:11:43 2020.

 --------------------------------------------------------------------
 #N Geom=AllCheck Guess=TCheck SCRF=Check GenChk RB3LYP/6-31G(d) Freq
 --------------------------------------------------------------------

 Structure from the checkpoint file:  "JID_1419.chk"
 -------------------------------
 CID_132135250_JID_1419_neutraal
 -------------------------------
 Charge =  0 Multiplicity = 1

 SCF Done:  E(RB3LYP) =  -462.090559439     A.U. after    1 cycles

  Exact polarizability: 142.723  12.686 112.102  -0.280   1.145  74.725
 Approx polarizability: 192.033  28.048 166.447   1.643   2.429 110.851

                      1                      2                      3
                      A                      A                      A
 Frequencies --     50.9044                98.5082               119.3710
 Red. masses --      3.2357                 3.9851                 2.8353
 Frc consts  --      0.0049                 0.0228                 0.0238
 IR Inten    --      0.0537                 0.6978                 0.5084

                      4                      5                      6
                      A                      A                      A
 Frequencies --    170.3936               216.1785               254.1866
 Red. masses --      2.6816                 2.8238                 1.2084
 Frc consts  --      0.0459                 0.0778                 0.0460
 IR Inten    --      0.2197                 1.2325                 0.7695

                      7                      8                      9
                      A                      A                      A
 Frequencies --    270.2840               297.0998               319.0051
 Red. masses --      1.8161                 1.1113                 2.4511
 Frc consts  --      0.0782                 0.0578                 0.1470
 IR Inten    --      1.8897                 0.3644                 1.6191

                     10                     11                     12
                      A                      A                      A
 Frequencies --    344.8477               409.1446               419.3416
 Red. masses --      2.8738                 2.7021                 2.2692
 Frc consts  --      0.2014                 0.2665                 0.2351
 IR Inten    --      2.0071                 6.4480                 4.2206

                     13                     14                     15
                      A                      A                      A
 Frequencies --    451.2805               498.4852               517.4587
 Red. masses --      2.5400                 2.5606                 2.1184
 Frc consts  --      0.3048                 0.3749                 0.3342
 IR Inten    --      3.8924                 2.8674                24.4717

                     16                     17                     18
                      A                      A                      A
 Frequencies --    532.6270               570.0625               628.6746
 Red. masses --      1.3648                 3.4673                 2.9675
 Frc consts  --      0.2281                 0.6639                 0.6910
 IR Inten    --     53.3259                 3.9752                 7.0201

                     19                     20                     21
                      A                      A                      A
 Frequencies --    662.0436               705.6507               737.9474
 Red. masses --      2.9135                 1.1320                 1.2067
 Frc consts  --      0.7524                 0.3321                 0.3872
 IR Inten    --      1.4863                 1.8699                13.6474

                     22                     23                     24
                      A                      A                      A
 Frequencies --    785.1534               791.6865               817.9020
 Red. masses --      1.8764                 1.6828                 1.4700
 Frc consts  --      0.6815                 0.6214                 0.5794
 IR Inten    --     24.2075                36.8124                52.0271

                     25                     26                     27
                      A                      A                      A
 Frequencies --    839.2224               892.9423               916.0943
 Red. masses --      2.6344                 2.4506                 2.1735
 Frc consts  --      1.0932                 1.1513                 1.0747
 IR Inten    --      6.6182                 4.6489                 8.4852

                     28                     29                     30
                      A                      A                      A
 Frequencies --    957.2914              1006.9781              1033.9443
 Red. masses --      2.0965                 1.8838                 2.0966
 Frc consts  --      1.1320                 1.1255                 1.3206
 IR Inten    --      2.4004                 4.8402                13.5461

                     31                     32                     33
                      A                      A                      A
 Frequencies --   1065.5918              1080.4512              1091.5133
 Red. masses --      1.7276                 1.6417                 1.9941
 Frc consts  --      1.1558                 1.1292                 1.3997
 IR Inten    --      6.1051                18.0297                16.2097

                     34                     35                     36
                      A                      A                      A
 Frequencies --   1104.5766              1135.7651              1197.7792
 Red. masses --      2.4421                 1.2519                 1.3689
 Frc consts  --      1.7555                 0.9515                 1.1571
 IR Inten    --     20.8415                 7.8117                 3.1522

                     37                     38                     39
                      A                      A                      A
 Frequencies --   1207.9886              1220.7890              1249.6377
 Red. masses --      1.3859                 1.4622                 1.8165
 Frc consts  --      1.1915                 1.2839                 1.6713
 IR Inten    --     17.4175                44.7026                25.6145

                     40                     41                     42
                      A                      A                      A
 Frequencies --   1320.1423              1331.9915              1348.4433
 Red. masses --      2.0642                 1.5931                 1.9133
 Frc consts  --      2.1196                 1.6653                 2.0497
 IR Inten    --     11.2230                31.0316                57.4778

                     43                     44                     45
                      A                      A                      A
 Frequencies --   1367.5969              1389.1136              1393.1237
 Red. masses --      1.9505                 1.2578                 1.6380
 Frc consts  --      2.1493                 1.4301                 1.8730
 IR Inten    --     10.7550                 2.3102                17.9111

                     46                     47                     48
                      A                      A                      A
 Frequencies --   1405.9249              1419.3112              1454.3146
 Red. masses --      2.3982                 1.5650                 1.2033
 Frc consts  --      2.7929                 1.8575                 1.4995
 IR Inten    --     82.1686                15.5665                 4.0830

                     49                     50                     51
                      A                      A                      A
 Frequencies --   1465.8350              1494.7819              1505.0210
 Red. masses --      1.1561                 1.1660                 1.1108
 Frc consts  --      1.4636                 1.5351                 1.4824
 IR Inten    --      1.2290                 2.0709                 6.1140

                     52                     53                     54
                      A                      A                      A
 Frequencies --   1511.6261              1517.2350              1524.0173
 Red. masses --      1.0697                 1.1008                 1.2591
 Frc consts  --      1.4401                 1.4930                 1.7230
 IR Inten    --     14.4124                 3.9469                 0.7411

                     55                     56                     57
                      A                      A                      A
 Frequencies --   1531.8664              1535.1888              1549.9619
 Red. masses --      1.0671                 1.0559                 1.0536
 Frc consts  --      1.4754                 1.4662                 1.4913
 IR Inten    --     12.7173                 5.9073                 3.9513

                     58                     59                     60
                      A                      A                      A
 Frequencies --   1716.3868              1734.5610              2938.5366
 Red. masses --      5.7125                 5.0606                 1.0611
 Frc consts  --      9.9154                 8.9708                 5.3984
 IR Inten    --     59.2472               302.5504                50.5078

                     61                     62                     63
                      A                      A                      A
 Frequencies --   2950.1666              3033.9992              3044.8262
 Red. masses --      1.0624                 1.0823                 1.0685
 Frc consts  --      5.4478                 5.8697                 5.8364
 IR Inten    --    107.0434                14.9657                 9.8595

                     64                     65                     66
                      A                      A                      A
 Frequencies --   3061.9784              3070.8060              3080.5863
 Red. masses --      1.0624                 1.0694                 1.0735
 Frc consts  --      5.8688                 5.9416                 6.0026
 IR Inten    --     39.3697                41.9982                43.6969

                     67                     68                     69
                      A                      A                      A
 Frequencies --   3099.4313              3113.6865              3117.1367
 Red. masses --      1.1024                 1.0969                 1.1038
 Frc consts  --      6.2396                 6.2657                 6.3190
 IR Inten    --     27.1476                27.3125                35.8742

                     70                     71                     72
                      A                      A                      A
 Frequencies --   3139.1779              3172.3683              3173.5802
 Red. masses --      1.0999                 1.0621                 1.0634
 Frc consts  --      6.3860                 6.2976                 6.3104
 IR Inten    --     20.3287                 4.5143                16.1458

                     73                     74                     75
                      A                      A                      A
 Frequencies --   3262.4215              3279.3499              3596.3850
 Red. masses --      1.1136                 1.1116                 1.0757
 Frc consts  --      6.9835                 7.0433                 8.1972
 IR Inten    --     11.3855                 4.5471                 5.8356

 - Thermochemistry -
 -------------------
 Temperature   298.150 Kelvin.  Pressure   1.00000 Atm.
 Atom     1 has atomic number  6 and mass  12.00000

 Molecular mass:   152.13135 amu.
 Principal axes and moments of inertia in atomic units:
                           1         2         3
     Eigenvalues --   927.140032245.126202701.45123
           X            0.99997  -0.00711  -0.00087
           Y            0.00711   0.99996   0.00550
           Z            0.00084  -0.00551   0.99998
 This molecule is an asymmetric top.
 Rotational symmetry number  1.
 Warning -- assumption of classical behavior for rotation
           may cause significant error
 Rotational temperatures (Kelvin)      0.09342     0.03858     0.03206
 Rotational constants (GHZ):           1.94657     0.80385     0.66806
 Zero-point vibrational energy     635932.9 (Joules/Mol)
                                  151.99162 (Kcal/Mol)
 Warning -- explicit consideration of  17 degrees of freedom as
           vibrations may cause significant error
 Vibrational temperatures:     73.24   141.73   171.75   245.16   311.03
          (Kelvin)            365.72   388.88   427.46   458.98   496.16
                              588.67   603.34   649.29   717.21   744.51
                              766.33   820.19   904.52   952.53  1015.27
                             1061.74  1129.66  1139.06  1176.78  1207.45
                             1284.74  1318.06  1377.33  1448.82  1487.62
                             1533.15  1554.53  1570.44  1589.24  1634.11
                             1723.34  1738.03  1756.44  1797.95  1899.39
                             1916.44  1940.11  1967.67  1998.62  2004.39
                             2022.81  2042.07  2092.43  2109.01  2150.66
                             2165.39  2174.89  2182.96  2192.72  2204.01
                             2208.79  2230.05  2469.50  2495.65  4227.90
                             4244.63  4365.25  4380.83  4405.50  4418.20
                             4432.28  4459.39  4479.90  4484.86  4516.58
                             4564.33  4566.07  4693.90  4718.25  5174.40

 Zero-point correction=                           0.242214 (Hartree/Particle)
 Thermal correction to Energy=                    0.253570
 Thermal correction to Enthalpy=                  0.254514
 Thermal correction to Gibbs Free Energy=         0.205798
 Sum of electronic and zero-point Energies=           -461.848345
 Sum of electronic and thermal Energies=              -461.836990
 Sum of electronic and thermal Enthalpies=            -461.836046
 Sum of electronic and thermal Free Energies=         -461.884762

                     E (Thermal)             CV                S
                      KCal/Mol        Cal/Mol-Kelvin    Cal/Mol-Kelvin
 Total                  159.117             44.935            102.532
 Electronic               0.000              0.000              0.000
 Translational            0.889              2.981             40.969
 Rotational               0.889              2.981             30.109
 Vibrational            157.340             38.974             31.453
 Vibration     1          0.595              1.977              4.782
 Vibration     2          0.604              1.950              3.484
 Vibration     3          0.609              1.933              3.111
 Vibration     4          0.625              1.879              2.431
 Vibration     5          0.645              1.816              1.991
 Vibration     6          0.665              1.756              1.701
 Vibration     7          0.674              1.728              1.594
 Vibration     8          0.691              1.679              1.433
 Vibration     9          0.705              1.637              1.315
 Vibration    10          0.723              1.586              1.190
 Vibration    11          0.774              1.450              0.930
 Vibration    12          0.782              1.428              0.894
 Vibration    13          0.810              1.358              0.792
 Vibration    14          0.854              1.253              0.662
 Vibration    15          0.872              1.211              0.616
 Vibration    16          0.888              1.178              0.581
 Vibration    17          0.926              1.096              0.504

 Optimization completed.
    -- Stationary point found.

 1\1\GINC-NODE107\Freq\RB3LYP\6-31G(d)\C9H16N2\VSC10255\08-Dec-2020\0\\
 #N Geom=AllCheck Guess=TCheck SCRF=Check GenChk RB3LYP/6-31G(d) Freq\\
 CID_132135250_JID_1419_neutraal\\0,1\C,0.8537337054,0.3397883379,0.092
 5978509\N,0.5948604072,0.8434382763,1.4324691272\C,-0.8203175272,1.076
 2990986,1.6592723894\C,1.2339706835,0.0804592438,2.5093466352\C,0.8468
 903479,-1.4232102241,2.5956018114\C,1.9116091762,-2.3385776902,1.98272
 75213\C,3.2249155344,-2.136145926,2.6874482182\C,4.0375713341,-3.13593
 56103,3.0641133979\N,3.5200801376,-0.7934493018,2.9221637734\C,2.75164

 Normal termination of Gaussian 16 at Tue Dec  8 20:18:26 2020.

 ----------------------------------------------------------------------
 # B3LYP/6-311++G(d,p) empiricaldispersion=gd3bj scf=xqc pop=npa geom=c
 heck
 ----------------------------------------------------------------------

 ---------------------------------------
 CID_132135250_JID_1419_Energie_neutraal
 ---------------------------------------
 Structure from the checkpoint file:  "JID_1419.chk"
 Charge =  0 Multiplicity = 1

 SCF Done:  E(RB3LYP) =  -462.221981198     A.U. after   14 cycles
 Normal termination of Gaussian 16 at Tue Dec  8 20:21:46 2020.

 ----------------------------------------------------------------------
 # B3LYP/6-311++G(d,p) empiricaldispersion=gd3bj scf=xqc pop=npa geom=c
 heck
 ----------------------------------------------------------------------

 -------------------------------------
 CID_132135250_JID_1419_Energie_kation
 -------------------------------------
 Structure from the checkpoint file:  "JID_1419.chk"
 Charge =  1 Multiplicity = 2

 SCF Done:  E(UB3LYP) =  -461.960801355     A.U. after   22 cycles
 Normal termination of Gaussian 16 at Tue Dec  8 20:29:55 2020.
 Gaussian 16:  ES64L-G16RevA.03 25-Dec-2016

 ------------------------------------
 CID_132135250_JID_1419_Energie_anion
 ------------------------------------
 Structure from the checkpoint file:  "JID_1419.chk"
 Charge = -1 Multiplicity = 2

                         Standard orientation:
 ---------------------------------------------------------------------
 Center     Atomic      Atomic             Coordinates (Angstroms)
 Number     Number       Type             X           Y           Z
 ---------------------------------------------------------------------
      1          6           0        1.888382   -0.223021    1.466398
      2          7           0        1.968445    0.101374    0.050668
      3          6           0        3.025949   -0.638007   -0.615210
      4          6           0        0.689349    0.049230   -0.664495
      5          6           0       -0.046065   -1.320708   -0.637465
      6          6           0       -1.181428   -1.356232    0.390555
      7          6           0       -2.182032   -0.276260    0.082598
      8          6           0       -3.512295   -0.452997    0.114665
      9          7           0       -1.589493    0.941466   -0.250702
     10          6           0       -0.215846    1.202443   -0.219488
     11          6           0        0.270529    2.421241    0.057480
     12          1           0        2.849360    0.005418    1.940451
     13          1           0        1.662980   -1.287437    1.668022
     14          1           0        1.120292    0.395072    1.938123
     15          1           0        2.887796   -1.736624   -0.606622
     16          1           0        3.101899   -0.315248   -1.659304
     17          1           0        3.980019   -0.424347   -0.120606
     18          1           0        0.943926    0.253423   -1.712306
     19          1           0       -0.468480   -1.524827   -1.627979
     20          1           0        0.677640   -2.117685   -0.435032
     21          1           0       -0.771188   -1.190260    1.395903
     22          1           0       -1.679202   -2.329918    0.398997
     23          1           0       -3.931910   -1.416439    0.376683
     24          1           0       -4.207082    0.352861   -0.106111
     25          1           0       -2.192561    1.753430   -0.233245
     26          1           0       -0.379583    3.242700    0.346204
     27          1           0        1.334186    2.605875   -0.013173
 ---------------------------------------------------------------------

 SCF Done:  E(UB3LYP) =  -462.206487200     A.U. after   30 cycles

 The electronic state is 2-A.
 Alpha  occ. eigenvalues --  -14.23176 -14.19935 -10.10961 -10.10487 -10.10126
 Alpha  occ. eigenvalues --  -10.07854 -10.07813 -10.07097 -10.06410 -10.04036
 Alpha  occ. eigenvalues --  -10.03652  -0.85152  -0.81782  -0.69531  -0.67998
 Alpha  occ. eigenvalues --   -0.60932  -0.60163  -0.58433  -0.52721  -0.50191
 Alpha  occ. eigenvalues --   -0.47718  -0.43728  -0.39317  -0.38165  -0.37011
 Alpha  occ. eigenvalues --   -0.35209  -0.34756  -0.32792  -0.31551  -0.30854
 Alpha  occ. eigenvalues --   -0.30330  -0.28380  -0.28168  -0.26676  -0.26072
 Alpha  occ. eigenvalues --   -0.25836  -0.24953  -0.22814  -0.22671  -0.15725
 Alpha  occ. eigenvalues --   -0.10973  -0.08885   0.04674
 Alpha virt. eigenvalues --    0.06854   0.07671   0.08037   0.09202   0.09550
 Alpha virt. eigenvalues --    0.09781   0.10121   0.10606   0.11527   0.11676
 Alpha virt. eigenvalues --    0.12110   0.13180   0.13411   0.13987   0.14517

  Beta  occ. eigenvalues --  -14.23153 -14.19934 -10.10958 -10.10476 -10.10115
  Beta  occ. eigenvalues --  -10.07809 -10.07783 -10.07075 -10.06384 -10.04006
  Beta  occ. eigenvalues --  -10.03626  -0.85114  -0.81765  -0.69495  -0.67959
  Beta  occ. eigenvalues --   -0.60887  -0.60110  -0.58379  -0.52649  -0.50114
  Beta  occ. eigenvalues --   -0.47661  -0.43655  -0.39268  -0.38126  -0.36956
  Beta  occ. eigenvalues --   -0.35173  -0.34710  -0.32756  -0.31512  -0.30815
  Beta  occ. eigenvalues --   -0.30292  -0.28342  -0.28130  -0.26640  -0.26032
  Beta  occ. eigenvalues --   -0.25791  -0.24913  -0.22778  -0.22627  -0.15646
  Beta  occ. eigenvalues --   -0.10946  -0.08804
  Beta virt. eigenvalues --    0.06968   0.07911   0.08378   0.08602   0.09547
  Beta virt. eigenvalues --    0.09974   0.10192   0.10475   0.11094   0.11962
  Beta virt. eigenvalues --    0.12048   0.12414   0.13635   0.13845   0.14214

 Mulliken charges and spin densities:
               1          2
     1  C    0.462386  -0.929037
     2  N   -0.131300   0.243937
     3  C    0.961465  -1.196634
     4  C   -0.765283   0.805817
     5  C    0.894570  -1.523390
     6  C    1.317014  -1.322690
     7  C   -1.374893   1.675737
     8  C    0.604113  -1.497660
     9  N   -0.159458   0.112997
    10  C   -0.558272   0.561614
    11  C    0.276616  -0.911975
    12  H   -0.012705   0.157360
    13  H   -0.173272   0.312727
    14  H    0.009529   0.149843
    15  H   -0.406735   0.519484
    16  H   -0.392798   0.536510
    17  H   -0.273462   0.399889
    18  H   -0.378207   0.575920
    19  H   -0.005487   0.154862
    20  H    0.028161   0.137801
    21  H    0.029728   0.107574
    22  H   -0.314560   0.517975
    23  H    0.011270   0.108195
    24  H   -0.263566   0.355310
    25  H   -0.087298   0.387008
    26  H   -0.444860   0.546530
    27  H    0.147304   0.014295
 Sum of Mulliken charges =  -1.00000   1.00000

 Dipole moment (field-independent basis, Debye):
    X=             -1.1019    Y=              0.2654    Z=              1.2251  Tot=              1.6690
 Quadrupole moment (field-independent basis, Debye-Ang):
   XX=           -131.4959   YY=           -112.5408   ZZ=           -102.0697
   XY=              7.5561   XZ=              3.4600   YZ=              0.7308

 Summary of Natural Population Analysis:

                                       Natural Population
                Natural  -----------------------------------------------
    Atom  No    Charge         Core      Valence    Rydberg      Total
 -----------------------------------------------------------------------
      C    1   -0.18176      0.99963     2.17304    0.00909     3.18176
      N    2   -0.27957      0.99973     2.76535    0.01450     3.77957
      C    3   -0.17463      0.99964     2.16615    0.00884     3.17463
      C    4   -0.01597      0.99953     2.00124    0.01520     3.01597
      C    5   -0.20029      0.99961     2.19148    0.00919     3.20029
      C    6   -0.20784      0.99958     2.19915    0.00911     3.20784
      C    7    0.10450      0.99951     1.88365    0.01235     2.89550
      C    8   -0.25099      0.99952     2.24400    0.00748     3.25099
      N    9   -0.30742      0.99963     2.79576    0.01203     3.80742
      C   10    0.09294      0.99948     1.89376    0.01382     2.90706
      C   11   -0.23583      0.99951     2.22874    0.00758     3.23583
      H   12    0.09498      0.00000     0.40404    0.00098     0.40502
      H   13    0.08057      0.00000     0.41789    0.00153     0.41943
      H   14    0.10064      0.00000     0.39800    0.00136     0.39936
      H   15    0.08078      0.00000     0.41710    0.00212     0.41922
      H   16    0.09671      0.00000     0.40171    0.00159     0.40329
      H   17    0.09506      0.00000     0.40363    0.00132     0.40494
      H   18    0.10908      0.00000     0.38917    0.00176     0.39092
      H   19    0.10091      0.00000     0.39760    0.00150     0.39909
      H   20    0.10650      0.00000     0.39183    0.00167     0.39350
      H   21    0.10469      0.00000     0.39339    0.00192     0.39531
      H   22    0.10670      0.00000     0.39212    0.00118     0.39330
      H   23    0.09667      0.00000     0.40234    0.00099     0.40333
      H   24    0.09319      0.00000     0.40554    0.00126     0.40681
      H   25    0.19256      0.00000     0.30273    0.00472     0.30744
      H   26    0.09231      0.00000     0.40662    0.00107     0.40769
      H   27    0.10553      0.00000     0.39298    0.00149     0.39447
 =======================================================================
   * Total *   -0.00000     10.99536    30.85900    0.14563    42.00000

 Normal termination of Gaussian 16 at Tue Dec  8 20:39:02 2020.
