 Gaussian 16, Revision A.03,

 -----------------------------------------------------------
 # opt freq B3LYP/6-31G(d) empiricaldispersion=gd3bj scf=xqc
 -----------------------------------------------------------

 -------------------------------
 CID_105737064_JID_7735_neutraal
 -------------------------------
 Symbolic Z-matrix:
 Charge =  0 Multiplicity = 1

 SCF Done:  E(RB3LYP) =  -769.849644287     A.U. after   14 cycles
 SCF Done:  E(RB3LYP) =  -769.853671302     A.U. after   12 cycles
 SCF Done:  E(RB3LYP) =  -769.853322465     A.U. after   12 cycles
 SCF Done:  E(RB3LYP) =  -769.854813454     A.U. after   12 cycles
 SCF Done:  E(RB3LYP) =  -769.855475755     A.U. after   12 cycles
 SCF Done:  E(RB3LYP) =  -769.855914808     A.U. after   13 cycles
 SCF Done:  E(RB3LYP) =  -769.856549096     A.U. after   12 cycles
 SCF Done:  E(RB3LYP) =  -769.856847365     A.U. after   11 cycles
 SCF Done:  E(RB3LYP) =  -769.856825866     A.U. after   11 cycles
 SCF Done:  E(RB3LYP) =  -769.856919345     A.U. after   10 cycles
 SCF Done:  E(RB3LYP) =  -769.857001309     A.U. after    8 cycles
 SCF Done:  E(RB3LYP) =  -769.857001483     A.U. after    7 cycles
 SCF Done:  E(RB3LYP) =  -769.857001677     A.U. after    7 cycles
 SCF Done:  E(RB3LYP) =  -769.857001885     A.U. after    7 cycles
 SCF Done:  E(RB3LYP) =  -769.857001996     A.U. after    7 cycles
 Optimization completed.
    -- Stationary point found.
 Normal termination of Gaussian 16 at Fri Dec 11 13:19:33 2020.

 --------------------------------------------------------------------
 #N Geom=AllCheck Guess=TCheck SCRF=Check GenChk RB3LYP/6-31G(d) Freq
 --------------------------------------------------------------------

 Structure from the checkpoint file:  "JID_7735.chk"
 -------------------------------
 CID_105737064_JID_7735_neutraal
 -------------------------------
 Charge =  0 Multiplicity = 1

 SCF Done:  E(RB3LYP) =  -769.857001996     A.U. after    1 cycles

  Exact polarizability: 181.719  -4.530 142.953  -1.176   2.360 132.750
 Approx polarizability: 218.434 -11.072 203.292  -5.175   7.393 200.445

                      1                      2                      3
                      A                      A                      A
 Frequencies --     22.8923                29.7466                48.7255
 Red. masses --      4.4944                 3.4655                 4.0046
 Frc consts  --      0.0014                 0.0018                 0.0056
 IR Inten    --      1.0395                 0.3198                 0.8123

                      4                      5                      6
                      A                      A                      A
 Frequencies --     67.1816                74.2260                97.6953
 Red. masses --      2.3537                 2.7666                 4.1359
 Frc consts  --      0.0063                 0.0090                 0.0233
 IR Inten    --      1.0925                 1.8306                 1.4459

                      7                      8                      9
                      A                      A                      A
 Frequencies --    108.8141               135.8479               156.1893
 Red. masses --      3.4532                 3.5371                 3.3863
 Frc consts  --      0.0241                 0.0385                 0.0487
 IR Inten    --      0.4257                 2.0420                 0.2128

                     10                     11                     12
                      A                      A                      A
 Frequencies --    179.4755               196.5225               201.0024
 Red. masses --      2.6884                 2.6858                 1.3322
 Frc consts  --      0.0510                 0.0611                 0.0317
 IR Inten    --      2.9251                 2.0607                 1.7317

                     13                     14                     15
                      A                      A                      A
 Frequencies --    221.2471               239.7410               258.2259
 Red. masses --      1.9875                 3.3617                 1.6535
 Frc consts  --      0.0573                 0.1138                 0.0650
 IR Inten    --      4.0544                 4.2484                 0.1973

                     16                     17                     18
                      A                      A                      A
 Frequencies --    280.0488               286.2373               334.7871
 Red. masses --      2.0718                 2.5666                 4.7254
 Frc consts  --      0.0957                 0.1239                 0.3121
 IR Inten    --      2.0952                14.8821                17.5520

                     19                     20                     21
                      A                      A                      A
 Frequencies --    389.2986               420.4949               461.9712
 Red. masses --      2.6255                 3.5721                 3.4150
 Frc consts  --      0.2344                 0.3721                 0.4294
 IR Inten    --      2.2129                 1.6488                 0.7414

                     22                     23                     24
                      A                      A                      A
 Frequencies --    519.3357               543.7484               567.5074
 Red. masses --      4.1431                 3.2505                 2.5735
 Frc consts  --      0.6584                 0.5662                 0.4883
 IR Inten    --      5.8173                 3.5418                 4.9872

                     25                     26                     27
                      A                      A                      A
 Frequencies --    587.5945               690.1604               704.2203
 Red. masses --      2.0326                 3.4584                 2.8171
 Frc consts  --      0.4135                 0.9706                 0.8231
 IR Inten    --      1.4478                 1.4866                14.3113

                     28                     29                     30
                      A                      A                      A
 Frequencies --    716.5133               782.8087               788.0144
 Red. masses --      2.8342                 1.8189                 1.9037
 Frc consts  --      0.8573                 0.6567                 0.6965
 IR Inten    --      2.6631                31.1526                10.0722

                     31                     32                     33
                      A                      A                      A
 Frequencies --    843.9517               849.5659               871.9936
 Red. masses --      1.3848                 1.7958                 1.8132
 Frc consts  --      0.5811                 0.7637                 0.8123
 IR Inten    --      3.8020                75.9144                16.8275

                     34                     35                     36
                      A                      A                      A
 Frequencies --    879.3895               888.3026               922.0661
 Red. masses --      2.0019                 1.9538                 2.3649
 Frc consts  --      0.9121                 0.9084                 1.1847
 IR Inten    --      8.7989                 3.9804                 4.6860

                     37                     38                     39
                      A                      A                      A
 Frequencies --    927.3590               934.0662               940.2174
 Red. masses --      2.6110                 1.8629                 1.7735
 Frc consts  --      1.3230                 0.9576                 0.9237
 IR Inten    --      3.0140                 3.1632                 7.2753

                     40                     41                     42
                      A                      A                      A
 Frequencies --    959.3471               972.3109               973.0230
 Red. masses --      2.3913                 2.0513                 2.3441
 Frc consts  --      1.2967                 1.1426                 1.3076
 IR Inten    --     12.0825                 4.0587                 3.2559

                     43                     44                     45
                      A                      A                      A
 Frequencies --   1003.9490              1014.7676              1019.5354
 Red. masses --      2.1664                 1.9479                 1.9543
 Frc consts  --      1.2865                 1.1818                 1.1968
 IR Inten    --      4.2625                17.7301                17.6370

                     46                     47                     48
                      A                      A                      A
 Frequencies --   1041.0642              1056.0924              1066.8806
 Red. masses --      2.2346                 1.8495                 2.0907
 Frc consts  --      1.4270                 1.2154                 1.4021
 IR Inten    --      2.8778                 3.8715                 1.1560

                     49                     50                     51
                      A                      A                      A
 Frequencies --   1092.5160              1119.7647              1136.4219
 Red. masses --      2.2304                 2.9039                 2.1209
 Frc consts  --      1.5685                 2.1453                 1.6138
 IR Inten    --     33.2237                68.1842                34.3513

                     52                     53                     54
                      A                      A                      A
 Frequencies --   1155.7933              1177.4184              1185.4229
 Red. masses --      1.6540                 3.0985                 1.9473
 Frc consts  --      1.3018                 2.5308                 1.6122
 IR Inten    --      8.0786                42.9619                 3.3605

                     55                     56                     57
                      A                      A                      A
 Frequencies --   1190.1263              1196.0778              1206.0574
 Red. masses --      2.0941                 1.4967                 1.3960
 Frc consts  --      1.7476                 1.2615                 1.1963
 IR Inten    --      1.3935                 4.6000                 5.0832

                     58                     59                     60
                      A                      A                      A
 Frequencies --   1224.7283              1230.2512              1234.3812
 Red. masses --      1.2861                 2.7221                 1.2507
 Frc consts  --      1.1366                 2.4274                 1.1228
 IR Inten    --      3.7635                21.3214                 1.5752

                     61                     62                     63
                      A                      A                      A
 Frequencies --   1252.9784              1264.4716              1282.7086
 Red. masses --      1.2352                 1.2641                 1.2551
 Frc consts  --      1.1425                 1.1908                 1.2167
 IR Inten    --      2.2713                23.5761                 0.2657

                     64                     65                     66
                      A                      A                      A
 Frequencies --   1290.7625              1301.7328              1324.7317
 Red. masses --      1.3806                 1.2789                 1.3454
 Frc consts  --      1.3552                 1.2768                 1.3911
 IR Inten    --      9.7721                 0.6556                 1.9799

                     67                     68                     69
                      A                      A                      A
 Frequencies --   1336.6934              1336.7678              1351.0599
 Red. masses --      1.2805                 1.3228                 1.4090
 Frc consts  --      1.3480                 1.3926                 1.5154
 IR Inten    --      3.6024                 1.1940                81.2597

                     70                     71                     72
                      A                      A                      A
 Frequencies --   1354.7719              1367.6709              1379.9392
 Red. masses --      1.2819                 1.2766                 1.2896
 Frc consts  --      1.3862                 1.4069                 1.4469
 IR Inten    --      7.3025                 0.0992                 5.1756

                     73                     74                     75
                      A                      A                      A
 Frequencies --   1384.2715              1387.6096              1393.3088
 Red. masses --      1.4525                 1.4129                 1.5237
 Frc consts  --      1.6399                 1.6029                 1.7428
 IR Inten    --      1.5234                 6.1618                13.2882

                     76                     77                     78
                      A                      A                      A
 Frequencies --   1407.2870              1433.9931              1444.6797
 Red. masses --      1.3757                 1.4865                 1.3018
 Frc consts  --      1.6053                 1.8010                 1.6008
 IR Inten    --      7.1757                22.2990                 0.2198

                     79                     80                     81
                      A                      A                      A
 Frequencies --   1448.8822              1461.6667              1494.9416
 Red. masses --      1.4768                 3.3698                 1.1377
 Frc consts  --      1.8266                 4.2418                 1.4981
 IR Inten    --     22.5519               212.8527                26.6493

                     82                     83                     84
                      A                      A                      A
 Frequencies --   1519.9691              1521.8552              1527.2088
 Red. masses --      1.0900                 1.1194                 1.1019
 Frc consts  --      1.4837                 1.5276                 1.5142
 IR Inten    --      4.5278                 3.5444                 2.9425

                     85                     86                     87
                      A                      A                      A
 Frequencies --   1527.7111              1535.7139              1540.8552
 Red. masses --      1.0892                 1.0621                 1.0872
 Frc consts  --      1.4978                 1.4758                 1.5208
 IR Inten    --      5.0386                15.9705                 1.7263

                     88                     89                     90
                      A                      A                      A
 Frequencies --   1545.7969              1546.8894              1557.7326
 Red. masses --      1.0846                 1.0941                 1.0963
 Frc consts  --      1.5269                 1.5425                 1.5674
 IR Inten    --      2.0301                 7.9825                 4.6116

                     91                     92                     93
                      A                      A                      A
 Frequencies --   1559.0331              1561.8908              1745.2443
 Red. masses --      1.0971                 1.0959                10.5231
 Frc consts  --      1.5711                 1.5751                18.8845
 IR Inten    --      9.0521                 2.9248               345.0011

                     94                     95                     96
                      A                      A                      A
 Frequencies --   2937.7150              2996.8722              3018.4875
 Red. masses --      1.0828                 1.0643                 1.0699
 Frc consts  --      5.5057                 5.6316                 5.7435
 IR Inten    --     86.3986                22.3151                40.8294

                     97                     98                     99
                      A                      A                      A
 Frequencies --   3022.2611              3025.9447              3046.1754
 Red. masses --      1.0672                 1.0632                 1.0408
 Frc consts  --      5.7433                 5.7356                 5.6903
 IR Inten    --     46.7016                89.1380                23.6567

                    100                    101                    102
                      A                      A                      A
 Frequencies --   3046.3549              3047.4160              3060.7451
 Red. masses --      1.0689                 1.0953                 1.0650
 Frc consts  --      5.8445                 5.9928                 5.8785
 IR Inten    --     33.5026                29.3494                20.1304

                    103                    104                    105
                      A                      A                      A
 Frequencies --   3061.8431              3062.8483              3068.5839
 Red. masses --      1.0927                 1.0693                 1.0633
 Frc consts  --      6.0354                 5.9101                 5.8989
 IR Inten    --     24.0361                20.5329                21.1041

                    106                    107                    108
                      A                      A                      A
 Frequencies --   3069.6338              3082.3569              3088.9232
 Red. masses --      1.0735                 1.0950                 1.0845
 Frc consts  --      5.9599                 6.1294                 6.0966
 IR Inten    --     41.7610                24.5686                32.8845

                    109                    110                    111
                      A                      A                      A
 Frequencies --   3092.6072              3095.9673              3113.7452
 Red. masses --      1.0928                 1.0982                 1.1055
 Frc consts  --      6.1578                 6.2019                 6.3148
 IR Inten    --     34.0084                10.4924                39.6071

                    112                    113                    114
                      A                      A                      A
 Frequencies --   3116.5848              3120.6461              3120.7954
 Red. masses --      1.1024                 1.1012                 1.0936
 Frc consts  --      6.3090                 6.3182                 6.2752
 IR Inten    --     44.6013                28.0663                22.4511

                    115                    116                    117
                      A                      A                      A
 Frequencies --   3123.6395              3131.0093              3522.5856
 Red. masses --      1.0991                 1.1049                 1.0717
 Frc consts  --      6.3183                 6.3818                 7.8348
 IR Inten    --     23.5777                42.3402                 5.7579

 - Thermochemistry -
 -------------------
 Temperature   298.150 Kelvin.  Pressure   1.00000 Atm.
 Atom     1 has atomic number  6 and mass  12.00000

 Molecular mass:   240.18378 amu.
 Principal axes and moments of inertia in atomic units:
                           1         2         3
     Eigenvalues --  2037.359328829.359379184.78453
           X            0.99997  -0.00694   0.00402
           Y            0.00693   0.99997   0.00183
           Z           -0.00404  -0.00180   0.99999
 This molecule is an asymmetric top.
 Rotational symmetry number  1.
 Warning -- assumption of classical behavior for rotation
           may cause significant error
 Rotational temperatures (Kelvin)      0.04251     0.00981     0.00943
 Rotational constants (GHZ):           0.88582     0.20440     0.19649
 Zero-point vibrational energy     974284.7 (Joules/Mol)
                                  232.85964 (Kcal/Mol)
 Warning -- explicit consideration of  25 degrees of freedom as
           vibrations may cause significant error
 Vibrational temperatures:     32.94    42.80    70.11    96.66   106.79
          (Kelvin)            140.56   156.56   195.45   224.72   258.23
                              282.75   289.20   318.33   344.93   371.53
                              402.93   411.83   481.68   560.11   605.00
                              664.67   747.21   782.33   816.52   845.42
                              992.99  1013.22  1030.90  1126.29  1133.78
                             1214.26  1222.34  1254.60  1265.25  1278.07
                             1326.65  1334.26  1343.91  1352.76  1380.29
                             1398.94  1399.96  1444.46  1460.02  1466.88
                             1497.86  1519.48  1535.00  1571.89  1611.09
                             1635.06  1662.93  1694.04  1705.56  1712.33
                             1720.89  1735.25  1762.11  1770.06  1776.00
                             1802.76  1819.29  1845.53  1857.12  1872.90
                             1905.99  1923.20  1923.31  1943.87  1949.21
                             1967.77  1985.42  1991.66  1996.46  2004.66
                             2024.77  2063.20  2078.57  2084.62  2103.01
                             2150.89  2186.90  2189.61  2197.31  2198.04
                             2209.55  2216.95  2224.06  2225.63  2241.23
                             2243.10  2247.21  2511.02  4226.72  4311.83
                             4342.93  4348.36  4353.66  4382.77  4383.03
                             4384.55  4403.73  4405.31  4406.76  4415.01
                             4416.52  4434.82  4444.27  4449.57  4454.41
                             4479.98  4484.07  4489.91  4490.13  4494.22
                             4504.82  5068.21

 Zero-point correction=                           0.371085 (Hartree/Particle)
 Thermal correction to Energy=                    0.388740
 Thermal correction to Enthalpy=                  0.389684
 Thermal correction to Gibbs Free Energy=         0.323603
 Sum of electronic and zero-point Energies=           -769.485917
 Sum of electronic and thermal Energies=              -769.468262
 Sum of electronic and thermal Enthalpies=            -769.467318
 Sum of electronic and thermal Free Energies=         -769.533399

                     E (Thermal)             CV                S
                      KCal/Mol        Cal/Mol-Kelvin    Cal/Mol-Kelvin
 Total                  243.938             65.857            139.079
 Electronic               0.000              0.000              0.000
 Translational            0.889              2.981             42.330
 Rotational               0.889              2.981             33.468
 Vibrational            242.160             59.896             63.281
 Vibration     1          0.593              1.985              6.366
 Vibration     2          0.594              1.984              5.846
 Vibration     3          0.595              1.978              4.868
 Vibration     4          0.598              1.970              4.234
 Vibration     5          0.599              1.966              4.038
 Vibration     6          0.603              1.951              3.500
 Vibration     7          0.606              1.942              3.290
 Vibration     8          0.614              1.918              2.862
 Vibration     9          0.620              1.896              2.595
 Vibration    10          0.629              1.868              2.334
 Vibration    11          0.636              1.845              2.165
 Vibration    12          0.638              1.838              2.124
 Vibration    13          0.648              1.809              1.949
 Vibration    14          0.657              1.780              1.805
 Vibration    15          0.667              1.749              1.674
 Vibration    16          0.680              1.710              1.533
 Vibration    17          0.684              1.699              1.496
 Vibration    18          0.716              1.606              1.237
 Vibration    19          0.757              1.493              1.003
 Vibration    20          0.783              1.426              0.890
 Vibration    21          0.820              1.334              0.760
 Vibration    22          0.874              1.207              0.612
 Vibration    23          0.899              1.153              0.557
 Vibration    24          0.923              1.102              0.509
 Vibration    25          0.945              1.058              0.471

 Optimization completed.
    -- Stationary point found.
 Normal termination of Gaussian 16 at Fri Dec 11 13:36:44 2020.

 ----------------------------------------------------------------------
 # B3LYP/6-311++G(d,p) empiricaldispersion=gd3bj scf=xqc pop=npa geom=c
 heck
 ----------------------------------------------------------------------

 ---------------------------------------
 CID_105737064_JID_7735_Energie_neutraal
 ---------------------------------------
 Structure from the checkpoint file:  "JID_7735.chk"
 Charge =  0 Multiplicity = 1

 SCF Done:  E(RB3LYP) =  -770.075385514     A.U. after   14 cycles
 Normal termination of Gaussian 16 at Fri Dec 11 13:44:59 2020.

 ----------------------------------------------------------------------
 # B3LYP/6-311++G(d,p) empiricaldispersion=gd3bj scf=xqc pop=npa geom=c
 heck
 ----------------------------------------------------------------------

 -------------------------------------
 CID_105737064_JID_7735_Energie_kation
 -------------------------------------
 Structure from the checkpoint file:  "JID_7735.chk"
 Charge =  1 Multiplicity = 2

 SCF Done:  E(UB3LYP) =  -769.779775827     A.U. after   27 cycles
 Normal termination of Gaussian 16 at Fri Dec 11 14:07:28 2020.
 Gaussian 16:  ES64L-G16RevA.03 25-Dec-2016

 ----------------------------------------------------------------------
 # B3LYP/6-311++G(d,p) empiricaldispersion=gd3bj scf=xqc pop=npa geom=c
 heck
 ----------------------------------------------------------------------

 ------------------------------------
 CID_105737064_JID_7735_Energie_anion
 ------------------------------------
 Structure from the checkpoint file:  "JID_7735.chk"
 Charge = -1 Multiplicity = 2

                         Standard orientation:
 ---------------------------------------------------------------------
 Center     Atomic      Atomic             Coordinates (Angstroms)
 Number     Number       Type             X           Y           Z
 ---------------------------------------------------------------------
      1          6           0        2.802599   -2.692576    0.328243
      2          6           0        2.590361   -1.590135   -0.715228
      3          6           0        3.282496   -0.286118   -0.341444
      4          6           0        2.710394    0.575601    0.807380
      5          6           0        3.423842    1.907457    0.496270
      6          6           0        3.488614    1.923002   -1.046248
      7          8           0        3.242397    0.583868   -1.479369
      8          6           0        1.184214    0.733157    0.780474
      9          7           0        0.504102   -0.342668    1.514031
     10          6           0       -0.937637   -0.182219    1.510931
     11          6           0       -1.583985   -0.519727    0.154905
     12          8           0       -0.970987   -1.163072   -0.698089
     13          7           0       -2.863491   -0.112372   -0.039831
     14          6           0       -3.695403    0.636224    0.909049
     15          6           0       -5.098263    0.545797    0.290441
     16          6           0       -4.812660    0.482890   -1.218759
     17          6           0       -3.559374   -0.396826   -1.302135
     18          1           0        3.868501   -2.920744    0.449972
     19          1           0        2.295688   -3.615411    0.027472
     20          1           0        2.418158   -2.407477    1.314484
     21          1           0        3.010063   -1.913357   -1.675432
     22          1           0        1.523788   -1.414216   -0.892086
     23          1           0        4.336917   -0.511505   -0.094015
     24          1           0        2.999763    0.186142    1.789139
     25          1           0        2.902728    2.778295    0.906193
     26          1           0        4.433273    1.896836    0.921065
     27          1           0        2.720332    2.568410   -1.489194
     28          1           0        4.467811    2.263523   -1.410636
     29          1           0        0.920998    1.670460    1.288224
     30          1           0        0.842434    0.822859   -0.263736
     31          1           0        0.695474   -1.221759    1.038233
     32          1           0       -1.381484   -0.847603    2.266551
     33          1           0       -1.186555    0.840915    1.816414
     34          1           0       -3.362748    1.681794    0.983202
     35          1           0       -3.650896    0.199135    1.911739
     36          1           0       -5.587942   -0.378533    0.618410
     37          1           0       -5.735159    1.386140    0.580211
     38          1           0       -5.647573    0.078455   -1.797352
     39          1           0       -4.592815    1.486738   -1.601095
     40          1           0       -3.809566   -1.464049   -1.362419
     41          1           0       -2.907936   -0.165300   -2.148354
 ---------------------------------------------------------------------

 SCF Done:  E(UB3LYP) =  -770.065624271     A.U. after   33 cycles
 SCF Done:  E(UB3LYP) =  -770.065624271     a.u. after    1 cycles

 The electronic state is 2-A.
 Alpha  occ. eigenvalues --  -19.03094 -18.98808 -14.24164 -14.20342 -10.16743
 Alpha  occ. eigenvalues --  -10.13021 -10.12784 -10.10858 -10.10517 -10.10471
 Alpha  occ. eigenvalues --  -10.09525 -10.08680 -10.08611 -10.07909 -10.07681
 Alpha  occ. eigenvalues --  -10.07570 -10.07484  -0.94951  -0.93971  -0.84666
 Alpha  occ. eigenvalues --   -0.81481  -0.71415  -0.69846  -0.69596  -0.64752
 Alpha  occ. eigenvalues --   -0.63726  -0.61265  -0.56671  -0.53866  -0.52882
 Alpha  occ. eigenvalues --   -0.50394  -0.49729  -0.46900  -0.45381  -0.42984
 Alpha  occ. eigenvalues --   -0.41305  -0.40222  -0.39721  -0.37813  -0.37246
 Alpha  occ. eigenvalues --   -0.36526  -0.35382  -0.34188  -0.33552  -0.33378
 Alpha  occ. eigenvalues --   -0.32608  -0.32282  -0.31145  -0.30486  -0.29770
 Alpha  occ. eigenvalues --   -0.28618  -0.27597  -0.27082  -0.26371  -0.26242
 Alpha  occ. eigenvalues --   -0.25869  -0.25596  -0.25146  -0.24199  -0.23901
 Alpha  occ. eigenvalues --   -0.23270  -0.22581  -0.16834  -0.16482  -0.14564
 Alpha  occ. eigenvalues --   -0.13763   0.04016
 Alpha virt. eigenvalues --    0.05463   0.06622   0.07179   0.07545   0.07947
 Alpha virt. eigenvalues --    0.08154   0.09061   0.09232   0.09815   0.10060
 Alpha virt. eigenvalues --    0.10457   0.10776   0.10978   0.11401   0.11881

  Beta  occ. eigenvalues --  -19.03093 -18.98806 -14.24166 -14.20339 -10.16742
  Beta  occ. eigenvalues --  -10.13017 -10.12775 -10.10818 -10.10499 -10.10456
  Beta  occ. eigenvalues --  -10.09513 -10.08678 -10.08598 -10.07906 -10.07653
  Beta  occ. eigenvalues --  -10.07529 -10.07483  -0.94948  -0.93965  -0.84650
  Beta  occ. eigenvalues --   -0.81472  -0.71403  -0.69814  -0.69583  -0.64695
  Beta  occ. eigenvalues --   -0.63704  -0.61235  -0.56641  -0.53841  -0.52838
  Beta  occ. eigenvalues --   -0.50363  -0.49627  -0.46886  -0.45321  -0.42968
  Beta  occ. eigenvalues --   -0.41276  -0.40193  -0.39704  -0.37797  -0.37226
  Beta  occ. eigenvalues --   -0.36510  -0.35358  -0.34161  -0.33508  -0.33363
  Beta  occ. eigenvalues --   -0.32588  -0.32255  -0.31095  -0.30461  -0.29751
  Beta  occ. eigenvalues --   -0.28595  -0.27591  -0.27063  -0.26343  -0.26231
  Beta  occ. eigenvalues --   -0.25822  -0.25536  -0.25124  -0.24187  -0.23850
  Beta  occ. eigenvalues --   -0.23252  -0.22573  -0.16827  -0.16475  -0.14548
  Beta  occ. eigenvalues --   -0.13752
  Beta virt. eigenvalues --    0.05698   0.06629   0.06779   0.07820   0.07977
  Beta virt. eigenvalues --    0.08350   0.08719   0.09327   0.09389   0.09827
  Beta virt. eigenvalues --    0.10359   0.10613   0.11004   0.11339   0.11662

 Mulliken charges and spin densities:
               1          2
     1  C   -0.632671  -0.036674
     2  C   -0.008729   0.009984
     3  C   -0.486535  -0.178711
     4  C   -0.001642   0.794996
     5  C    0.027178  -0.601751
     6  C    0.094562  -0.311955
     7  O   -0.090377   0.007442
     8  C   -0.211698  -0.820460
     9  N    0.090755   0.039778
    10  C   -0.219021  -0.420179
    11  C   -0.649641   0.522778
    12  O   -0.355054   0.007101
    13  N   -0.012882   0.262504
    14  C    0.932137  -1.046897
    15  C    0.766807  -1.247490
    16  C   -0.204368  -0.146957
    17  C    0.492759  -0.625128
    18  H    0.077564   0.040151
    19  H    0.126859   0.024158
    20  H    0.087245   0.045193
    21  H    0.153583   0.027776
    22  H    0.241746   0.010537
    23  H    0.126298   0.044574
    24  H    0.123620   0.094650
    25  H   -0.057207   0.193026
    26  H   -0.084997   0.252224
    27  H    0.023052   0.131077
    28  H    0.016459   0.112359
    29  H   -0.130915   0.305353
    30  H    0.274729  -0.044631
    31  H    0.354275  -0.070586
    32  H   -0.176286   0.398584
    33  H    0.008642   0.179842
    34  H   -0.368471   0.545443
    35  H   -0.285245   0.452635
    36  H   -0.218508   0.378647
    37  H   -0.534439   0.716411
    38  H   -0.314689   0.476025
    39  H   -0.045468   0.192805
    40  H   -0.021977   0.204472
    41  H    0.092551   0.080895
 Sum of Mulliken charges =  -1.00000   1.00000

 Dipole moment (field-independent basis, Debye):
    X=              8.3028    Y=             -2.6061    Z=             -1.1388  Tot=              8.7764
 Quadrupole moment (field-independent basis, Debye-Ang):
   XX=           -211.7033   YY=           -144.9443   ZZ=           -146.0456
   XY=              4.6025   XZ=              7.8441   YZ=             -4.4099

 Summary of Natural Population Analysis:

                                       Natural Population
                Natural  -----------------------------------------------
    Atom  No    Charge         Core      Valence    Rydberg      Total
 -----------------------------------------------------------------------
      C    1   -0.28873      0.99966     2.28482    0.00424     3.28873
      C    2   -0.21119      0.99960     2.20303    0.00855     3.21119
      C    3    0.07257      0.99953     1.91172    0.01617     2.92743
      C    4   -0.12502      0.99957     2.11431    0.01114     3.12502
      C    5   -0.20285      0.99963     2.19533    0.00789     3.20285
      C    6   -0.01192      0.99961     1.99969    0.01263     3.01192
      O    7   -0.30620      0.99989     3.29821    0.00811     4.30620
      C    8   -0.09371      0.99959     2.08175    0.01237     3.09371
      N    9   -0.34030      0.99975     2.82935    0.01120     3.84030
      C   10   -0.12810      0.99960     2.11778    0.01072     3.12810
      C   11    0.33913      0.99964     1.63854    0.02269     2.66087
      O   12   -0.33857      0.99988     3.33334    0.00535     4.33857
      N   13   -0.25422      0.99964     2.74416    0.01042     3.75422
      C   14   -0.08284      0.99962     2.07265    0.01057     3.08284
      C   15   -0.19212      0.99964     2.18412    0.00836     3.19212
      C   16   -0.19610      0.99964     2.18765    0.00881     3.19610
      C   17   -0.08014      0.99963     2.07119    0.00933     3.08014
      H   18    0.09401      0.00000     0.40511    0.00088     0.40599
      H   19    0.10058      0.00000     0.39866    0.00076     0.39942
      H   20    0.09875      0.00000     0.40031    0.00094     0.40125
      H   21    0.10060      0.00000     0.39824    0.00116     0.39940
      H   22    0.11686      0.00000     0.38146    0.00168     0.38314
      H   23    0.07514      0.00000     0.42351    0.00135     0.42486
      H   24    0.10705      0.00000     0.39162    0.00133     0.39295
      H   25    0.10453      0.00000     0.39441    0.00106     0.39547
      H   26    0.09853      0.00000     0.40033    0.00114     0.40147
      H   27    0.08592      0.00000     0.41285    0.00123     0.41408
      H   28    0.08022      0.00000     0.41858    0.00119     0.41978
      H   29    0.09270      0.00000     0.40578    0.00152     0.40730
      H   30    0.09188      0.00000     0.40622    0.00190     0.40812
      H   31    0.17937      0.00000     0.31669    0.00394     0.32063
      H   32    0.10594      0.00000     0.39274    0.00132     0.39406
      H   33    0.10331      0.00000     0.39503    0.00166     0.39669
      H   34    0.09652      0.00000     0.40073    0.00274     0.40348
      H   35    0.10168      0.00000     0.39606    0.00226     0.39832
      H   36    0.09820      0.00000     0.39993    0.00187     0.40180
      H   37    0.10736      0.00000     0.39018    0.00246     0.39264
      H   38    0.10371      0.00000     0.39515    0.00114     0.39629
      H   39    0.09840      0.00000     0.40024    0.00137     0.40160
      H   40    0.09450      0.00000     0.40418    0.00132     0.40550
      H   41    0.10453      0.00000     0.39418    0.00129     0.39547
 =======================================================================
   * Total *   -0.00000     16.99412    48.78982    0.21606    66.00000

 Normal termination of Gaussian 16 at Fri Dec 11 14:32:46 2020.
