 Gaussian 16, Revision A.03,

 -----------------------------------------------------------
 # opt freq B3LYP/6-31G(d) empiricaldispersion=gd3bj scf=xqc
 -----------------------------------------------------------

 ------------------------------
 CID_55092048_JID_7099_neutraal
 ------------------------------
 Symbolic Z-matrix:
 Charge =  0 Multiplicity = 1

 SCF Done:  E(RB3LYP) =  -1107.63324813     A.U. after   14 cycles
 SCF Done:  E(RB3LYP) =  -1107.39092575     A.U. after   15 cycles
 SCF Done:  E(RB3LYP) =  -1107.63483729     A.U. after   13 cycles
 SCF Done:  E(RB3LYP) =  -1107.63721744     A.U. after   11 cycles
 SCF Done:  E(RB3LYP) =  -1107.63857899     A.U. after   12 cycles
 SCF Done:  E(RB3LYP) =  -1107.63914768     A.U. after   12 cycles
 SCF Done:  E(RB3LYP) =  -1107.63872656     A.U. after   14 cycles
 SCF Done:  E(RB3LYP) =  -1107.63937551     A.U. after   11 cycles
 SCF Done:  E(RB3LYP) =  -1107.63947075     A.U. after   11 cycles
 SCF Done:  E(RB3LYP) =  -1107.63955308     A.U. after   11 cycles
 SCF Done:  E(RB3LYP) =  -1107.64051840     A.U. after   10 cycles
 SCF Done:  E(RB3LYP) =  -1107.64053181     A.U. after   10 cycles
 SCF Done:  E(RB3LYP) =  -1107.64053246     A.U. after    8 cycles
 SCF Done:  E(RB3LYP) =  -1107.64053295     A.U. after    8 cycles
 SCF Done:  E(RB3LYP) =  -1107.64053305     A.U. after    8 cycles
 SCF Done:  E(RB3LYP) =  -1107.64053319     A.U. after    8 cycles
 Optimization completed.
    -- Stationary point found.
 Normal termination of Gaussian 16 at Fri Dec 11 12:05:49 2020.

 --------------------------------------------------------------------
 #N Geom=AllCheck Guess=TCheck SCRF=Check GenChk RB3LYP/6-31G(d) Freq
 --------------------------------------------------------------------

 Structure from the checkpoint file:  "JID_7099.chk"
 ------------------------------
 CID_55092048_JID_7099_neutraal
 ------------------------------
 Charge =  0 Multiplicity = 1

 SCF Done:  E(RB3LYP) =  -1107.64053319     A.U. after    1 cycles

  Exact polarizability: 166.742  -9.733 174.191   5.575   3.887 134.258
 Approx polarizability: 215.876 -13.543 254.881  16.750  16.614 228.989

                      1                      2                      3
                      A                      A                      A
 Frequencies --     17.7201                43.0723                44.2630
 Red. masses --      4.9089                 3.4581                 5.5650
 Frc consts  --      0.0009                 0.0038                 0.0064
 IR Inten    --      3.6204                 0.1469                 1.3744

                      4                      5                      6
                      A                      A                      A
 Frequencies --     56.3136                78.4569                93.0190
 Red. masses --      3.8976                 4.2815                 4.3844
 Frc consts  --      0.0073                 0.0155                 0.0224
 IR Inten    --      1.9757                 0.9351                 0.5665

                      7                      8                      9
                      A                      A                      A
 Frequencies --    129.6337               137.7038               182.2850
 Red. masses --      1.1518                 2.8981                 4.6205
 Frc consts  --      0.0114                 0.0324                 0.0905
 IR Inten    --      0.5025                 0.7006                 1.2212

                     10                     11                     12
                      A                      A                      A
 Frequencies --    195.0214               212.2752               229.6275
 Red. masses --      2.8880                 2.6827                 2.6636
 Frc consts  --      0.0647                 0.0712                 0.0827
 IR Inten    --      1.4184                 0.6566                 1.9294

                     13                     14                     15
                      A                      A                      A
 Frequencies --    266.7731               282.9552               306.8606
 Red. masses --      2.7358                 2.6640                 2.2449
 Frc consts  --      0.1147                 0.1257                 0.1245
 IR Inten    --      1.3455                 4.3881                 0.7089

                     16                     17                     18
                      A                      A                      A
 Frequencies --    322.7083               379.7042               386.1325
 Red. masses --      4.4152                 2.1097                 2.3053
 Frc consts  --      0.2709                 0.1792                 0.2025
 IR Inten    --      0.6769                 1.1103                 0.4352

                     19                     20                     21
                      A                      A                      A
 Frequencies --    402.2777               431.2995               476.6230
 Red. masses --      3.7143                 2.5172                 4.7892
 Frc consts  --      0.3541                 0.2759                 0.6410
 IR Inten    --      0.6672                 1.3492                 0.4175

                     22                     23                     24
                      A                      A                      A
 Frequencies --    485.5337               495.2625               513.2501
 Red. masses --      2.7645                 2.2053                 2.3866
 Frc consts  --      0.3840                 0.3187                 0.3704
 IR Inten    --      4.0154                 0.2148                 1.8113

                     25                     26                     27
                      A                      A                      A
 Frequencies --    637.9559               651.8622               667.4689
 Red. masses --      2.2679                 3.8576                 6.6462
 Frc consts  --      0.5438                 0.9658                 1.7445
 IR Inten    --     12.1025                 2.1365                 0.7440

                     28                     29                     30
                      A                      A                      A
 Frequencies --    696.6706               707.4237               783.2182
 Red. masses --      7.9686                 5.3247                 1.6689
 Frc consts  --      2.2787                 1.5700                 0.6032
 IR Inten    --      5.6617                 6.5750                27.4512

                     31                     32                     33
                      A                      A                      A
 Frequencies --    794.0662               805.9405               810.6685
 Red. masses --      1.5196                 1.9018                 2.0061
 Frc consts  --      0.5645                 0.7278                 0.7768
 IR Inten    --      7.8460                 5.6547                22.9562

                     34                     35                     36
                      A                      A                      A
 Frequencies --    856.1662               876.8390               886.9431
 Red. masses --      2.2779                 2.4091                 1.7803
 Frc consts  --      0.9838                 1.0913                 0.8251
 IR Inten    --      1.0215                 1.8847                 0.3184

                     37                     38                     39
                      A                      A                      A
 Frequencies --    907.3565               946.6877               961.2047
 Red. masses --      2.0189                 1.6426                 1.6068
 Frc consts  --      0.9793                 0.8674                 0.8746
 IR Inten    --      3.5416                 3.2940                 3.3248

                     40                     41                     42
                      A                      A                      A
 Frequencies --    963.0566               970.7904              1014.2864
 Red. masses --      4.0694                10.1595                 2.0723
 Frc consts  --      2.2237                 5.6412                 1.2561
 IR Inten    --      9.3271                19.7641                 9.0559

                     43                     44                     45
                      A                      A                      A
 Frequencies --   1017.9762              1041.8899              1049.9326
 Red. masses --      3.0595                 2.1851                 1.7178
 Frc consts  --      1.8680                 1.3975                 1.1157
 IR Inten    --      3.9121                 4.9279                 0.8576

                     46                     47                     48
                      A                      A                      A
 Frequencies --   1052.2635              1073.7581              1083.2109
 Red. masses --      1.9029                 3.4687                 1.5608
 Frc consts  --      1.2414                 2.3563                 1.0790
 IR Inten    --      1.3870                10.2604                14.4833

                     49                     50                     51
                      A                      A                      A
 Frequencies --   1084.6796              1097.7655              1101.7848
 Red. masses --      1.6878                 2.4211                 1.4982
 Frc consts  --      1.1700                 1.7190                 1.0715
 IR Inten    --      6.8197                 2.8479                 0.2001

                     52                     53                     54
                      A                      A                      A
 Frequencies --   1129.0888              1148.1562              1154.4094
 Red. masses --      2.6414                 1.1164                 4.1231
 Frc consts  --      1.9840                 0.8671                 3.2374
 IR Inten    --      8.8829                 7.2079                60.9278

                     55                     56                     57
                      A                      A                      A
 Frequencies --   1178.4950              1190.7498              1222.2477
 Red. masses --      1.4012                 2.2115                 1.3236
 Frc consts  --      1.1466                 1.8475                 1.1650
 IR Inten    --      8.7383                 9.2668                 3.6079

                     58                     59                     60
                      A                      A                      A
 Frequencies --   1242.1962              1287.2225              1305.5674
 Red. masses --      1.3224                 1.2915                 1.2388
 Frc consts  --      1.2023                 1.2608                 1.2441
 IR Inten    --      5.9766                 0.7744                 2.8663

                     61                     62                     63
                      A                      A                      A
 Frequencies --   1309.6440              1315.6510              1330.3534
 Red. masses --      1.2633                 1.2779                 1.7768
 Frc consts  --      1.2767                 1.3033                 1.8528
 IR Inten    --     21.8288                 0.6444                 6.0311

                     64                     65                     66
                      A                      A                      A
 Frequencies --   1346.1968              1365.6426              1372.2372
 Red. masses --      1.9288                 1.4162                 1.3311
 Frc consts  --      2.0594                 1.5561                 1.4768
 IR Inten    --     23.2761                10.2467                 0.7487

                     67                     68                     69
                      A                      A                      A
 Frequencies --   1385.0627              1402.4913              1404.5411
 Red. masses --      1.4741                 1.4134                 1.4263
 Frc consts  --      1.6662                 1.6380                 1.6578
 IR Inten    --     19.5422                 2.5594                 0.0206

                     70                     71                     72
                      A                      A                      A
 Frequencies --   1408.2155              1412.7920              1421.5960
 Red. masses --      1.4078                 1.4124                 1.5005
 Frc consts  --      1.6449                 1.6610                 1.7867
 IR Inten    --      3.4279                 3.6294                 5.7638

                     73                     74                     75
                      A                      A                      A
 Frequencies --   1433.7516              1442.2058              1494.0861
 Red. masses --      1.4028                 1.3267                 1.0943
 Frc consts  --      1.6990                 1.6258                 1.4393
 IR Inten    --     10.0792                 2.9640                 2.8852

                     76                     77                     78
                      A                      A                      A
 Frequencies --   1499.7522              1503.7678              1507.2865
 Red. masses --      1.1126                 1.0487                 1.0877
 Frc consts  --      1.4745                 1.3972                 1.4559
 IR Inten    --      8.2561                 3.6998                 2.8851

                     79                     80                     81
                      A                      A                      A
 Frequencies --   1509.1900              1514.7187              1516.9359
 Red. masses --      1.1085                 1.1037                 1.0903
 Frc consts  --      1.4876                 1.4920                 1.4782
 IR Inten    --      6.8847                 4.7969                 5.0794

                     82                     83                     84
                      A                      A                      A
 Frequencies --   1523.3773              1529.1812              1535.1128
 Red. masses --      1.0896                 7.7538                 1.1369
 Frc consts  --      1.4898                10.6828                 1.5785
 IR Inten    --      9.1876                68.7823                17.5495

                     85                     86                     87
                      A                      A                      A
 Frequencies --   1549.0006              1557.0774              1639.0209
 Red. masses --      1.1930                 1.1029                 7.8165
 Frc consts  --      1.6866                 1.5754                12.3718
 IR Inten    --      8.2388                 7.5076                36.3652

                     88                     89                     90
                      A                      A                      A
 Frequencies --   2922.7252              2971.2513              3017.7289
 Red. masses --      1.0819                 1.0731                 1.0666
 Frc consts  --      5.4451                 5.5818                 5.7227
 IR Inten    --     67.9429                42.1185                40.9860

                     91                     92                     93
                      A                      A                      A
 Frequencies --   3020.6353              3041.6294              3045.9586
 Red. masses --      1.0621                 1.0683                 1.0636
 Frc consts  --      5.7097                 5.8233                 5.8143
 IR Inten    --     49.7541                23.1159                14.9088

                     94                     95                     96
                      A                      A                      A
 Frequencies --   3046.4841              3049.3115              3058.6492
 Red. masses --      1.0629                 1.0646                 1.0985
 Frc consts  --      5.8124                 5.8324                 6.0548
 IR Inten    --     26.5477                38.0246                42.6089

                     97                     98                     99
                      A                      A                      A
 Frequencies --   3071.4564              3072.0752              3079.2403
 Red. masses --      1.0914                 1.0394                 1.0924
 Frc consts  --      6.0663                 5.7793                 6.1024
 IR Inten    --     67.8789                13.1444                14.3691

                    100                    101                    102
                      A                      A                      A
 Frequencies --   3087.1679              3088.4313              3093.3798
 Red. masses --      1.0894                 1.0753                 1.0940
 Frc consts  --      6.1172                 6.0432                 6.1679
 IR Inten    --     48.5054                 7.9424                19.9708

                    103                    104                    105
                      A                      A                      A
 Frequencies --   3097.8245              3099.4179              3134.4850
 Red. masses --      1.1016                 1.0971                 1.0998
 Frc consts  --      6.2286                 6.2094                 6.3665
 IR Inten    --     89.5559                23.4451                 2.2075

                    106                    107                    108
                      A                      A                      A
 Frequencies --   3137.4297              3173.4329              3494.7882
 Red. masses --      1.1046                 1.1016                 1.0726
 Frc consts  --      6.4064                 6.5366                 7.7186
 IR Inten    --     11.4784                 1.0400                 0.8256

 - Thermochemistry -
 -------------------
 Temperature   298.150 Kelvin.  Pressure   1.00000 Atm.
 Atom     1 has atomic number  6 and mass  12.00000

 Molecular mass:   255.14053 amu.
 Principal axes and moments of inertia in atomic units:
                           1         2         3
     Eigenvalues --  2890.343846375.328507986.78958
           X            0.99997  -0.00439  -0.00555
           Y            0.00428   0.99978  -0.02044
           Z            0.00564   0.02042   0.99978
 This molecule is an asymmetric top.
 Rotational symmetry number  1.
 Warning -- assumption of classical behavior for rotation
           may cause significant error
 Rotational temperatures (Kelvin)      0.02997     0.01359     0.01084
 Rotational constants (GHZ):           0.62440     0.28308     0.22597
 Zero-point vibrational energy     870888.3 (Joules/Mol)
                                  208.14731 (Kcal/Mol)
 Warning -- explicit consideration of  24 degrees of freedom as
           vibrations may cause significant error
 Vibrational temperatures:     25.50    61.97    63.68    81.02   112.88
          (Kelvin)            133.83   186.51   198.13   262.27   280.59
                              305.42   330.38   383.83   407.11   441.50
                              464.31   546.31   555.56   578.79   620.54
                              685.75   698.57   712.57   738.45   917.88
                              937.88   960.34  1002.35  1017.82  1126.88
                             1142.48  1159.57  1166.37  1231.83  1261.58
                             1276.11  1305.48  1362.07  1382.96  1385.62
                             1396.75  1459.33  1464.64  1499.05  1510.62
                             1513.97  1544.90  1558.50  1560.61  1579.44
                             1585.22  1624.51  1651.94  1660.94  1695.59
                             1713.22  1758.54  1787.24  1852.03  1878.42
                             1884.29  1892.93  1914.08  1936.88  1964.86
                             1974.34  1992.80  2017.87  2020.82  2026.11
                             2032.69  2045.36  2062.85  2075.01  2149.66
                             2157.81  2163.59  2168.65  2171.39  2179.34
                             2182.53  2191.80  2200.15  2208.68  2228.67
                             2240.29  2358.19  4205.15  4274.97  4341.84
                             4346.02  4376.23  4382.46  4383.21  4387.28
                             4400.71  4419.14  4420.03  4430.34  4441.75
                             4443.56  4450.68  4457.08  4459.37  4509.82
                             4514.06  4565.86  5028.22

 Zero-point correction=                           0.331704 (Hartree/Particle)
 Thermal correction to Energy=                    0.348868
 Thermal correction to Enthalpy=                  0.349812
 Thermal correction to Gibbs Free Energy=         0.284870
 Sum of electronic and zero-point Energies=          -1107.308829
 Sum of electronic and thermal Energies=             -1107.291665
 Sum of electronic and thermal Enthalpies=           -1107.290721
 Sum of electronic and thermal Free Energies=        -1107.355663

                     E (Thermal)             CV                S
                      KCal/Mol        Cal/Mol-Kelvin    Cal/Mol-Kelvin
 Total                  218.918             64.937            136.682
 Electronic               0.000              0.000              0.000
 Translational            0.889              2.981             42.510
 Rotational               0.889              2.981             33.353
 Vibrational            217.141             58.975             60.819
 Vibration     1          0.593              1.986              6.875
 Vibration     2          0.595              1.980              5.113
 Vibration     3          0.595              1.980              5.059
 Vibration     4          0.596              1.975              4.582
 Vibration     5          0.600              1.964              3.929
 Vibration     6          0.602              1.954              3.596
 Vibration     7          0.612              1.924              2.951
 Vibration     8          0.614              1.916              2.836
 Vibration     9          0.630              1.864              2.305
 Vibration    10          0.636              1.847              2.180
 Vibration    11          0.643              1.822              2.024
 Vibration    12          0.652              1.796              1.882
 Vibration    13          0.672              1.734              1.617
 Vibration    14          0.682              1.705              1.516
 Vibration    15          0.697              1.661              1.379
 Vibration    16          0.708              1.630              1.296
 Vibration    17          0.750              1.513              1.040
 Vibration    18          0.755              1.500              1.015
 Vibration    19          0.768              1.465              0.954
 Vibration    20          0.792              1.402              0.854
 Vibration    21          0.833              1.302              0.719
 Vibration    22          0.842              1.282              0.695
 Vibration    23          0.851              1.261              0.670
 Vibration    24          0.868              1.221              0.626

 Optimization completed.
    -- Stationary point found.
 Normal termination of Gaussian 16 at Fri Dec 11 12:21:25 2020.

 ----------------------------------------------------------------------
 # B3LYP/6-311++G(d,p) empiricaldispersion=gd3bj scf=xqc pop=npa geom=c
 heck
 ----------------------------------------------------------------------

 --------------------------------------
 CID_55092048_JID_7099_Energie_neutraal
 --------------------------------------
 Structure from the checkpoint file:  "JID_7099.chk"
 Charge =  0 Multiplicity = 1

 SCF Done:  E(RB3LYP) =  -1107.86131157     A.U. after   15 cycles
 Normal termination of Gaussian 16 at Fri Dec 11 12:28:27 2020.

 ----------------------------------------------------------------------
 # B3LYP/6-311++G(d,p) empiricaldispersion=gd3bj scf=xqc pop=npa geom=c
 heck
 ----------------------------------------------------------------------

 ------------------------------------
 CID_55092048_JID_7099_Energie_kation
 ------------------------------------
 Structure from the checkpoint file:  "JID_7099.chk"
 Charge =  1 Multiplicity = 2

 SCF Done:  E(UB3LYP) =  -1107.56012560     A.U. after   27 cycles
 Normal termination of Gaussian 16 at Fri Dec 11 12:53:27 2020.
 Gaussian 16:  ES64L-G16RevA.03 25-Dec-2016

 ----------------------------------------------------------------------
 # B3LYP/6-311++G(d,p) empiricaldispersion=gd3bj scf=xqc pop=npa geom=c
 heck
 ----------------------------------------------------------------------

 -----------------------------------
 CID_55092048_JID_7099_Energie_anion
 -----------------------------------
 Structure from the checkpoint file:  "JID_7099.chk"
 Charge = -1 Multiplicity = 2

                         Standard orientation:
 ---------------------------------------------------------------------
 Center     Atomic      Atomic             Coordinates (Angstroms)
 Number     Number       Type             X           Y           Z
 ---------------------------------------------------------------------
      1          6           0        0.920823    3.226696   -0.695305
      2          6           0        1.665512    2.133042   -0.026018
      3          7           0        2.209473    2.123928    1.148039
      4          7           0        2.787220    0.857281    1.319039
      5          6           0        2.563096    0.204705    0.221510
      6          8           0        1.850270    0.945362   -0.691841
      7         16           0        3.183894   -1.372615   -0.205293
      8          6           0        1.737824   -2.132648   -1.065667
      9          6           0        0.643943   -2.669772   -0.137991
     10          6           0       -0.138545   -1.617336    0.649416
     11          7           0       -0.933890   -0.777483   -0.241334
     12          6           0       -1.588527    0.371091    0.399524
     13          6           0       -2.313114    1.179506   -0.690600
     14          6           0       -3.486257    0.403350   -1.306568
     15          6           0       -4.473379   -0.065893   -0.229660
     16          6           0       -3.761272   -0.876576    0.861607
     17          6           0       -2.602301   -0.075293    1.466755
     18          1           0        0.928856    4.100098   -0.040913
     19          1           0        1.387616    3.488482   -1.650891
     20          1           0       -0.116258    2.938541   -0.891380
     21          1           0        1.361408   -1.418120   -1.802134
     22          1           0        2.191454   -2.954371   -1.628229
     23          1           0       -0.066460   -3.232196   -0.758603
     24          1           0        1.097912   -3.376665    0.565220
     25          1           0       -0.819272   -2.147613    1.323546
     26          1           0        0.546435   -1.038181    1.294649
     27          1           0       -0.325596   -0.401477   -0.966090
     28          1           0       -0.843616    1.022649    0.896703
     29          1           0       -2.677401    2.116067   -0.246341
     30          1           0       -1.600598    1.461023   -1.479359
     31          1           0       -3.090078   -0.470157   -1.836831
     32          1           0       -3.998525    1.029627   -2.047611
     33          1           0       -5.275573   -0.659405   -0.685562
     34          1           0       -4.953631    0.811244    0.229616
     35          1           0       -3.369909   -1.804566    0.426886
     36          1           0       -4.470339   -1.161355    1.648691
     37          1           0       -2.102471   -0.646406    2.256865
     38          1           0       -2.994843    0.830396    1.948965
 ---------------------------------------------------------------------

 SCF Done:  E(UB3LYP) =  -1107.85425657     A.U. after   32 cycles

 The electronic state is 2-A.
 Alpha  occ. eigenvalues --  -88.76620 -19.10889 -14.23765 -14.23405 -14.19989
 Alpha  occ. eigenvalues --  -10.18065 -10.17046 -10.10922 -10.10372 -10.09743
 Alpha  occ. eigenvalues --  -10.09382 -10.08222 -10.07428 -10.07400 -10.07359
 Alpha  occ. eigenvalues --  -10.07297 -10.06919  -7.85176  -5.81593  -5.81185
 Alpha  occ. eigenvalues --   -5.80553  -1.05686  -0.87931  -0.81917  -0.76360
 Alpha  occ. eigenvalues --   -0.73273  -0.70964  -0.66393  -0.65194  -0.64299
 Alpha  occ. eigenvalues --   -0.62470  -0.57640  -0.53368  -0.52154  -0.51229
 Alpha  occ. eigenvalues --   -0.49868  -0.47884  -0.45548  -0.41568  -0.40930
 Alpha  occ. eigenvalues --   -0.39458  -0.38791  -0.37959  -0.36399  -0.35434
 Alpha  occ. eigenvalues --   -0.34949  -0.33791  -0.33435  -0.33020  -0.32867
 Alpha  occ. eigenvalues --   -0.31603  -0.30001  -0.29287  -0.29010  -0.28136
 Alpha  occ. eigenvalues --   -0.27585  -0.26394  -0.25235  -0.24979  -0.24692
 Alpha  occ. eigenvalues --   -0.24003  -0.23251  -0.22392  -0.21536  -0.20956
 Alpha  occ. eigenvalues --   -0.19439  -0.18518  -0.13956  -0.13443   0.03932
 Alpha virt. eigenvalues --    0.05790   0.06356   0.07162   0.07477   0.07842
 Alpha virt. eigenvalues --    0.08650   0.09035   0.09596   0.10158   0.10301
 Alpha virt. eigenvalues --    0.10897   0.11151   0.11507   0.11660   0.12083

  Beta  occ. eigenvalues --  -88.76614 -19.10799 -14.23784 -14.23363 -14.19975
  Beta  occ. eigenvalues --  -10.17961 -10.16969 -10.10825 -10.10368 -10.09739
  Beta  occ. eigenvalues --  -10.09349 -10.08208 -10.07417 -10.07395 -10.07347
  Beta  occ. eigenvalues --  -10.07289 -10.06909  -7.85170  -5.81568  -5.81185
  Beta  occ. eigenvalues --   -5.80548  -1.05547  -0.87853  -0.81900  -0.76215
  Beta  occ. eigenvalues --   -0.73246  -0.70874  -0.66320  -0.65169  -0.64242
  Beta  occ. eigenvalues --   -0.62423  -0.57536  -0.53272  -0.52112  -0.51178
  Beta  occ. eigenvalues --   -0.49779  -0.47784  -0.45516  -0.41373  -0.40845
  Beta  occ. eigenvalues --   -0.39385  -0.38675  -0.37910  -0.36374  -0.35346
  Beta  occ. eigenvalues --   -0.34914  -0.33692  -0.33358  -0.32952  -0.32779
  Beta  occ. eigenvalues --   -0.31532  -0.29959  -0.29239  -0.28984  -0.28102
  Beta  occ. eigenvalues --   -0.27530  -0.26353  -0.25181  -0.24730  -0.24662
  Beta  occ. eigenvalues --   -0.23829  -0.23227  -0.22362  -0.21505  -0.20935
  Beta  occ. eigenvalues --   -0.19217  -0.18461  -0.13795  -0.13403
  Beta virt. eigenvalues --    0.05894   0.06874   0.06969   0.07592   0.07883
  Beta virt. eigenvalues --    0.08305   0.09042   0.09329   0.09842   0.10211
  Beta virt. eigenvalues --    0.10557   0.11104   0.11413   0.11724   0.11870

 Mulliken charges and spin densities:
               1          2
     1  C    0.855941  -1.335740
     2  C   -0.570365   0.779660
     3  N   -0.069537  -0.030341
     4  N    0.105948   0.040655
     5  C   -0.264320  -0.024821
     6  O    0.175581   0.031465
     7  S   -0.302609  -0.005856
     8  C    0.264457  -0.453368
     9  C    0.309950  -0.938963
    10  C   -0.223981  -0.054192
    11  N    0.156677   0.052903
    12  C    0.498855  -0.609886
    13  C   -0.526707   0.205876
    14  C   -0.250277  -0.023922
    15  C    0.216427  -0.732257
    16  C   -0.233612   0.025323
    17  C   -0.720694   0.207237
    18  H    0.011779   0.166379
    19  H   -0.397373   0.582929
    20  H    0.033529   0.114518
    21  H   -0.334643   0.554689
    22  H   -0.908438   1.187469
    23  H    0.081569   0.068195
    24  H   -0.024100   0.180634
    25  H    0.166117  -0.020404
    26  H    0.167560   0.012521
    27  H    0.845195  -0.698595
    28  H    0.333428  -0.155404
    29  H   -0.098953   0.249346
    30  H   -0.301185   0.443127
    31  H   -0.050550   0.191347
    32  H   -0.171866   0.344104
    33  H    0.031782   0.134571
    34  H    0.035515   0.079336
    35  H    0.078216   0.046606
    36  H   -0.006864   0.165028
    37  H    0.075916   0.086841
    38  H    0.011633   0.132990
 Sum of Mulliken charges =  -1.00000   1.00000

 Dipole moment (field-independent basis, Debye):
    X=             -3.2667    Y=             -0.4732    Z=              2.7847  Tot=              4.3185
 Quadrupole moment (field-independent basis, Debye-Ang):
   XX=           -181.1037   YY=           -164.2905   ZZ=           -155.0014
   XY=              5.1934   XZ=             -3.4128   YZ=             -5.7518

 Summary of Natural Population Analysis:

                                       Natural Population
                Natural  -----------------------------------------------
    Atom  No    Charge         Core      Valence    Rydberg      Total
 -----------------------------------------------------------------------
      C    1   -0.31496      0.99961     2.30965    0.00570     3.31496
      C    2    0.26590      0.99960     1.71455    0.01995     2.73410
      N    3   -0.17197      0.99966     2.66140    0.01091     3.67197
      N    4   -0.16868      0.99964     2.65445    0.01458     3.66868
      C    5    0.17270      0.99957     1.80340    0.02433     2.82730
      O    6   -0.24827      0.99985     3.23864    0.00978     4.24827
      S    7    0.13699      4.99950     2.84372    0.01979     7.86301
      C    8   -0.24236      0.99957     2.23031    0.01247     3.24236
      C    9   -0.19810      0.99961     2.18800    0.01049     3.19810
      C   10   -0.09104      0.99962     2.08115    0.01027     3.09104
      N   11   -0.34984      0.99972     2.83972    0.01040     3.84984
      C   12   -0.00889      0.99959     1.99729    0.01200     3.00889
      C   13   -0.19260      0.99961     2.18248    0.01050     3.19260
      C   14   -0.19220      0.99962     2.18360    0.00897     3.19220
      C   15   -0.18707      0.99963     2.18043    0.00701     3.18707
      C   16   -0.19251      0.99963     2.18531    0.00757     3.19251
      C   17   -0.19236      0.99961     2.18531    0.00744     3.19236
      H   18    0.11515      0.00000     0.38372    0.00113     0.38485
      H   19    0.11488      0.00000     0.38292    0.00221     0.38512
      H   20    0.11305      0.00000     0.38560    0.00135     0.38695
      H   21    0.10583      0.00000     0.39221    0.00197     0.39417
      H   22    0.11365      0.00000     0.38286    0.00349     0.38635
      H   23    0.10364      0.00000     0.39502    0.00134     0.39636
      H   24    0.10122      0.00000     0.39780    0.00099     0.39878
      H   25    0.09219      0.00000     0.40668    0.00113     0.40781
      H   26    0.08657      0.00000     0.41145    0.00198     0.41343
      H   27    0.17448      0.00000     0.32102    0.00450     0.32552
      H   28    0.08509      0.00000     0.41271    0.00220     0.41491
      H   29    0.09639      0.00000     0.40240    0.00121     0.40361
      H   30    0.09801      0.00000     0.40052    0.00147     0.40199
      H   31    0.10152      0.00000     0.39695    0.00152     0.39848
      H   32    0.09683      0.00000     0.40221    0.00097     0.40317
      H   33    0.09622      0.00000     0.40279    0.00099     0.40378
      H   34    0.08976      0.00000     0.40896    0.00128     0.41024
      H   35    0.09975      0.00000     0.39881    0.00144     0.40025
      H   36    0.09456      0.00000     0.40440    0.00104     0.40544
      H   37    0.09971      0.00000     0.39935    0.00094     0.40029
      H   38    0.09676      0.00000     0.40218    0.00106     0.40324
 =======================================================================
   * Total *    0.00000     20.99365    47.76999    0.23636    69.00000

 Normal termination of Gaussian 16 at Fri Dec 11 13:13:36 2020.
