 Gaussian 16, Revision A.03,

 -----------------------------------------------------------
 # opt freq B3LYP/6-31G(d) empiricaldispersion=gd3bj scf=xqc
 -----------------------------------------------------------

 ------------------------------
 CID_17767463_JID_1776_neutraal
 ------------------------------
 Symbolic Z-matrix:
 Charge =  0 Multiplicity = 1

 SCF Done:  E(RB3LYP) =  -519.142802141     A.U. after   14 cycles
 SCF Done:  E(RB3LYP) =  -519.145537767     A.U. after   12 cycles
 SCF Done:  E(RB3LYP) =  -519.145678607     A.U. after   12 cycles
 SCF Done:  E(RB3LYP) =  -519.145894294     A.U. after   10 cycles
 SCF Done:  E(RB3LYP) =  -519.145938901     A.U. after   10 cycles
 SCF Done:  E(RB3LYP) =  -519.145950909     A.U. after   11 cycles
 SCF Done:  E(RB3LYP) =  -519.145977274     A.U. after   10 cycles
 SCF Done:  E(RB3LYP) =  -519.145984250     A.U. after    9 cycles
 SCF Done:  E(RB3LYP) =  -519.145985855     A.U. after    8 cycles
 SCF Done:  E(RB3LYP) =  -519.145987556     A.U. after    8 cycles
 SCF Done:  E(RB3LYP) =  -519.145988748     A.U. after    8 cycles
 SCF Done:  E(RB3LYP) =  -519.145989799     A.U. after    8 cycles
 SCF Done:  E(RB3LYP) =  -519.145990318     A.U. after    8 cycles
 SCF Done:  E(RB3LYP) =  -519.145990648     A.U. after    7 cycles
 SCF Done:  E(RB3LYP) =  -519.145990780     A.U. after    7 cycles
 Optimization completed.
    -- Stationary point found.
 Normal termination of Gaussian 16 at Tue Dec  8 21:04:18 2020.

 --------------------------------------------------------------------
 #N Geom=AllCheck Guess=TCheck SCRF=Check GenChk RB3LYP/6-31G(d) Freq
 --------------------------------------------------------------------

 Structure from the checkpoint file:  "JID_1776.chk"
 ------------------------------
 CID_17767463_JID_1776_neutraal
 ------------------------------
 Charge =  0 Multiplicity = 1

 SCF Done:  E(RB3LYP) =  -519.145990780     A.U. after    1 cycles

  Exact polarizability: 108.440   2.837  93.243   2.974   0.766  76.530
 Approx polarizability: 141.991   7.555 133.000   7.866   1.451 112.946

                      1                      2                      3
                      A                      A                      A
 Frequencies --     45.8701                64.0536                77.6222
 Red. masses --      3.9534                 3.4696                 3.2323
 Frc consts  --      0.0049                 0.0084                 0.0115
 IR Inten    --      4.3736                 1.6112                 0.2534

                      4                      5                      6
                      A                      A                      A
 Frequencies --    105.1545               153.8947               176.8741
 Red. masses --      1.6553                 1.7299                 2.0148
 Frc consts  --      0.0108                 0.0241                 0.0371
 IR Inten    --      1.1777                 0.0783                 2.5414

                      7                      8                      9
                      A                      A                      A
 Frequencies --    183.7684               204.6015               267.4333
 Red. masses --      2.7252                 2.4046                 1.4610
 Frc consts  --      0.0542                 0.0593                 0.0616
 IR Inten    --      1.4109                 0.2004                 0.3557

                     10                     11                     12
                      A                      A                      A
 Frequencies --    290.1306               325.7259               374.6542
 Red. masses --      2.2854                 2.6943                 2.3240
 Frc consts  --      0.1133                 0.1684                 0.1922
 IR Inten    --      0.6097                 4.8236                 1.0589

                     13                     14                     15
                      A                      A                      A
 Frequencies --    436.7366               494.9545               561.3993
 Red. masses --      2.1473                 3.2226                 3.5304
 Frc consts  --      0.2413                 0.4651                 0.6556
 IR Inten    --      2.7519                 1.6414                 1.5331

                     16                     17                     18
                      A                      A                      A
 Frequencies --    653.8100               717.6023               732.5496
 Red. masses --      4.7829                 2.3747                 2.8759
 Frc consts  --      1.2046                 0.7205                 0.9093
 IR Inten    --     12.5795                 5.2274                 6.5047

                     19                     20                     21
                      A                      A                      A
 Frequencies --    752.7129               789.6448               830.4513
 Red. masses --      9.4688                 1.6979                 2.6051
 Frc consts  --      3.1608                 0.6238                 1.0585
 IR Inten    --     20.5134                 2.8181                 0.3949

                     22                     23                     24
                      A                      A                      A
 Frequencies --    857.9792               921.0326               960.3772
 Red. masses --      2.1741                 1.5020                 1.9941
 Frc consts  --      0.9429                 0.7507                 1.0836
 IR Inten    --      1.0346                 3.5917                 1.4782

                     25                     26                     27
                      A                      A                      A
 Frequencies --    984.8991              1026.9215              1032.8631
 Red. masses --      2.2796                 1.7272                 1.9523
 Frc consts  --      1.3028                 1.0732                 1.2271
 IR Inten    --      5.6122                 0.7062                26.7944

                     28                     29                     30
                      A                      A                      A
 Frequencies --   1076.1091              1091.5313              1103.1669
 Red. masses --      1.6514                 3.9172                 2.2684
 Frc consts  --      1.1267                 2.7498                 1.6265
 IR Inten    --     29.1669                54.8984                 1.2581

                     31                     32                     33
                      A                      A                      A
 Frequencies --   1134.2138              1145.8526              1166.7106
 Red. masses --      2.4811                 1.9305                 1.8812
 Frc consts  --      1.8805                 1.4934                 1.5087
 IR Inten    --    122.0763                11.3285                16.0323

                     34                     35                     36
                      A                      A                      A
 Frequencies --   1170.8933              1232.4674              1256.7159
 Red. masses --      1.3784                 1.2712                 1.2497
 Frc consts  --      1.1134                 1.1376                 1.1628
 IR Inten    --      1.8559                12.3651                 4.2361

                     37                     38                     39
                      A                      A                      A
 Frequencies --   1276.1602              1286.2657              1311.6454
 Red. masses --      1.7037                 1.3912                 2.9033
 Frc consts  --      1.6348                 1.3561                 2.9429
 IR Inten    --     62.4502                 2.6169                20.3157

                     40                     41                     42
                      A                      A                      A
 Frequencies --   1332.9130              1369.9241              1397.9369
 Red. masses --      1.1973                 1.3606                 1.5483
 Frc consts  --      1.2533                 1.5045                 1.7827
 IR Inten    --      4.2809                39.2669                 4.0443

                     43                     44                     45
                      A                      A                      A
 Frequencies --   1400.5883              1406.8135              1430.9149
 Red. masses --      1.4089                 1.4344                 1.4284
 Frc consts  --      1.6284                 1.6726                 1.7232
 IR Inten    --      4.9054                 0.6513                 4.3974

                     46                     47                     48
                      A                      A                      A
 Frequencies --   1444.7869              1450.9631              1477.9956
 Red. masses --      1.2636                 1.7700                 1.3417
 Frc consts  --      1.5541                 2.1955                 1.7268
 IR Inten    --      4.4501                99.8509                72.4939

                     49                     50                     51
                      A                      A                      A
 Frequencies --   1507.9416              1516.0575              1524.6417
 Red. masses --      1.0823                 1.0782                 1.0562
 Frc consts  --      1.4500                 1.4601                 1.4465
 IR Inten    --      0.8580                 3.2191                 0.8704

                     52                     53                     54
                      A                      A                      A
 Frequencies --   1530.5399              1537.4099              1540.6835
 Red. masses --      1.0601                 1.0609                 1.0761
 Frc consts  --      1.4632                 1.4775                 1.5050
 IR Inten    --      4.6562                15.7522                 2.0241

                     55                     56                     57
                      A                      A                      A
 Frequencies --   1547.2133              1551.9774              1876.5648
 Red. masses --      1.0837                 1.1171                11.8299
 Frc consts  --      1.5284                 1.5853                24.5447
 IR Inten    --      1.5040                13.0502               573.7069

                     58                     59                     60
                      A                      A                      A
 Frequencies --   3032.5943              3039.9300              3041.0764
 Red. masses --      1.0630                 1.0541                 1.0589
 Frc consts  --      5.7600                 5.7391                 5.7696
 IR Inten    --     13.4049                36.3337                11.5618

                     61                     62                     63
                      A                      A                      A
 Frequencies --   3042.9306              3047.3586              3050.0230
 Red. masses --      1.0544                 1.0416                 1.0783
 Frc consts  --      5.7525                 5.6991                 5.9098
 IR Inten    --     23.9265                26.3800                34.4445

                     64                     65                     66
                      A                      A                      A
 Frequencies --   3064.4577              3070.9929              3077.1375
 Red. masses --      1.0732                 1.0972                 1.0976
 Frc consts  --      5.9380                 6.0968                 6.1233
 IR Inten    --     33.5572                16.6982                48.5285

                     67                     68                     69
                      A                      A                      A
 Frequencies --   3089.3183              3103.4932              3110.8818
 Red. masses --      1.1000                 1.0972                 1.1023
 Frc consts  --      6.1856                 6.2265                 6.2853
 IR Inten    --     66.0950                39.8774                64.1326

                     70                     71                     72
                      A                      A                      A
 Frequencies --   3117.0972              3136.0458              3164.4128
 Red. masses --      1.1016                 1.1025                 1.0995
 Frc consts  --      6.3062                 6.3887                 6.4871
 IR Inten    --     38.4250                25.7613                 2.1823

 - Thermochemistry -
 -------------------
 Temperature   298.150 Kelvin.  Pressure   1.00000 Atm.
 Atom     1 has atomic number  6 and mass  12.00000

 Molecular mass:   157.11028 amu.
 Principal axes and moments of inertia in atomic units:
                           1         2         3
     Eigenvalues --   854.339652773.921653208.38770
           X            1.00000   0.00087  -0.00215
           Y           -0.00088   0.99999  -0.00528
           Z            0.00215   0.00528   0.99998
 This molecule is an asymmetric top.
 Rotational symmetry number  1.
 Warning -- assumption of classical behavior for rotation
           may cause significant error
 Rotational temperatures (Kelvin)      0.10138     0.03122     0.02700
 Rotational constants (GHZ):           2.11244     0.65061     0.56251
 Zero-point vibrational energy     605962.8 (Joules/Mol)
                                  144.82858 (Kcal/Mol)
 Warning -- explicit consideration of  15 degrees of freedom as
           vibrations may cause significant error
 Vibrational temperatures:     66.00    92.16   111.68   151.29   221.42
          (Kelvin)            254.48   264.40   294.38   384.78   417.43
                              468.65   539.04   628.37   712.13   807.73
                              940.69  1032.47  1053.98  1082.99  1136.12
                             1194.83  1234.44  1325.16  1381.77  1417.05
                             1477.51  1486.06  1548.28  1570.47  1587.21
                             1631.88  1648.63  1678.64  1684.65  1773.25
                             1808.13  1836.11  1850.65  1887.17  1917.76
                             1971.02  2011.32  2015.13  2024.09  2058.77
                             2078.73  2087.61  2126.51  2169.59  2181.27
                             2193.62  2202.11  2211.99  2216.70  2226.09
                             2232.95  2699.96  4363.23  4373.78  4375.43
                             4378.10  4384.47  4388.30  4409.07  4418.47
                             4427.31  4444.84  4465.23  4475.87  4484.81
                             4512.07  4552.88

 Zero-point correction=                           0.230799 (Hartree/Particle)
 Thermal correction to Energy=                    0.242629
 Thermal correction to Enthalpy=                  0.243573
 Thermal correction to Gibbs Free Energy=         0.192284
 Sum of electronic and zero-point Energies=           -518.915192
 Sum of electronic and thermal Energies=              -518.903362
 Sum of electronic and thermal Enthalpies=            -518.902418
 Sum of electronic and thermal Free Energies=         -518.953707

                     E (Thermal)             CV                S
                      KCal/Mol        Cal/Mol-Kelvin    Cal/Mol-Kelvin
 Total                  152.252             42.755            107.947
 Electronic               0.000              0.000              0.000
 Translational            0.889              2.981             41.065
 Rotational               0.889              2.981             30.409
 Vibrational            150.474             36.793             36.473
 Vibration     1          0.595              1.979              4.988
 Vibration     2          0.597              1.971              4.328
 Vibration     3          0.599              1.964              3.950
 Vibration     4          0.605              1.945              3.356
 Vibration     5          0.619              1.898              2.624
 Vibration     6          0.628              1.871              2.361
 Vibration     7          0.631              1.862              2.290
 Vibration     8          0.640              1.833              2.091
 Vibration     9          0.673              1.733              1.613
 Vibration    10          0.686              1.692              1.473
 Vibration    11          0.710              1.624              1.281
 Vibration    12          0.746              1.524              1.061
 Vibration    13          0.797              1.390              0.837
 Vibration    14          0.851              1.261              0.671
 Vibration    15          0.917              1.115              0.521

                           ! Non-Optimized Parameters !
 Normal termination of Gaussian 16 at Tue Dec  8 21:09:50 2020.

 ----------------------------------------------------------------------
 # B3LYP/6-311++G(d,p) empiricaldispersion=gd3bj scf=xqc pop=npa geom=c
 heck
 ----------------------------------------------------------------------

 --------------------------------------
 CID_17767463_JID_1776_Energie_neutraal
 --------------------------------------
 Structure from the checkpoint file:  "JID_1776.chk"
 Charge =  0 Multiplicity = 1

 SCF Done:  E(RB3LYP) =  -519.296134959     A.U. after   14 cycles
 Normal termination of Gaussian 16 at Tue Dec  8 21:12:49 2020.

 ----------------------------------------------------------------------
 # B3LYP/6-311++G(d,p) empiricaldispersion=gd3bj scf=xqc pop=npa geom=c
 heck
 ----------------------------------------------------------------------

 ------------------------------------
 CID_17767463_JID_1776_Energie_kation
 ------------------------------------
 Structure from the checkpoint file:  "JID_1776.chk"
 Charge =  1 Multiplicity = 2

 SCF Done:  E(UB3LYP) =  -518.968381837     A.U. after   22 cycles
 Normal termination of Gaussian 16 at Tue Dec  8 21:18:07 2020.
 Gaussian 16:  ES64L-G16RevA.03 25-Dec-2016

 ----------------------------------------------------------------------
 # B3LYP/6-311++G(d,p) empiricaldispersion=gd3bj scf=xqc pop=npa geom=c
 heck
 ----------------------------------------------------------------------

 -----------------------------------
 CID_17767463_JID_1776_Energie_anion
 -----------------------------------
 Structure from the checkpoint file:  "JID_1776.chk"
 Charge = -1 Multiplicity = 2

                         Standard orientation:
 ---------------------------------------------------------------------
 Center     Atomic      Atomic             Coordinates (Angstroms)
 Number     Number       Type             X           Y           Z
 ---------------------------------------------------------------------
      1          6           0       -3.650148   -0.403683   -0.590347
      2          6           0       -2.786129    0.734548   -0.038988
      3          6           0       -1.872593    0.316964    1.123616
      4          6           0       -0.880048   -0.810170    0.807506
      5          6           0        0.057206   -0.581183   -0.388899
      6          6           0        1.095935   -1.715814   -0.516774
      7          8           0        2.287141   -1.203695    0.098781
      8          6           0        2.232327    0.168834    0.095533
      9          8           0        3.178856    0.873867    0.356519
     10          7           0        0.958148    0.555503   -0.241870
     11          6           0        0.639634    1.935369   -0.534323
     12          1           0       -3.042598   -1.194899   -1.044573
     13          1           0       -4.340084   -0.038738   -1.358803
     14          1           0       -4.248507   -0.864138    0.205302
     15          1           0       -2.186618    1.163656   -0.852551
     16          1           0       -3.438092    1.545506    0.309720
     17          1           0       -1.322056    1.192336    1.487044
     18          1           0       -2.499255   -0.011905    1.963691
     19          1           0       -0.255104   -0.996899    1.690419
     20          1           0       -1.429381   -1.741690    0.613978
     21          1           0       -0.524050   -0.479425   -1.313398
     22          1           0        1.315235   -1.957479   -1.563401
     23          1           0        0.801189   -2.624986    0.011444
     24          1           0       -0.071005    2.360319    0.181718
     25          1           0        1.571858    2.500733   -0.481164
     26          1           0        0.216350    2.028529   -1.542687
 ---------------------------------------------------------------------

 SCF Done:  E(UB3LYP) =  -519.286044309     A.U. after   29 cycles

 The electronic state is 2-A.
 Alpha  occ. eigenvalues --  -19.06371 -18.99861 -14.24920 -10.21702 -10.13591
 Alpha  occ. eigenvalues --  -10.12367 -10.10827 -10.07442 -10.06974 -10.06408
 Alpha  occ. eigenvalues --  -10.05159  -1.01497  -0.92680  -0.84809  -0.71367
 Alpha  occ. eigenvalues --   -0.67457  -0.62453  -0.61897  -0.56066  -0.53049
 Alpha  occ. eigenvalues --   -0.48101  -0.46560  -0.42531  -0.40484  -0.39041
 Alpha  occ. eigenvalues --   -0.37164  -0.35386  -0.34550  -0.33964  -0.32232
 Alpha  occ. eigenvalues --   -0.31809  -0.31170  -0.30031  -0.28877  -0.27689
 Alpha  occ. eigenvalues --   -0.27006  -0.25547  -0.23285  -0.22749  -0.22442
 Alpha  occ. eigenvalues --   -0.20058  -0.18827  -0.15085   0.04303
 Alpha virt. eigenvalues --    0.06915   0.07218   0.08048   0.09509   0.09707
 Alpha virt. eigenvalues --    0.10343   0.10526   0.10856   0.12500   0.12809
 Alpha virt. eigenvalues --    0.13068   0.13802   0.14040   0.14119   0.14624

  Beta  occ. eigenvalues --  -19.06372 -18.99854 -14.24921 -10.21695 -10.13561
  Beta  occ. eigenvalues --  -10.12345 -10.10802 -10.07425 -10.06960 -10.06383
  Beta  occ. eigenvalues --  -10.05107  -1.01488  -0.92670  -0.84800  -0.71329
  Beta  occ. eigenvalues --   -0.67412  -0.62410  -0.61840  -0.56001  -0.52984
  Beta  occ. eigenvalues --   -0.48053  -0.46498  -0.42477  -0.40450  -0.38995
  Beta  occ. eigenvalues --   -0.37128  -0.35341  -0.34520  -0.33941  -0.32184
  Beta  occ. eigenvalues --   -0.31766  -0.31132  -0.30001  -0.28832  -0.27645
  Beta  occ. eigenvalues --   -0.26963  -0.25506  -0.23238  -0.22705  -0.22397
  Beta  occ. eigenvalues --   -0.20034  -0.18819  -0.15069
  Beta virt. eigenvalues --    0.06859   0.07786   0.08092   0.08644   0.10063
  Beta virt. eigenvalues --    0.10369   0.10919   0.11013   0.11295   0.12917
  Beta virt. eigenvalues --    0.13087   0.13475   0.14014   0.14395   0.14460

 Mulliken charges and spin densities:
               1          2
     1  C    2.259054  -2.917827
     2  C   -1.706985   1.685685
     3  C    0.563493  -0.909370
     4  C    1.016490  -1.278543
     5  C   -1.784781   1.735901
     6  C    1.580121  -2.213593
     7  O   -0.136411   0.022433
     8  C    0.408245  -0.083033
     9  O   -0.407677   0.006579
    10  N   -0.149385   0.087199
    11  C    0.487693  -0.790445
    12  H   -0.568925   0.715087
    13  H   -0.566360   0.710732
    14  H   -0.160144   0.295105
    15  H    0.120216  -0.000712
    16  H   -0.646127   0.815494
    17  H    0.233525  -0.109942
    18  H   -0.297664   0.464738
    19  H    0.074441   0.105357
    20  H    0.017331   0.139859
    21  H   -0.488834   0.764181
    22  H   -0.387783   0.581746
    23  H   -0.188127   0.392333
    24  H   -0.053892   0.215226
    25  H    0.116491   0.053203
    26  H   -0.334007   0.512608
 Sum of Mulliken charges =  -1.00000   1.00000

 Dipole moment (field-independent basis, Debye):
    X=              3.8775    Y=              0.9673    Z=              3.3156  Tot=              5.1927
 Quadrupole moment (field-independent basis, Debye-Ang):
   XX=           -149.9416   YY=           -104.3567   ZZ=           -105.2972
   XY=             -1.4304   XZ=             -7.5532   YZ=             -3.3665

 Summary of Natural Population Analysis:

                                       Natural Population
                Natural  -----------------------------------------------
    Atom  No    Charge         Core      Valence    Rydberg      Total
 -----------------------------------------------------------------------
      C    1   -0.28658      0.99967     2.28162    0.00529     3.28658
      C    2   -0.19359      0.99964     2.18556    0.00838     3.19359
      C    3   -0.18896      0.99962     2.18109    0.00825     3.18896
      C    4   -0.19448      0.99961     2.18615    0.00873     3.19448
      C    5   -0.01652      0.99959     2.00368    0.01326     3.01652
      C    6   -0.00674      0.99957     1.99413    0.01304     3.00674
      O    7   -0.28309      0.99987     3.27611    0.00710     4.28309
      C    8    0.46514      0.99966     1.50883    0.02638     2.53486
      O    9   -0.32273      0.99986     3.31749    0.00538     4.32273
      N   10   -0.26886      0.99963     2.75865    0.01058     3.76886
      C   11   -0.17480      0.99964     2.16684    0.00832     3.17480
      H   12    0.09734      0.00000     0.40062    0.00204     0.40266
      H   13    0.10237      0.00000     0.39598    0.00165     0.39763
      H   14    0.09556      0.00000     0.40292    0.00152     0.40444
      H   15    0.09367      0.00000     0.40448    0.00184     0.40633
      H   16    0.09725      0.00000     0.40132    0.00142     0.40275
      H   17    0.09466      0.00000     0.40401    0.00133     0.40534
      H   18    0.09789      0.00000     0.40107    0.00104     0.40211
      H   19    0.09864      0.00000     0.39996    0.00140     0.40136
      H   20    0.10238      0.00000     0.39629    0.00133     0.39762
      H   21    0.10590      0.00000     0.39067    0.00343     0.39410
      H   22    0.09066      0.00000     0.40726    0.00208     0.40934
      H   23    0.09315      0.00000     0.40544    0.00142     0.40685
      H   24    0.09357      0.00000     0.40523    0.00120     0.40643
      H   25    0.11062      0.00000     0.38839    0.00098     0.38938
      H   26    0.09755      0.00000     0.40106    0.00138     0.40245
 =======================================================================
   * Total *    0.00000     10.99635    31.86486    0.13879    43.00000

 Normal termination of Gaussian 16 at Tue Dec  8 21:25:50 2020.
