 Gaussian 16, Revision A.03,

 -----------------------------------------------------------
 # opt freq B3LYP/6-31G(d) empiricaldispersion=gd3bj scf=xqc
 -----------------------------------------------------------

 -------------------------------
 CID_115133957_JID_9778_neutraal
 -------------------------------
 Symbolic Z-matrix:
 Charge =  0 Multiplicity = 1

 SCF Done:  E(RB3LYP) =  -844.884551067     A.U. after   15 cycles
 SCF Done:  E(RB3LYP) =  -844.883460358     A.U. after   13 cycles
 SCF Done:  E(RB3LYP) =  -844.890150717     A.U. after   12 cycles
 SCF Done:  E(RB3LYP) =  -844.891006101     A.U. after   12 cycles
 SCF Done:  E(RB3LYP) =  -844.891718230     A.U. after   12 cycles
 SCF Done:  E(RB3LYP) =  -844.891921788     A.U. after   11 cycles
 SCF Done:  E(RB3LYP) =  -844.891959927     A.U. after   12 cycles
 SCF Done:  E(RB3LYP) =  -844.892068829     A.U. after   11 cycles
 SCF Done:  E(RB3LYP) =  -844.892104163     A.U. after   10 cycles
 SCF Done:  E(RB3LYP) =  -844.892120225     A.U. after    9 cycles
 SCF Done:  E(RB3LYP) =  -844.892122346     A.U. after    8 cycles
 SCF Done:  E(RB3LYP) =  -844.892123329     A.U. after    8 cycles
 SCF Done:  E(RB3LYP) =  -844.892123716     A.U. after    8 cycles
 SCF Done:  E(RB3LYP) =  -844.892123856     A.U. after    7 cycles
 Optimization completed.
    -- Stationary point found.
 Normal termination of Gaussian 16 at Mon Dec 14 17:24:18 2020.

 --------------------------------------------------------------------
 #N Geom=AllCheck Guess=TCheck SCRF=Check GenChk RB3LYP/6-31G(d) Freq
 --------------------------------------------------------------------

 Structure from the checkpoint file:  "JID_9778.chk"
 -------------------------------
 CID_115133957_JID_9778_neutraal
 -------------------------------
 Charge =  0 Multiplicity = 1

 SCF Done:  E(RB3LYP) =  -844.892123856     A.U. after    1 cycles

  Exact polarizability: 246.935  -2.490 167.707  -5.151   1.911 118.767
 Approx polarizability: 335.162  -5.822 270.495 -14.229   1.877 180.521

                      1                      2                      3
                      A                      A                      A
 Frequencies --     39.1096                45.2005                77.0531
 Red. masses --      3.8211                 5.2033                 3.5159
 Frc consts  --      0.0034                 0.0063                 0.0123
 IR Inten    --      0.4885                 0.4765                 0.6880

                      4                      5                      6
                      A                      A                      A
 Frequencies --    104.1091               119.5106               145.7479
 Red. masses --      5.8668                 5.8866                 3.0212
 Frc consts  --      0.0375                 0.0495                 0.0378
 IR Inten    --      1.6913                11.6995                 1.7874

                      7                      8                      9
                      A                      A                      A
 Frequencies --    155.3370               166.6994               201.8599
 Red. masses --      3.9311                 4.1481                 4.0475
 Frc consts  --      0.0559                 0.0679                 0.0972
 IR Inten    --      1.0257                 0.4228                 1.0077

                     10                     11                     12
                      A                      A                      A
 Frequencies --    245.9645               252.4552               272.3632
 Red. masses --      2.6199                 1.3422                 1.4003
 Frc consts  --      0.0934                 0.0504                 0.0612
 IR Inten    --      1.4143                 0.2855                 0.9853

                     13                     14                     15
                      A                      A                      A
 Frequencies --    272.9296               287.0708               301.9433
 Red. masses --      1.6693                 2.0500                 2.3763
 Frc consts  --      0.0733                 0.0995                 0.1276
 IR Inten    --      0.2192                 0.5252                 1.3509

                     16                     17                     18
                      A                      A                      A
 Frequencies --    318.1875               357.6603               360.5039
 Red. masses --      3.5171                 2.0444                 1.8478
 Frc consts  --      0.2098                 0.1541                 0.1415
 IR Inten    --      0.8974                 5.1727                 1.7243

                     19                     20                     21
                      A                      A                      A
 Frequencies --    389.0781               412.9896               420.4233
 Red. masses --      2.0493                 2.7917                 2.7078
 Frc consts  --      0.1828                 0.2805                 0.2820
 IR Inten    --      0.2470                 1.0750                 1.2609

                     22                     23                     24
                      A                      A                      A
 Frequencies --    433.1211               449.5259               476.5849
 Red. masses --      2.6581                 3.8502                 3.6130
 Frc consts  --      0.2938                 0.4584                 0.4835
 IR Inten    --      0.4315                 6.2027                 2.8861

                     25                     26                     27
                      A                      A                      A
 Frequencies --    485.4960               501.4290               527.9499
 Red. masses --      2.9754                 3.2625                 3.7340
 Frc consts  --      0.4132                 0.4833                 0.6132
 IR Inten    --      2.6515                 1.1553                11.0909

                     28                     29                     30
                      A                      A                      A
 Frequencies --    558.3681               585.6762               595.6541
 Red. masses --      2.0950                 2.4373                 2.8724
 Frc consts  --      0.3848                 0.4926                 0.6005
 IR Inten    --     16.7001                 8.2938                45.2617

                     31                     32                     33
                      A                      A                      A
 Frequencies --    613.7264               645.0204               672.5567
 Red. masses --      2.6691                 2.5312                 3.6870
 Frc consts  --      0.5923                 0.6205                 0.9826
 IR Inten    --     16.8878                18.1645                15.5122

                     34                     35                     36
                      A                      A                      A
 Frequencies --    704.7885               745.0137               755.2599
 Red. masses --      3.9750                 1.2184                 3.9162
 Frc consts  --      1.1633                 0.3984                 1.3162
 IR Inten    --     27.7091               132.3275                 4.5794

                     37                     38                     39
                      A                      A                      A
 Frequencies --    761.5124               789.8251               822.1973
 Red. masses --      2.4623                 2.7868                 2.5059
 Frc consts  --      0.8413                 1.0243                 0.9981
 IR Inten    --     39.2621                 5.9258                 4.6562

                     40                     41                     42
                      A                      A                      A
 Frequencies --    856.1094               869.4932               900.0770
 Red. masses --      1.4916                 2.2881                 2.7984
 Frc consts  --      0.6441                 1.0192                 1.3357
 IR Inten    --     13.5984                 3.1521                13.1320

                     43                     44                     45
                      A                      A                      A
 Frequencies --    913.3075               927.1836               948.0302
 Red. masses --      1.5037                 2.6757                 1.5610
 Frc consts  --      0.7390                 1.3552                 0.8266
 IR Inten    --      9.7779                 2.9215                 0.4455

                     46                     47                     48
                      A                      A                      A
 Frequencies --    951.8185               960.9217               987.8545
 Red. masses --      2.0428                 2.4924                 1.8126
 Frc consts  --      1.0904                 1.3560                 1.0422
 IR Inten    --      1.0472                15.6493                12.5876

                     49                     50                     51
                      A                      A                      A
 Frequencies --   1012.9438              1015.8736              1024.3744
 Red. masses --      1.3254                 1.8933                 1.3519
 Frc consts  --      0.8012                 1.1512                 0.8358
 IR Inten    --      2.0737                 2.3014                 2.5219

                     52                     53                     54
                      A                      A                      A
 Frequencies --   1057.1711              1078.0222              1095.9276
 Red. masses --      2.1721                 1.6232                 4.0129
 Frc consts  --      1.4302                 1.1114                 2.8397
 IR Inten    --      4.4167                 2.3387                35.2183

                     55                     56                     57
                      A                      A                      A
 Frequencies --   1114.3722              1159.0114              1163.0959
 Red. masses --      3.2447                 1.9418                 1.3739
 Frc consts  --      2.3741                 1.5368                 1.0950
 IR Inten    --     30.2771                40.2586                 1.8120

                     58                     59                     60
                      A                      A                      A
 Frequencies --   1179.7353              1193.1688              1201.5989
 Red. masses --      1.7367                 1.2485                 1.7046
 Frc consts  --      1.4241                 1.0473                 1.4501
 IR Inten    --     50.7941                 7.2936                22.1407

                     61                     62                     63
                      A                      A                      A
 Frequencies --   1207.3051              1219.9209              1224.4510
 Red. masses --      1.9329                 1.7871                 1.5835
 Frc consts  --      1.6600                 1.5670                 1.3988
 IR Inten    --     23.2490                 5.3127                86.1087

                     64                     65                     66
                      A                      A                      A
 Frequencies --   1255.0952              1272.6239              1277.8139
 Red. masses --      2.3665                 1.7412                 1.5864
 Frc consts  --      2.1964                 1.6615                 1.5262
 IR Inten    --     41.1210                30.0632                 5.3070

                     67                     68                     69
                      A                      A                      A
 Frequencies --   1295.8859              1317.0280              1332.8943
 Red. masses --      1.5514                 1.7515                 1.9061
 Frc consts  --      1.5350                 1.7900                 1.9952
 IR Inten    --     10.1766                51.3566                48.7267

                     70                     71                     72
                      A                      A                      A
 Frequencies --   1336.7305              1344.9285              1362.1264
 Red. masses --      2.4385                 5.7249                 1.5312
 Frc consts  --      2.5672                 6.1012                 1.6739
 IR Inten    --     24.6875                25.6614                 8.0922

                     73                     74                     75
                      A                      A                      A
 Frequencies --   1391.3611              1397.6131              1414.8646
 Red. masses --      1.9176                 1.4916                 1.2466
 Frc consts  --      2.1872                 1.7166                 1.4703
 IR Inten    --     83.5933                 3.0400                10.4625

                     76                     77                     78
                      A                      A                      A
 Frequencies --   1427.3549              1447.5312              1453.4987
 Red. masses --      1.2432                 1.2318                 2.2815
 Frc consts  --      1.4923                 1.5208                 2.8399
 IR Inten    --      6.8297                16.8648                 5.2027

                     79                     80                     81
                      A                      A                      A
 Frequencies --   1483.5023              1494.3259              1501.5824
 Red. masses --      1.1716                 1.1245                 2.3355
 Frc consts  --      1.5192                 1.4794                 3.1026
 IR Inten    --      3.9918                10.2746                80.1708

                     82                     83                     84
                      A                      A                      A
 Frequencies --   1509.3663              1512.0334              1513.3165
 Red. masses --      1.1174                 1.1676                 1.1003
 Frc consts  --      1.4999                 1.5727                 1.4847
 IR Inten    --      7.2136                 3.0290                15.3359

                     85                     86                     87
                      A                      A                      A
 Frequencies --   1519.4483              1525.4947              1526.7711
 Red. masses --      1.0645                 1.0847                 1.0540
 Frc consts  --      1.4479                 1.4872                 1.4475
 IR Inten    --      7.8437                40.9783                 0.4517

                     88                     89                     90
                      A                      A                      A
 Frequencies --   1538.1356              1544.7539              1552.4387
 Red. masses --      1.0646                 1.0847                 1.1095
 Frc consts  --      1.4840                 1.5251                 1.5754
 IR Inten    --     31.0319                 6.3628                16.3062

                     91                     92                     93
                      A                      A                      A
 Frequencies --   1557.2224              1562.2163              1646.8020
 Red. masses --      2.3843                 1.0826                 6.1511
 Frc consts  --      3.4065                 1.5567                 9.8284
 IR Inten    --    175.8300                 1.1853                 7.0082

                     94                     95                     96
                      A                      A                      A
 Frequencies --   1673.4159              1812.1899              2991.0636
 Red. masses --      6.0949                 9.1278                 1.0722
 Frc consts  --     10.0559                17.6613                 5.6516
 IR Inten    --     11.2153               578.4685                95.0166

                     97                     98                     99
                      A                      A                      A
 Frequencies --   2998.5017              3021.3670              3045.8797
 Red. masses --      1.0574                 1.0705                 1.0685
 Frc consts  --      5.6013                 5.7577                 5.8408
 IR Inten    --     50.5535                21.7099                17.4545

                    100                    101                    102
                      A                      A                      A
 Frequencies --   3050.8336              3055.4586              3065.1970
 Red. masses --      1.0608                 1.0410                 1.0386
 Frc consts  --      5.8174                 5.7262                 5.7493
 IR Inten    --      6.7694                24.9477                26.1024

                    103                    104                    105
                      A                      A                      A
 Frequencies --   3070.1516              3094.0219              3106.3719
 Red. masses --      1.0884                 1.0939                 1.0966
 Frc consts  --      6.0443                 6.1700                 6.2344
 IR Inten    --     67.3050                19.3708                26.6486

                    106                    107                    108
                      A                      A                      A
 Frequencies --   3114.9612              3117.9302              3131.2346
 Red. masses --      1.0838                 1.0942                 1.1014
 Frc consts  --      6.1959                 6.2674                 6.3623
 IR Inten    --     26.7187                19.3717                43.3145

                    109                    110                    111
                      A                      A                      A
 Frequencies --   3137.6396              3139.0805              3139.3031
 Red. masses --      1.1019                 1.0942                 1.1028
 Frc consts  --      6.3912                 6.3523                 6.4034
 IR Inten    --     25.2748                12.1028                25.6449

                    112                    113                    114
                      A                      A                      A
 Frequencies --   3157.0293              3185.0509              3199.9322
 Red. masses --      1.1042                 1.0900                 1.0895
 Frc consts  --      6.4842                 6.5148                 6.5727
 IR Inten    --     26.5666                16.1367                 9.2328

                    115                    116                    117
                      A                      A                      A
 Frequencies --   3222.8311              3474.2215              3595.7331
 Red. masses --      1.0937                 1.0674                 1.0766
 Frc consts  --      6.6933                 7.5908                 8.2009
 IR Inten    --      8.5175               353.9745                26.9984

 - Thermochemistry -
 -------------------
 Temperature   298.150 Kelvin.  Pressure   1.00000 Atm.
 Atom     1 has atomic number  6 and mass  12.00000

 Molecular mass:   262.16813 amu.
 Principal axes and moments of inertia in atomic units:
                           1         2         3
     Eigenvalues --  2120.509369281.12317**********
           X            0.99999  -0.00011   0.00457
           Y            0.00005   0.99992   0.01279
           Z           -0.00457  -0.01279   0.99991
 This molecule is an asymmetric top.
 Rotational symmetry number  1.
 Warning -- assumption of classical behavior for rotation
           may cause significant error
 Rotational temperatures (Kelvin)      0.04085     0.00933     0.00851
 Rotational constants (GHZ):           0.85109     0.19445     0.17739
 Zero-point vibrational energy     940538.9 (Joules/Mol)
                                  224.79420 (Kcal/Mol)
 Warning -- explicit consideration of  31 degrees of freedom as
           vibrations may cause significant error
 Vibrational temperatures:     56.27    65.03   110.86   149.79   171.95
          (Kelvin)            209.70   223.50   239.84   290.43   353.89
                              363.23   391.87   392.68   413.03   434.43
                              457.80   514.59   518.68   559.80   594.20
                              604.90   623.16   646.77   685.70   698.52
                              721.44   759.60   803.37   842.66   857.01
                              883.02   928.04   967.66  1014.03  1071.91
                             1086.65  1095.65  1136.38  1182.96  1231.75
                             1251.01  1295.01  1314.05  1334.01  1364.00
                             1369.45  1382.55  1421.30  1457.40  1461.62
                             1473.85  1521.03  1551.03  1576.80  1603.33
                             1667.56  1673.44  1697.38  1716.70  1728.83
                             1737.04  1755.19  1761.71  1805.80  1831.02
                             1838.49  1864.49  1894.91  1917.74  1923.26
                             1935.05  1959.80  2001.86  2010.85  2035.67
                             2053.65  2082.67  2091.26  2134.43  2150.00
                             2160.44  2171.64  2175.48  2177.32  2186.15
                             2194.85  2196.68  2213.03  2222.56  2233.61
                             2240.50  2247.68  2369.38  2407.67  2607.34
                             4303.47  4314.18  4347.07  4382.34  4389.47
                             4396.12  4410.13  4417.26  4451.61  4469.38
                             4481.73  4486.01  4505.15  4514.36  4516.44
                             4516.76  4542.26  4582.58  4603.99  4636.94
                             4998.63  5173.46

 Zero-point correction=                           0.358232 (Hartree/Particle)
 Thermal correction to Energy=                    0.376099
 Thermal correction to Enthalpy=                  0.377043
 Thermal correction to Gibbs Free Energy=         0.313499
 Sum of electronic and zero-point Energies=           -844.533891
 Sum of electronic and thermal Energies=              -844.516025
 Sum of electronic and thermal Enthalpies=            -844.515081
 Sum of electronic and thermal Free Energies=         -844.578625

                     E (Thermal)             CV                S
                      KCal/Mol        Cal/Mol-Kelvin    Cal/Mol-Kelvin
 Total                  236.006             71.985            133.739
 Electronic               0.000              0.000              0.000
 Translational            0.889              2.981             42.591
 Rotational               0.889              2.981             33.659
 Vibrational            234.228             66.023             57.489
 Vibration     1          0.594              1.981              5.304
 Vibration     2          0.595              1.979              5.017
 Vibration     3          0.599              1.964              3.965
 Vibration     4          0.605              1.946              3.376
 Vibration     5          0.609              1.933              3.108
 Vibration     6          0.617              1.907              2.727
 Vibration     7          0.620              1.897              2.606
 Vibration     8          0.624              1.883              2.472
 Vibration     9          0.639              1.837              2.116
 Vibration    10          0.660              1.769              1.759
 Vibration    11          0.664              1.759              1.713
 Vibration    12          0.675              1.724              1.581
 Vibration    13          0.676              1.723              1.578
 Vibration    14          0.684              1.698              1.491
 Vibration    15          0.694              1.670              1.406
 Vibration    16          0.705              1.639              1.319
 Vibration    17          0.733              1.560              1.132
 Vibration    18          0.735              1.554              1.120
 Vibration    19          0.757              1.494              1.004
 Vibration    20          0.777              1.442              0.916
 Vibration    21          0.783              1.426              0.891
 Vibration    22          0.794              1.398              0.849
 Vibration    23          0.808              1.362              0.797
 Vibration    24          0.833              1.302              0.719
 Vibration    25          0.842              1.282              0.695
 Vibration    26          0.857              1.247              0.655
 Vibration    27          0.883              1.188              0.592
 Vibration    28          0.914              1.121              0.527
 Vibration    29          0.943              1.062              0.475
 Vibration    30          0.953              1.041              0.457
 Vibration    31          0.973              1.003              0.427

                           ! Non-Optimized Parameters !
 Normal termination of Gaussian 16 at Mon Dec 14 17:46:39 2020.

 ----------------------------------------------------------------------
 # B3LYP/6-311++G(d,p) empiricaldispersion=gd3bj scf=xqc pop=npa geom=c
 heck
 ----------------------------------------------------------------------

 ---------------------------------------
 CID_115133957_JID_9778_Energie_neutraal
 ---------------------------------------
 Structure from the checkpoint file:  "JID_9778.chk"
 Charge =  0 Multiplicity = 1

 SCF Done:  E(RB3LYP) =  -845.131610672     A.U. after   16 cycles
 Normal termination of Gaussian 16 at Mon Dec 14 17:57:51 2020.

 ----------------------------------------------------------------------
 # B3LYP/6-311++G(d,p) empiricaldispersion=gd3bj scf=xqc pop=npa geom=c
 heck
 ----------------------------------------------------------------------

 -------------------------------------
 CID_115133957_JID_9778_Energie_kation
 -------------------------------------
 Structure from the checkpoint file:  "JID_9778.chk"
 Charge =  1 Multiplicity = 2

 SCF Done:  E(UB3LYP) =  -844.853330396     A.U. after   25 cycles
 Normal termination of Gaussian 16 at Mon Dec 14 18:23:50 2020.
 Gaussian 16:  ES64L-G16RevA.03 25-Dec-2016

 ----------------------------------------------------------------------
 # B3LYP/6-311++G(d,p) empiricaldispersion=gd3bj scf=xqc pop=npa geom=c
 heck
 ----------------------------------------------------------------------

 ------------------------------------
 CID_115133957_JID_9778_Energie_anion
 ------------------------------------
 Structure from the checkpoint file:  "JID_9778.chk"
 Charge = -1 Multiplicity = 2

                         Standard orientation:
 ---------------------------------------------------------------------
 Center     Atomic      Atomic             Coordinates (Angstroms)
 Number     Number       Type             X           Y           Z
 ---------------------------------------------------------------------
      1          6           0        4.102839   -1.183600    0.225040
      2          6           0        2.698095   -0.656043    0.562833
      3          6           0        1.986125   -1.683008    1.461528
      4          6           0        2.823878    0.683056    1.327623
      5          6           0        3.697458    1.742712    0.644605
      6          8           0        3.276749    2.068989   -0.672357
      7          7           0        1.940257   -0.405451   -0.726525
      8          6           0        2.098927   -1.451084   -1.745076
      9          6           0        0.554126   -0.026683   -0.552220
     10          6           0       -0.471703   -0.980625   -0.476394
     11          6           0       -1.807094   -0.613219   -0.340509
     12          6           0       -2.129039    0.751497   -0.251608
     13          6           0       -1.121189    1.714150   -0.334939
     14          6           0        0.206893    1.328360   -0.498102
     15          7           0       -3.474998    1.123877   -0.102718
     16          6           0       -4.494267    0.296859    0.327492
     17          8           0       -5.631600    0.711450    0.479019
     18          6           0       -4.057813   -1.130000    0.624814
     19          6           0       -2.942952   -1.606710   -0.315519
     20          1           0        4.718575   -1.170361    1.130016
     21          1           0        4.598986   -0.565932   -0.529239
     22          1           0        4.074328   -2.215323   -0.136692
     23          1           0        2.606827   -1.910734    2.334778
     24          1           0        1.024583   -1.303115    1.817668
     25          1           0        1.807386   -2.623743    0.929034
     26          1           0        1.822704    1.085436    1.511477
     27          1           0        3.258006    0.466437    2.312423
     28          1           0        3.668953    2.667307    1.233408
     29          1           0        4.746747    1.405387    0.640081
     30          1           0        2.902342    1.238680   -1.042579
     31          1           0        1.836747   -2.463993   -1.400478
     32          1           0        1.453884   -1.203794   -2.590936
     33          1           0        3.130149   -1.473008   -2.102271
     34          1           0       -0.231543   -2.037878   -0.532982
     35          1           0       -1.376070    2.769528   -0.280002
     36          1           0        0.987842    2.075930   -0.580928
     37          1           0       -3.729796    2.098378   -0.209352
     38          1           0       -3.700071   -1.148567    1.664020
     39          1           0       -4.944941   -1.764567    0.571670
     40          1           0       -2.585196   -2.596943   -0.014823
     41          1           0       -3.354143   -1.715581   -1.330285
 ---------------------------------------------------------------------

 SCF Done:  E(UB3LYP) =  -845.123417205     A.U. after   33 cycles
 SCF Done:  E(UB3LYP) =  -845.123417205     a.u. after    1 cycles

 The electronic state is 2-A.
 Alpha  occ. eigenvalues --  -19.01519 -19.01426 -14.27165 -14.23270 -10.19862
 Alpha  occ. eigenvalues --  -10.13748 -10.12859 -10.12220 -10.11730 -10.10065
 Alpha  occ. eigenvalues --  -10.09952 -10.09899 -10.09694 -10.09498 -10.08860
 Alpha  occ. eigenvalues --  -10.08627 -10.07754 -10.07198 -10.06317  -0.96663
 Alpha  occ. eigenvalues --   -0.92029  -0.86935  -0.84699  -0.76500  -0.72335
 Alpha  occ. eigenvalues --   -0.71195  -0.66205  -0.65791  -0.63397  -0.60525
 Alpha  occ. eigenvalues --   -0.58920  -0.57507  -0.54802  -0.53844  -0.52675
 Alpha  occ. eigenvalues --   -0.47806  -0.45809  -0.45464  -0.41175  -0.40588
 Alpha  occ. eigenvalues --   -0.40418  -0.39897  -0.38454  -0.37246  -0.36956
 Alpha  occ. eigenvalues --   -0.35970  -0.35180  -0.34685  -0.33667  -0.33431
 Alpha  occ. eigenvalues --   -0.32795  -0.31806  -0.31478  -0.30867  -0.30372
 Alpha  occ. eigenvalues --   -0.29953  -0.29175  -0.29001  -0.28094  -0.27016
 Alpha  occ. eigenvalues --   -0.26803  -0.25838  -0.25475  -0.24136  -0.23559
 Alpha  occ. eigenvalues --   -0.22303  -0.18285  -0.17624  -0.16887  -0.15286
 Alpha  occ. eigenvalues --   -0.12719   0.03833
 Alpha virt. eigenvalues --    0.05744   0.06119   0.06197   0.06516   0.06859
 Alpha virt. eigenvalues --    0.07990   0.08219   0.08540   0.08914   0.09791
 Alpha virt. eigenvalues --    0.09866   0.10148   0.10699   0.10943   0.11262

  Beta  occ. eigenvalues --  -19.01515 -19.01425 -14.27151 -14.23265 -10.19860
  Beta  occ. eigenvalues --  -10.13737 -10.12855 -10.12213 -10.11729 -10.10067
  Beta  occ. eigenvalues --  -10.09918 -10.09881 -10.09662 -10.09493 -10.08844
  Beta  occ. eigenvalues --  -10.08623 -10.07743 -10.07168 -10.06281  -0.96653
  Beta  occ. eigenvalues --   -0.92026  -0.86916  -0.84685  -0.76484  -0.72307
  Beta  occ. eigenvalues --   -0.71172  -0.66181  -0.65767  -0.63366  -0.60475
  Beta  occ. eigenvalues --   -0.58864  -0.57450  -0.54774  -0.53810  -0.52650
  Beta  occ. eigenvalues --   -0.47771  -0.45782  -0.45423  -0.41149  -0.40565
  Beta  occ. eigenvalues --   -0.40395  -0.39866  -0.38421  -0.37224  -0.36928
  Beta  occ. eigenvalues --   -0.35948  -0.35151  -0.34664  -0.33629  -0.33404
  Beta  occ. eigenvalues --   -0.32771  -0.31771  -0.31448  -0.30834  -0.30337
  Beta  occ. eigenvalues --   -0.29918  -0.29141  -0.28969  -0.28069  -0.26984
  Beta  occ. eigenvalues --   -0.26774  -0.25812  -0.25451  -0.24111  -0.23539
  Beta  occ. eigenvalues --   -0.22278  -0.18272  -0.17616  -0.16873  -0.15262
  Beta  occ. eigenvalues --   -0.12690
  Beta virt. eigenvalues --    0.05876   0.06013   0.06310   0.06693   0.06954
  Beta virt. eigenvalues --    0.07400   0.08314   0.08532   0.08882   0.09450
  Beta virt. eigenvalues --    0.09937   0.10166   0.10411   0.10958   0.11198

 Mulliken charges and spin densities:
               1          2
     1  C    0.644550  -1.263361
     2  C   -1.833782   1.867812
     3  C    1.092193  -1.595707
     4  C   -0.100336  -0.065911
     5  C   -0.325743  -0.239855
     6  O   -0.246416  -0.000445
     7  N    0.136797  -0.043827
     8  C    1.160487  -1.459466
     9  C   -0.099284  -0.505822
    10  C   -0.482797  -0.001967
    11  C    0.289035   1.232802
    12  C    0.131588  -0.787382
    13  C   -0.144630  -0.533892
    14  C   -0.106751   0.168612
    15  N   -0.163183   0.028654
    16  C    0.082746  -0.062585
    17  O   -0.346792   0.009218
    18  C    0.070872  -0.503117
    19  C    0.190878  -0.220201
    20  H   -0.203155   0.368499
    21  H    0.075025   0.110371
    22  H   -0.140399   0.317159
    23  H   -0.239587   0.396182
    24  H    0.037251   0.116603
    25  H   -0.249499   0.423462
    26  H    0.114110   0.044644
    27  H   -0.093192   0.255072
    28  H    0.074271   0.088521
    29  H    0.066578   0.074192
    30  H    0.276710   0.045541
    31  H   -0.456250   0.643100
    32  H    0.038978   0.116441
    33  H   -0.035384   0.194467
    34  H    0.132096   0.023099
    35  H   -0.120238   0.270727
    36  H    0.179439   0.009647
    37  H    0.245656   0.062458
    38  H   -0.057265   0.253017
    39  H    0.036117   0.168433
    40  H   -0.618463   0.800895
    41  H   -0.012231   0.193909
 Sum of Mulliken charges =  -1.00000   1.00000

 Dipole moment (field-independent basis, Debye):
    X=             -0.2986    Y=              5.2336    Z=             -1.1823  Tot=              5.3738
 Quadrupole moment (field-independent basis, Debye-Ang):
   XX=           -218.2867   YY=           -171.4737   ZZ=           -152.1098
   XY=              4.4965   XZ=              4.8691   YZ=              3.5836

 Summary of Natural Population Analysis:

                                       Natural Population
                Natural  -----------------------------------------------
    Atom  No    Charge         Core      Valence    Rydberg      Total
 -----------------------------------------------------------------------
      C    1   -0.29805      0.99961     2.29062    0.00783     3.29805
      C    2    0.07507      0.99955     1.90914    0.01624     2.92493
      C    3   -0.29837      0.99960     2.29074    0.00802     3.29837
      C    4   -0.21193      0.99956     2.20207    0.01030     3.21193
      C    5   -0.00807      0.99959     1.99690    0.01158     3.00807
      O    6   -0.38826      0.99990     3.38172    0.00664     4.38826
      N    7   -0.30597      0.99968     2.79049    0.01579     3.80597
      C    8   -0.17771      0.99962     2.16939    0.00870     3.17771
      C    9    0.08037      0.99945     1.90708    0.01310     2.91963
      C   10   -0.09874      0.99946     2.08997    0.00931     3.09874
      C   11   -0.02441      0.99948     2.01489    0.01003     3.02441
      C   12    0.07816      0.99942     1.91250    0.00991     2.92184
      C   13   -0.11172      0.99953     2.10424    0.00796     3.11172
      C   14   -0.10390      0.99950     2.09582    0.00859     3.10390
      N   15   -0.30554      0.99964     2.79769    0.00821     3.80554
      C   16    0.34982      0.99967     1.62838    0.02212     2.65018
      O   17   -0.31614      0.99987     3.31045    0.00582     4.31614
      C   18   -0.23116      0.99959     2.22310    0.00847     3.23116
      C   19   -0.19665      0.99960     2.18734    0.00970     3.19665
      H   20    0.10547      0.00000     0.39355    0.00098     0.39453
      H   21    0.10276      0.00000     0.39606    0.00118     0.39724
      H   22    0.10712      0.00000     0.39173    0.00116     0.39288
      H   23    0.10418      0.00000     0.39458    0.00124     0.39582
      H   24    0.10579      0.00000     0.39269    0.00153     0.39421
      H   25    0.10445      0.00000     0.39374    0.00181     0.39555
      H   26    0.10568      0.00000     0.39296    0.00136     0.39432
      H   27    0.10486      0.00000     0.39414    0.00101     0.39514
      H   28    0.08227      0.00000     0.41660    0.00113     0.41773
      H   29    0.07378      0.00000     0.42477    0.00145     0.42622
      H   30    0.24188      0.00000     0.25371    0.00441     0.25812
      H   31    0.08925      0.00000     0.40896    0.00180     0.41075
      H   32    0.10108      0.00000     0.39804    0.00089     0.39892
      H   33    0.09899      0.00000     0.39986    0.00116     0.40101
      H   34    0.10909      0.00000     0.38855    0.00236     0.39091
      H   35    0.09975      0.00000     0.39909    0.00116     0.40025
      H   36    0.11685      0.00000     0.38092    0.00223     0.38315
      H   37    0.19662      0.00000     0.30066    0.00272     0.30338
      H   38    0.11331      0.00000     0.38526    0.00143     0.38669
      H   39    0.11366      0.00000     0.38537    0.00097     0.38634
      H   40    0.11288      0.00000     0.38502    0.00210     0.38712
      H   41    0.10350      0.00000     0.39513    0.00136     0.39650
 =======================================================================
   * Total *    0.00000     18.99233    51.77393    0.23374    71.00000

 Normal termination of Gaussian 16 at Mon Dec 14 18:57:51 2020.
