 Gaussian 16, Revision A.03,

 -----------------------------------------------------------
 # opt freq B3LYP/6-31G(d) empiricaldispersion=gd3bj scf=xqc
 -----------------------------------------------------------

 ------------------------------
 CID_13401984_JID_2826_neutraal
 ------------------------------
 Symbolic Z-matrix:
 Charge =  0 Multiplicity = 1

 SCF Done:  E(RB3LYP) =  -538.570497128     A.U. after   14 cycles
 SCF Done:  E(RB3LYP) =  -538.573892759     A.U. after   12 cycles
 SCF Done:  E(RB3LYP) =  -538.574178323     A.U. after   10 cycles
 SCF Done:  E(RB3LYP) =  -538.574166918     A.U. after   11 cycles
 SCF Done:  E(RB3LYP) =  -538.574241544     A.U. after   10 cycles
 SCF Done:  E(RB3LYP) =  -538.574281612     A.U. after    9 cycles
 SCF Done:  E(RB3LYP) =  -538.574291860     A.U. after    9 cycles
 SCF Done:  E(RB3LYP) =  -538.574297523     A.U. after    9 cycles
 SCF Done:  E(RB3LYP) =  -538.574299866     A.U. after    8 cycles
 SCF Done:  E(RB3LYP) =  -538.574305769     A.U. after    9 cycles
 SCF Done:  E(RB3LYP) =  -538.574379875     A.U. after   11 cycles
 SCF Done:  E(RB3LYP) =  -538.574378484     A.U. after   11 cycles
 SCF Done:  E(RB3LYP) =  -538.574394024     A.U. after   10 cycles
 SCF Done:  E(RB3LYP) =  -538.574395905     A.U. after   10 cycles
 SCF Done:  E(RB3LYP) =  -538.574395944     A.U. after    7 cycles
 SCF Done:  E(RB3LYP) =  -538.574395956     A.U. after    7 cycles
 Optimization completed on the basis of negligible forces.
    -- Stationary point found.
 Normal termination of Gaussian 16 at Wed Dec  9 18:10:05 2020.

 --------------------------------------------------------------------
 #N Geom=AllCheck Guess=TCheck SCRF=Check GenChk RB3LYP/6-31G(d) Freq
 --------------------------------------------------------------------

 Structure from the checkpoint file:  "JID_2826.chk"
 ------------------------------
 CID_13401984_JID_2826_neutraal
 ------------------------------
 Charge =  0 Multiplicity = 1

 SCF Done:  E(RB3LYP) =  -538.574395956     A.U. after    1 cycles

  Exact polarizability: 121.400  -1.077 108.899  -3.136   4.797  90.384
 Approx polarizability: 170.981  -3.223 149.131  -1.555   7.683 131.457

                      1                      2                      3
                      A                      A                      A
 Frequencies --     43.4692                69.6125                85.1940
 Red. masses --      2.1377                 3.5074                 2.9366
 Frc consts  --      0.0024                 0.0100                 0.0126
 IR Inten    --      0.7885                 3.2984                 0.3965

                      4                      5                      6
                      A                      A                      A
 Frequencies --     97.3035               106.5346               150.4469
 Red. masses --      3.9382                 2.8236                 2.1960
 Frc consts  --      0.0220                 0.0189                 0.0293
 IR Inten    --      3.0719                 0.2897                 3.9447

                      7                      8                      9
                      A                      A                      A
 Frequencies --    170.4441               187.8107               215.7263
 Red. masses --      2.1425                 1.0365                 1.8405
 Frc consts  --      0.0367                 0.0215                 0.0505
 IR Inten    --      3.2427                 0.1432                 1.2310

                     10                     11                     12
                      A                      A                      A
 Frequencies --    250.5753               281.7421               366.4272
 Red. masses --      1.6723                 2.8813                 3.7441
 Frc consts  --      0.0619                 0.1348                 0.2962
 IR Inten    --      1.3007                 1.7684                 2.0557

                     13                     14                     15
                      A                      A                      A
 Frequencies --    377.3505               433.4337               438.2197
 Red. masses --      2.8727                 3.7266                 2.9699
 Frc consts  --      0.2410                 0.4125                 0.3360
 IR Inten    --      2.4417                 6.4616                 7.4608

                     16                     17                     18
                      A                      A                      A
 Frequencies --    482.2302               556.4757               603.5084
 Red. masses --      1.9363                 2.4181                 2.7201
 Frc consts  --      0.2653                 0.4412                 0.5837
 IR Inten    --      0.9405                 7.6887                 7.5522

                     19                     20                     21
                      A                      A                      A
 Frequencies --    631.8436               684.9955               781.3576
 Red. masses --      3.7466                 4.8343                 1.5304
 Frc consts  --      0.8813                 1.3365                 0.5505
 IR Inten    --      7.9533                 2.0515                 3.6931

                     22                     23                     24
                      A                      A                      A
 Frequencies --    806.0377               817.4800               831.8043
 Red. masses --      1.3603                 1.2699                 2.3506
 Frc consts  --      0.5207                 0.5000                 0.9583
 IR Inten    --    109.5228                 7.2936                22.3595

                     25                     26                     27
                      A                      A                      A
 Frequencies --    882.1618               891.1718               916.1129
 Red. masses --      2.9547                 1.8284                 1.9653
 Frc consts  --      1.3547                 0.8555                 0.9718
 IR Inten    --      7.6986                 6.0333                 3.9113

                     28                     29                     30
                      A                      A                      A
 Frequencies --    927.1160               973.3208               982.1675
 Red. masses --      2.3725                 2.4761                 1.9356
 Frc consts  --      1.2015                 1.3821                 1.1001
 IR Inten    --      0.6244                 4.6479                19.2723

                     31                     32                     33
                      A                      A                      A
 Frequencies --   1009.4177              1039.8280              1061.1972
 Red. masses --      1.3387                 1.5813                 1.7395
 Frc consts  --      0.8036                 1.0074                 1.1542
 IR Inten    --      1.0518                13.7457                 4.7342

                     34                     35                     36
                      A                      A                      A
 Frequencies --   1070.1251              1076.4121              1103.8540
 Red. masses --      1.8945                 2.6124                 2.3756
 Frc consts  --      1.2782                 1.7834                 1.7055
 IR Inten    --      2.2845                 7.0176                15.9848

                     37                     38                     39
                      A                      A                      A
 Frequencies --   1115.0112              1120.6974              1173.3143
 Red. masses --      4.1966                 1.9787                 2.0987
 Frc consts  --      3.0740                 1.4642                 1.7023
 IR Inten    --     28.9130                 1.0570                13.8389

                     40                     41                     42
                      A                      A                      A
 Frequencies --   1231.0399              1251.2908              1258.8779
 Red. masses --      1.4214                 2.2290                 1.4999
 Frc consts  --      1.2692                 2.0563                 1.4004
 IR Inten    --     15.0135                10.2452                 8.8676

                     43                     44                     45
                      A                      A                      A
 Frequencies --   1299.8497              1310.4224              1314.2549
 Red. masses --      1.3802                 1.3564                 1.2966
 Frc consts  --      1.3740                 1.3723                 1.3195
 IR Inten    --     43.3890                42.0291                23.6851

                     46                     47                     48
                      A                      A                      A
 Frequencies --   1319.2560              1346.0940              1364.2497
 Red. masses --      1.2530                 1.5707                 1.2141
 Frc consts  --      1.2848                 1.6768                 1.3313
 IR Inten    --      2.5902                17.3788                 6.9319

                     49                     50                     51
                      A                      A                      A
 Frequencies --   1384.0754              1390.1781              1409.5895
 Red. masses --      1.3440                 1.5504                 1.3005
 Frc consts  --      1.5169                 1.7654                 1.5225
 IR Inten    --     15.6419                30.2584                 7.2247

                     52                     53                     54
                      A                      A                      A
 Frequencies --   1415.6427              1426.7104              1448.2661
 Red. masses --      1.3952                 1.3553                 1.2769
 Frc consts  --      1.6474                 1.6254                 1.5780
 IR Inten    --     27.2831                18.9402                11.5042

                     55                     56                     57
                      A                      A                      A
 Frequencies --   1461.4585              1485.1604              1505.0776
 Red. masses --      1.7449                 1.1451                 1.0729
 Frc consts  --      2.1958                 1.4881                 1.4320
 IR Inten    --    118.0710                13.3259                 7.9820

                     58                     59                     60
                      A                      A                      A
 Frequencies --   1515.7514              1517.1623              1520.5716
 Red. masses --      1.0804                 1.0687                 1.0667
 Frc consts  --      1.4624                 1.4494                 1.4532
 IR Inten    --      6.8477                 0.8655                 3.3217

                     61                     62                     63
                      A                      A                      A
 Frequencies --   1525.2107              1529.2555              1531.1598
 Red. masses --      1.0707                 1.0783                 1.0613
 Frc consts  --      1.4675                 1.4858                 1.4660
 IR Inten    --     11.2110                 8.8848                 9.6072

                     64                     65                     66
                      A                      A                      A
 Frequencies --   1539.1056              1550.6492              1759.2410
 Red. masses --      1.0715                 1.0956                 9.2156
 Frc consts  --      1.4955                 1.5521                16.8044
 IR Inten    --      6.0872                 3.1924               282.2474

                     67                     68                     69
                      A                      A                      A
 Frequencies --   3035.0192              3057.4708              3057.7443
 Red. masses --      1.0605                 1.0464                 1.0539
 Frc consts  --      5.7556                 5.7634                 5.8055
 IR Inten    --     29.0294                20.8618                75.4361

                     70                     71                     72
                      A                      A                      A
 Frequencies --   3060.0241              3062.7082              3067.4133
 Red. masses --      1.0477                 1.0836                 1.0744
 Frc consts  --      5.7800                 5.9889                 5.9562
 IR Inten    --      7.7726                19.9333                14.0693

                     73                     74                     75
                      A                      A                      A
 Frequencies --   3076.3428              3080.1684              3091.0472
 Red. masses --      1.0744                 1.0752                 1.0639
 Frc consts  --      5.9909                 6.0101                 5.9892
 IR Inten    --     27.0815                32.8851                47.2493

                     76                     77                     78
                      A                      A                      A
 Frequencies --   3101.3582              3119.5600              3121.0106
 Red. masses --      1.1012                 1.1033                 1.1025
 Frc consts  --      6.2404                 6.3260                 6.3272
 IR Inten    --     13.8801                43.2916                22.0426

                     79                     80                     81
                      A                      A                      A
 Frequencies --   3125.9615              3134.4002              3137.0409
 Red. masses --      1.0987                 1.1027                 1.1044
 Frc consts  --      6.3253                 6.3827                 6.4037
 IR Inten    --     19.3280                22.5382                46.5099

                     82                     83                     84
                      A                      A                      A
 Frequencies --   3155.2024              3179.0857              3493.1510
 Red. masses --      1.0958                 1.1004                 1.0751
 Frc consts  --      6.4276                 6.5524                 7.7290
 IR Inten    --      6.2645                 8.9061                 0.8460

 - Thermochemistry -
 -------------------
 Temperature   298.150 Kelvin.  Pressure   1.00000 Atm.
 Atom     1 has atomic number  6 and mass  12.00000

 Molecular mass:   170.14191 amu.
 Principal axes and moments of inertia in atomic units:
                           1         2         3
     Eigenvalues --  1469.527872587.764723220.59593
           X            0.99932   0.03132  -0.01948
           Y           -0.03113   0.99946   0.01029
           Z            0.01979  -0.00968   0.99976
 This molecule is an asymmetric top.
 Rotational symmetry number  1.
 Warning -- assumption of classical behavior for rotation
           may cause significant error
 Rotational temperatures (Kelvin)      0.05894     0.03347     0.02689
 Rotational constants (GHZ):           1.22811     0.69741     0.56037
 Zero-point vibrational energy     715224.8 (Joules/Mol)
                                  170.94282 (Kcal/Mol)
 Warning -- explicit consideration of  18 degrees of freedom as
           vibrations may cause significant error
 Vibrational temperatures:     62.54   100.16   122.58   140.00   153.28
          (Kelvin)            216.46   245.23   270.22   310.38   360.52
                              405.36   527.21   542.92   623.61   630.50
                              693.82   800.64   868.31   909.08   985.56
                             1124.20  1159.71  1176.17  1196.78  1269.23
                             1282.20  1318.08  1333.91  1400.39  1413.12
                             1452.33  1496.08  1526.83  1539.67  1548.72
                             1588.20  1604.25  1612.43  1688.14  1771.19
                             1800.33  1811.24  1870.19  1885.41  1890.92
                             1898.12  1936.73  1962.85  1991.38  2000.16
                             2028.08  2036.79  2052.72  2083.73  2102.71
                             2136.81  2165.47  2180.83  2182.86  2187.76
                             2194.44  2200.26  2203.00  2214.43  2231.04
                             2531.16  4366.72  4399.02  4399.41  4402.69
                             4406.55  4413.32  4426.17  4431.68  4447.33
                             4462.16  4488.35  4490.44  4497.56  4509.70
                             4513.50  4539.63  4574.00  5025.87

 Zero-point correction=                           0.272415 (Hartree/Particle)
 Thermal correction to Energy=                    0.285519
 Thermal correction to Enthalpy=                  0.286464
 Thermal correction to Gibbs Free Energy=         0.232533
 Sum of electronic and zero-point Energies=           -538.301981
 Sum of electronic and thermal Energies=              -538.288877
 Sum of electronic and thermal Enthalpies=            -538.287932
 Sum of electronic and thermal Free Energies=         -538.341863

                     E (Thermal)             CV                S
                      KCal/Mol        Cal/Mol-Kelvin    Cal/Mol-Kelvin
 Total                  179.166             48.548            113.507
 Electronic               0.000              0.000              0.000
 Translational            0.889              2.981             41.302
 Rotational               0.889              2.981             30.883
 Vibrational            177.389             42.586             41.322
 Vibration     1          0.595              1.980              5.094
 Vibration     2          0.598              1.969              4.164
 Vibration     3          0.601              1.959              3.768
 Vibration     4          0.603              1.951              3.508
 Vibration     5          0.605              1.944              3.331
 Vibration     6          0.618              1.902              2.667
 Vibration     7          0.626              1.879              2.431
 Vibration     8          0.632              1.857              2.249
 Vibration     9          0.645              1.817              1.995
 Vibration    10          0.663              1.762              1.727
 Vibration    11          0.681              1.707              1.523
 Vibration    12          0.739              1.541              1.095
 Vibration    13          0.748              1.518              1.050
 Vibration    14          0.794              1.397              0.848
 Vibration    15          0.798              1.387              0.832
 Vibration    16          0.838              1.289              0.704
 Vibration    17          0.912              1.126              0.531
 Vibration    18          0.962              1.024              0.444

 Optimization completed on the basis of negligible forces.
    -- Stationary point found.
 Normal termination of Gaussian 16 at Wed Dec  9 18:18:31 2020.

 ----------------------------------------------------------------------
 # B3LYP/6-311++G(d,p) empiricaldispersion=gd3bj scf=xqc pop=npa geom=c
 heck
 ----------------------------------------------------------------------

 --------------------------------------
 CID_13401984_JID_2826_Energie_neutraal
 --------------------------------------
 Structure from the checkpoint file:  "JID_2826.chk"
 Charge =  0 Multiplicity = 1

 SCF Done:  E(RB3LYP) =  -538.731235976     A.U. after   14 cycles
 Normal termination of Gaussian 16 at Wed Dec  9 18:21:44 2020.

 ----------------------------------------------------------------------
 # B3LYP/6-311++G(d,p) empiricaldispersion=gd3bj scf=xqc pop=npa geom=c
 heck
 ----------------------------------------------------------------------

 ------------------------------------
 CID_13401984_JID_2826_Energie_kation
 ------------------------------------
 Structure from the checkpoint file:  "JID_2826.chk"
 Charge =  1 Multiplicity = 2

 SCF Done:  E(UB3LYP) =  -538.433448041     A.U. after   24 cycles
 Normal termination of Gaussian 16 at Wed Dec  9 18:28:55 2020.
 Gaussian 16:  ES64L-G16RevA.03 25-Dec-2016

 ----------------------------------------------------------------------
 # B3LYP/6-311++G(d,p) empiricaldispersion=gd3bj scf=xqc pop=npa geom=c
 heck
 ----------------------------------------------------------------------

 -----------------------------------
 CID_13401984_JID_2826_Energie_anion
 -----------------------------------
 Structure from the checkpoint file:  "JID_2826.chk"
 Charge = -1 Multiplicity = 2

                         Standard orientation:
 ---------------------------------------------------------------------
 Center     Atomic      Atomic             Coordinates (Angstroms)
 Number     Number       Type             X           Y           Z
 ---------------------------------------------------------------------
      1          6           0       -1.843173   -1.910574    1.219235
      2          6           0       -1.051691   -2.176915   -0.062649
      3          6           0       -1.092258   -1.007476   -1.055418
      4          7           0       -0.606455    0.270514   -0.524627
      5          6           0        0.817300    0.496212   -0.279399
      6          6           0        1.802521   -0.262730   -1.190825
      7          6           0        3.123025   -0.280280   -0.366548
      8          7           0        2.813192    0.205996    1.001108
      9          6           0        1.356119    0.131937    1.125913
     10          6           0       -1.559275    1.206477   -0.175983
     11          8           0       -2.762018    0.991317   -0.295642
     12          6           0       -1.075480    2.553478    0.347445
     13          1           0       -1.415304   -1.073075    1.780462
     14          1           0       -1.838819   -2.788916    1.873771
     15          1           0       -2.881229   -1.649794    0.990859
     16          1           0       -0.012310   -2.431366    0.184272
     17          1           0       -1.463115   -3.054679   -0.579056
     18          1           0       -0.522187   -1.256000   -1.956153
     19          1           0       -2.124676   -0.825107   -1.354791
     20          1           0        1.009637    1.563827   -0.423269
     21          1           0        1.911666    0.214145   -2.169113
     22          1           0        1.464014   -1.287140   -1.362339
     23          1           0        3.519661   -1.300328   -0.309834
     24          1           0        3.903090    0.342589   -0.814543
     25          1           0        3.089105    1.183434    1.067705
     26          1           0        0.998534    0.795106    1.918875
     27          1           0        1.058242   -0.889994    1.388451
     28          1           0       -0.420952    2.457363    1.219121
     29          1           0       -0.527814    3.109044   -0.422742
     30          1           0       -1.961090    3.124010    0.627460
 ---------------------------------------------------------------------

 SCF Done:  E(UB3LYP) =  -538.721419639     A.U. after   31 cycles

 The electronic state is 2-A.
 Alpha  occ. eigenvalues --  -18.98184 -14.23879 -14.19058 -10.16837 -10.10618
 Alpha  occ. eigenvalues --  -10.09895 -10.08670 -10.08538 -10.07639 -10.06792
 Alpha  occ. eigenvalues --  -10.06579 -10.06485  -0.93453  -0.83826  -0.80610
 Alpha  occ. eigenvalues --   -0.69182  -0.65561  -0.63762  -0.61920  -0.58336
 Alpha  occ. eigenvalues --   -0.51085  -0.50557  -0.48431  -0.44574  -0.40771
 Alpha  occ. eigenvalues --   -0.39663  -0.37802  -0.36507  -0.34807  -0.33942
 Alpha  occ. eigenvalues --   -0.32657  -0.32510  -0.31596  -0.30414  -0.29555
 Alpha  occ. eigenvalues --   -0.28069  -0.27514  -0.26871  -0.25908  -0.25217
 Alpha  occ. eigenvalues --   -0.24651  -0.24574  -0.23667  -0.22671  -0.15495
 Alpha  occ. eigenvalues --   -0.15025  -0.11968   0.04422
 Alpha virt. eigenvalues --    0.06614   0.07581   0.08282   0.09185   0.09248
 Alpha virt. eigenvalues --    0.09928   0.10202   0.11142   0.11846   0.12062
 Alpha virt. eigenvalues --    0.12302   0.12873   0.13369   0.13606   0.14108

  Beta  occ. eigenvalues --  -18.98176 -14.23878 -14.19029 -10.16831 -10.10600
  Beta  occ. eigenvalues --  -10.09886 -10.08651 -10.08508 -10.07626 -10.06752
  Beta  occ. eigenvalues --  -10.06552 -10.06478  -0.93439  -0.83803  -0.80562
  Beta  occ. eigenvalues --   -0.69160  -0.65506  -0.63716  -0.61861  -0.58305
  Beta  occ. eigenvalues --   -0.51023  -0.50513  -0.48352  -0.44535  -0.40671
  Beta  occ. eigenvalues --   -0.39620  -0.37769  -0.36480  -0.34785  -0.33904
  Beta  occ. eigenvalues --   -0.32606  -0.32474  -0.31561  -0.30389  -0.29523
  Beta  occ. eigenvalues --   -0.28040  -0.27476  -0.26820  -0.25876  -0.25188
  Beta  occ. eigenvalues --   -0.24615  -0.24527  -0.23630  -0.22628  -0.15481
  Beta  occ. eigenvalues --   -0.14996  -0.11934
  Beta virt. eigenvalues --    0.06621   0.07737   0.08056   0.08627   0.09829
  Beta virt. eigenvalues --    0.09901   0.10329   0.10505   0.11284   0.12017
  Beta virt. eigenvalues --    0.12405   0.12748   0.13101   0.13808   0.13888

 Mulliken charges and spin densities:
               1          2
     1  C   -0.224488  -0.321331
     2  C   -0.050984  -0.146877
     3  C   -0.227444  -0.009523
     4  N    0.295813   0.041426
     5  C   -2.026228   1.344367
     6  C    0.157079  -0.135909
     7  C    1.130755  -1.716775
     8  N   -0.350448   0.318649
     9  C    1.578935  -1.992352
    10  C   -0.695819   0.863641
    11  O   -0.349314   0.000900
    12  C    1.364358  -1.893744
    13  H    0.158173   0.004658
    14  H    0.011249   0.115031
    15  H    0.122428   0.034999
    16  H    0.047658   0.099550
    17  H   -0.114794   0.264944
    18  H   -0.204855   0.369253
    19  H    0.125264   0.080781
    20  H    0.093587   0.100978
    21  H   -0.510074   0.699008
    22  H    0.142887  -0.060101
    23  H    0.022591   0.141179
    24  H   -0.631274   0.805869
    25  H   -0.295095   0.543958
    26  H    0.126851   0.040951
    27  H    0.057113   0.128115
    28  H   -0.493894   0.648823
    29  H   -0.398481   0.579922
    30  H    0.138454   0.049612
 Sum of Mulliken charges =  -1.00000   1.00000

 Dipole moment (field-independent basis, Debye):
    X=             -4.5066    Y=             -4.8630    Z=              0.9125  Tot=              6.6926
 Quadrupole moment (field-independent basis, Debye-Ang):
   XX=           -141.4930   YY=           -118.8572   ZZ=           -111.0627
   XY=             -7.8121   XZ=              0.2915   YZ=              0.2276

 Summary of Natural Population Analysis:

                                       Natural Population
                Natural  -----------------------------------------------
    Atom  No    Charge         Core      Valence    Rydberg      Total
 -----------------------------------------------------------------------
      C    1   -0.28816      0.99966     2.28397    0.00453     3.28816
      C    2   -0.19629      0.99963     2.18938    0.00728     3.19629
      C    3   -0.08899      0.99959     2.07846    0.01094     3.08899
      N    4   -0.26063      0.99963     2.74780    0.01320     3.76063
      C    5   -0.01993      0.99955     2.00426    0.01612     3.01993
      C    6   -0.20216      0.99962     2.19400    0.00854     3.20216
      C    7   -0.08774      0.99964     2.07717    0.01093     3.08774
      N    8   -0.33709      0.99976     2.82461    0.01271     3.83709
      C    9   -0.09135      0.99960     2.08005    0.01170     3.09135
      C   10    0.34933      0.99966     1.62866    0.02236     2.65067
      O   11   -0.33311      0.99988     3.32781    0.00542     4.33311
      C   12   -0.33176      0.99962     2.32689    0.00525     3.33176
      H   13    0.09932      0.00000     0.39972    0.00096     0.40068
      H   14    0.09505      0.00000     0.40418    0.00078     0.40495
      H   15    0.10256      0.00000     0.39650    0.00094     0.39744
      H   16    0.09358      0.00000     0.40495    0.00148     0.40642
      H   17    0.09519      0.00000     0.40376    0.00105     0.40481
      H   18    0.09673      0.00000     0.40217    0.00110     0.40327
      H   19    0.11338      0.00000     0.38529    0.00133     0.38662
      H   20    0.10623      0.00000     0.38931    0.00446     0.39377
      H   21    0.10785      0.00000     0.38989    0.00226     0.39215
      H   22    0.09598      0.00000     0.40234    0.00168     0.40402
      H   23    0.08635      0.00000     0.41228    0.00136     0.41365
      H   24    0.09886      0.00000     0.39850    0.00263     0.40114
      H   25    0.17751      0.00000     0.31665    0.00584     0.32249
      H   26    0.09819      0.00000     0.40050    0.00130     0.40181
      H   27    0.08750      0.00000     0.41068    0.00182     0.41250
      H   28    0.11023      0.00000     0.38829    0.00148     0.38977
      H   29    0.11259      0.00000     0.38614    0.00128     0.38741
      H   30    0.11079      0.00000     0.38836    0.00085     0.38921
 =======================================================================
   * Total *   -0.00000     11.99585    34.84256    0.16159    47.00000

 Normal termination of Gaussian 16 at Wed Dec  9 18:37:53 2020.
