 Gaussian 16, Revision A.03,

 -----------------------------------------------------------
 # opt freq B3LYP/6-31G(d) empiricaldispersion=gd3bj scf=xqc
 -----------------------------------------------------------

 -------------------------------
 CID_112338723_JID_6306_neutraal
 -------------------------------
 Symbolic Z-matrix:
 Charge =  0 Multiplicity = 1

 SCF Done:  E(RB3LYP) =  -726.880220706     A.U. after   15 cycles
 SCF Done:  E(RB3LYP) =  -726.883970448     A.U. after   13 cycles
 SCF Done:  E(RB3LYP) =  -726.884268994     A.U. after   12 cycles
 SCF Done:  E(RB3LYP) =  -726.884894068     A.U. after   12 cycles
 SCF Done:  E(RB3LYP) =  -726.884925293     A.U. after   12 cycles
 SCF Done:  E(RB3LYP) =  -726.885069595     A.U. after   11 cycles
 SCF Done:  E(RB3LYP) =  -726.885137198     A.U. after   11 cycles
 SCF Done:  E(RB3LYP) =  -726.885182592     A.U. after   12 cycles
 SCF Done:  E(RB3LYP) =  -726.885193918     A.U. after    9 cycles
 SCF Done:  E(RB3LYP) =  -726.885195990     A.U. after    9 cycles
 SCF Done:  E(RB3LYP) =  -726.885196257     A.U. after    8 cycles
 SCF Done:  E(RB3LYP) =  -726.885196381     A.U. after    8 cycles
 SCF Done:  E(RB3LYP) =  -726.885196397     A.U. after    7 cycles
 SCF Done:  E(RB3LYP) =  -726.885196395     A.U. after    6 cycles
 Optimization completed.
    -- Stationary point found.
 Normal termination of Gaussian 16 at Thu Dec 10 22:07:28 2020.

 --------------------------------------------------------------------
 #N Geom=AllCheck Guess=TCheck SCRF=Check GenChk RB3LYP/6-31G(d) Freq
 --------------------------------------------------------------------

 Structure from the checkpoint file:  "JID_6306.chk"
 -------------------------------
 CID_112338723_JID_6306_neutraal
 -------------------------------
 Charge =  0 Multiplicity = 1

 SCF Done:  E(RB3LYP) =  -726.885196395     A.U. after    1 cycles

  Exact polarizability: 162.588  12.029 111.427  -5.379   8.378 131.447
 Approx polarizability: 222.051  27.450 171.515  -9.274  25.490 223.981

                      1                      2                      3
                      A                      A                      A
 Frequencies --     20.8932                50.5888                56.9978
 Red. masses --      4.2947                 4.8634                 4.3551
 Frc consts  --      0.0011                 0.0073                 0.0083
 IR Inten    --      0.5203                 0.3395                 0.6079

                      4                      5                      6
                      A                      A                      A
 Frequencies --     70.5714                80.5609                98.9633
 Red. masses --      4.0943                 5.4784                 3.2560
 Frc consts  --      0.0120                 0.0209                 0.0188
 IR Inten    --      0.2564                 2.5150                 1.5302

                      7                      8                      9
                      A                      A                      A
 Frequencies --    136.8935               182.9380               200.3212
 Red. masses --      5.8091                 3.0467                 4.0502
 Frc consts  --      0.0641                 0.0601                 0.0958
 IR Inten    --      1.1424                 3.2639                 4.3838

                     10                     11                     12
                      A                      A                      A
 Frequencies --    218.7833               250.2874               284.2369
 Red. masses --      4.3598                 1.9596                 3.5070
 Frc consts  --      0.1230                 0.0723                 0.1669
 IR Inten    --     10.6651                31.7600                 5.0834

                     13                     14                     15
                      A                      A                      A
 Frequencies --    291.6693               346.0198               374.1805
 Red. masses --      1.3751                 3.4534                 3.8622
 Frc consts  --      0.0689                 0.2436                 0.3186
 IR Inten    --     87.0255                 3.6503                 0.7346

                     16                     17                     18
                      A                      A                      A
 Frequencies --    393.4491               413.7722               433.7628
 Red. masses --      2.7562                 2.9897                 4.6033
 Frc consts  --      0.2514                 0.3016                 0.5103
 IR Inten    --      0.0024                 6.0119                 5.0781

                     19                     20                     21
                      A                      A                      A
 Frequencies --    467.5390               575.1228               603.4407
 Red. masses --      4.0017                 3.3894                 3.9840
 Frc consts  --      0.5154                 0.6605                 0.8547
 IR Inten    --      2.4988                 7.6554                45.0189

                     22                     23                     24
                      A                      A                      A
 Frequencies --    637.5374               683.9752               708.5774
 Red. masses --      3.0875                 6.4821                 2.8064
 Frc consts  --      0.7394                 1.7867                 0.8302
 IR Inten    --     36.9954                 1.0324                14.0169

                     25                     26                     27
                      A                      A                      A
 Frequencies --    761.4220               772.9192               784.9141
 Red. masses --      3.7563                 2.3910                 1.3039
 Frc consts  --      1.2831                 0.8416                 0.4733
 IR Inten    --      2.0323                 6.4482                 2.8358

                     28                     29                     30
                      A                      A                      A
 Frequencies --    814.4447               842.1940               855.0209
 Red. masses --      1.5134                 1.3495                 1.8837
 Frc consts  --      0.5915                 0.5640                 0.8114
 IR Inten    --     75.8311                19.6757                 3.8657

                     31                     32                     33
                      A                      A                      A
 Frequencies --    865.5287               880.1063               903.5483
 Red. masses --      1.8741                 2.1827                 1.2468
 Frc consts  --      0.8272                 0.9961                 0.5997
 IR Inten    --     20.1140                 7.4171                 1.3759

                     34                     35                     36
                      A                      A                      A
 Frequencies --    916.6578               953.2650               965.4944
 Red. masses --      2.3060                 3.1706                 2.2930
 Frc consts  --      1.1416                 1.6976                 1.2594
 IR Inten    --     25.2465                 4.9396                16.6285

                     37                     38                     39
                      A                      A                      A
 Frequencies --    985.2867               995.3729              1014.9752
 Red. masses --      1.3044                 1.4555                 7.0055
 Frc consts  --      0.7461                 0.8496                 4.2521
 IR Inten    --      1.3061                 0.4395                 5.8491

                     40                     41                     42
                      A                      A                      A
 Frequencies --   1033.9903              1053.2715              1066.6303
 Red. masses --      2.7661                 1.3908                 1.3519
 Frc consts  --      1.7424                 0.9091                 0.9062
 IR Inten    --     22.5864                 4.2788                 6.8216

                     43                     44                     45
                      A                      A                      A
 Frequencies --   1089.3179              1100.5024              1114.1346
 Red. masses --      1.3885                 1.9943                 2.6710
 Frc consts  --      0.9707                 1.4231                 1.9534
 IR Inten    --      2.2952                 3.4376                25.5733

                     46                     47                     48
                      A                      A                      A
 Frequencies --   1116.9740              1134.4655              1155.0779
 Red. masses --      1.6598                 2.3470                 1.1014
 Frc consts  --      1.2201                 1.7797                 0.8658
 IR Inten    --      5.1941                10.1546                 2.5188

                     49                     50                     51
                      A                      A                      A
 Frequencies --   1178.5841              1203.2416              1212.0566
 Red. masses --      3.0257                 2.1402                 1.4476
 Frc consts  --      2.4762                 1.8256                 1.2530
 IR Inten    --     15.3865                15.6756                 0.2468

                     52                     53                     54
                      A                      A                      A
 Frequencies --   1232.5116              1237.6093              1253.2761
 Red. masses --      1.3153                 1.8555                 1.2877
 Frc consts  --      1.1772                 1.6745                 1.1917
 IR Inten    --     71.0616                 8.7078                 0.7345

                     55                     56                     57
                      A                      A                      A
 Frequencies --   1265.6078              1300.9420              1327.3473
 Red. masses --      1.2124                10.2521                 1.3552
 Frc consts  --      1.1441                10.2230                 1.4068
 IR Inten    --      0.4248                 1.9645                15.3990

                     58                     59                     60
                      A                      A                      A
 Frequencies --   1331.2270              1348.9414              1364.2480
 Red. masses --      1.2854                 1.2544                 1.3829
 Frc consts  --      1.3421                 1.3449                 1.5164
 IR Inten    --      6.5599                 6.3423                 2.6292

                     61                     62                     63
                      A                      A                      A
 Frequencies --   1394.1476              1411.8022              1448.0136
 Red. masses --      2.5673                 1.8592                 1.5297
 Frc consts  --      2.9399                 2.1833                 1.8897
 IR Inten    --    195.0565                74.9341                 9.6833

                     64                     65                     66
                      A                      A                      A
 Frequencies --   1455.6880              1470.4236              1496.6992
 Red. masses --      1.9450                 1.4457                 1.0939
 Frc consts  --      2.4284                 1.8417                 1.4437
 IR Inten    --     28.0980                 6.5580                 2.3682

                     67                     68                     69
                      A                      A                      A
 Frequencies --   1498.7595              1508.9774              1537.7006
 Red. masses --      1.1040                 1.3891                 1.3668
 Frc consts  --      1.4611                 1.8636                 1.9041
 IR Inten    --      4.9026                64.4697                 2.6783

                     70                     71                     72
                      A                      A                      A
 Frequencies --   1541.4529              1556.8407              1613.6952
 Red. masses --      2.1889                 1.0876                 7.5248
 Frc consts  --      3.0643                 1.5531                11.5448
 IR Inten    --      4.4823                 7.0234                23.0886

                     73                     74                     75
                      A                      A                      A
 Frequencies --   1655.1678              1765.3202              3012.5068
 Red. masses --      5.4363                 8.8078                 1.0566
 Frc consts  --      8.7748                16.1721                 5.6497
 IR Inten    --     12.0117               357.0093                62.8862

                     76                     77                     78
                      A                      A                      A
 Frequencies --   3042.6249              3063.1643              3097.1312
 Red. masses --      1.1034                 1.0649                 1.0841
 Frc consts  --      6.0182                 5.8872                 6.1268
 IR Inten    --     39.8395                33.8378                14.5160

                     79                     80                     81
                      A                      A                      A
 Frequencies --   3106.2836              3142.7879              3156.6068
 Red. masses --      1.1038                 1.0539                 1.0579
 Frc consts  --      6.2751                 6.1332                 6.2109
 IR Inten    --     29.6715                16.9402                14.0693

                     82                     83                     84
                      A                      A                      A
 Frequencies --   3162.8494              3171.9408              3177.5501
 Red. masses --      1.0869                 1.0884                 1.0907
 Frc consts  --      6.4059                 6.4517                 6.4885
 IR Inten    --      8.7984                29.6295                24.6257

                     85                     86                     87
                      A                      A                      A
 Frequencies --   3210.6081              3219.6323              3227.0036
 Red. masses --      1.0933                 1.1182                 1.0932
 Frc consts  --      6.6398                 6.8296                 6.7071
 IR Inten    --      9.1325                 5.3499                 4.0466

                     88                     89                     90
                      A                      A                      A
 Frequencies --   3240.1631              3540.4932              3765.8661
 Red. masses --      1.1164                 1.0753                 1.0666
 Frc consts  --      6.9055                 7.9417                 8.9122
 IR Inten    --     16.0773               124.5097                24.0696

 - Thermochemistry -
 -------------------
 Temperature   298.150 Kelvin.  Pressure   1.00000 Atm.
 Atom     1 has atomic number  6 and mass  12.00000

 Molecular mass:   220.12118 amu.
 Principal axes and moments of inertia in atomic units:
                           1         2         3
     Eigenvalues --  2036.476675429.847495985.31158
           X            0.99996  -0.00531  -0.00699
           Y            0.00500   0.99900  -0.04447
           Z            0.00722   0.04443   0.99899
 This molecule is an asymmetric top.
 Rotational symmetry number  1.
 Warning -- assumption of classical behavior for rotation
           may cause significant error
 Rotational temperatures (Kelvin)      0.04253     0.01595     0.01447
 Rotational constants (GHZ):           0.88621     0.33237     0.30153
 Zero-point vibrational energy     710008.1 (Joules/Mol)
                                  169.69602 (Kcal/Mol)
 Warning -- explicit consideration of  21 degrees of freedom as
           vibrations may cause significant error
 Vibrational temperatures:     30.06    72.79    82.01   101.54   115.91
          (Kelvin)            142.39   196.96   263.21   288.22   314.78
                              360.11   408.95   419.65   497.85   538.36
                              566.09   595.33   624.09   672.68   827.47
                              868.22   917.27   984.09  1019.48  1095.52
                             1112.06  1129.32  1171.80  1211.73  1230.18
                             1245.30  1266.28  1300.00  1318.87  1371.54
                             1389.13  1417.61  1432.12  1460.32  1487.68
                             1515.42  1534.64  1567.29  1583.38  1602.99
                             1607.08  1632.24  1661.90  1695.72  1731.20
                             1743.88  1773.31  1780.64  1803.18  1820.93
                             1871.77  1909.76  1915.34  1940.83  1962.85
                             2005.87  2031.27  2083.37  2094.41  2115.61
                             2153.42  2156.38  2171.08  2212.41  2217.81
                             2239.95  2321.75  2381.42  2539.90  4334.33
                             4377.66  4407.21  4456.08  4469.25  4521.77
                             4541.65  4550.63  4563.72  4571.79  4619.35
                             4632.33  4642.94  4661.87  5093.98  5418.24

 Zero-point correction=                           0.270428 (Hartree/Particle)
 Thermal correction to Energy=                    0.285696
 Thermal correction to Enthalpy=                  0.286640
 Thermal correction to Gibbs Free Energy=         0.226261
 Sum of electronic and zero-point Energies=           -726.614769
 Sum of electronic and thermal Energies=              -726.599500
 Sum of electronic and thermal Enthalpies=            -726.598556
 Sum of electronic and thermal Free Energies=         -726.658936

                     E (Thermal)             CV                S
                      KCal/Mol        Cal/Mol-Kelvin    Cal/Mol-Kelvin
 Total                  179.277             57.309            127.080
 Electronic               0.000              0.000              0.000
 Translational            0.889              2.981             42.070
 Rotational               0.889              2.981             32.559
 Vibrational            177.500             51.348             52.451
 Vibration     1          0.593              1.986              6.547
 Vibration     2          0.595              1.977              4.794
 Vibration     3          0.596              1.975              4.559
 Vibration     4          0.598              1.968              4.137
 Vibration     5          0.600              1.962              3.877
 Vibration     6          0.604              1.950              3.475
 Vibration     7          0.614              1.916              2.847
 Vibration     8          0.630              1.863              2.298
 Vibration     9          0.638              1.839              2.130
 Vibration    10          0.647              1.812              1.969
 Vibration    11          0.663              1.762              1.729
 Vibration    12          0.683              1.703              1.508
 Vibration    13          0.687              1.689              1.464
 Vibration    14          0.724              1.583              1.184
 Vibration    15          0.745              1.525              1.063
 Vibration    16          0.761              1.484              0.987
 Vibration    17          0.777              1.440              0.913
 Vibration    18          0.795              1.397              0.846
 Vibration    19          0.825              1.322              0.744
 Vibration    20          0.931              1.085              0.494
 Vibration    21          0.962              1.025              0.444

                           ! Non-Optimized Parameters !
 Normal termination of Gaussian 16 at Thu Dec 10 22:18:36 2020.

 ----------------------------------------------------------------------
 # B3LYP/6-311++G(d,p) empiricaldispersion=gd3bj scf=xqc pop=npa geom=c
 heck
 ----------------------------------------------------------------------

 ---------------------------------------
 CID_112338723_JID_6306_Energie_neutraal
 ---------------------------------------
 Structure from the checkpoint file:  "JID_6306.chk"
 Charge =  0 Multiplicity = 1

 SCF Done:  E(RB3LYP) =  -727.098641622     A.U. after   16 cycles
 Normal termination of Gaussian 16 at Thu Dec 10 22:24:00 2020.

 ----------------------------------------------------------------------
 # B3LYP/6-311++G(d,p) empiricaldispersion=gd3bj scf=xqc pop=npa geom=c
 heck
 ----------------------------------------------------------------------

 -------------------------------------
 CID_112338723_JID_6306_Energie_kation
 -------------------------------------
 Structure from the checkpoint file:  "JID_6306.chk"
 Charge =  1 Multiplicity = 2

 SCF Done:  E(UB3LYP) =  -726.780347494     A.U. after   30 cycles
 Normal termination of Gaussian 16 at Thu Dec 10 22:38:07 2020.
 Gaussian 16:  ES64L-G16RevA.03 25-Dec-2016

 ----------------------------------------------------------------------
 # B3LYP/6-311++G(d,p) empiricaldispersion=gd3bj scf=xqc pop=npa geom=c
 heck
 ----------------------------------------------------------------------

 ------------------------------------
 CID_112338723_JID_6306_Energie_anion
 ------------------------------------
 Structure from the checkpoint file:  "JID_6306.chk"
 Charge = -1 Multiplicity = 2

                         Standard orientation:
 ---------------------------------------------------------------------
 Center     Atomic      Atomic             Coordinates (Angstroms)
 Number     Number       Type             X           Y           Z
 ---------------------------------------------------------------------
      1          6           0       -1.417519    2.696237   -0.502780
      2          6           0       -0.304499    2.023310   -1.269310
      3          6           0       -1.443791    1.203387   -0.720126
      4          6           0       -1.212231    0.265530    0.452419
      5          6           0       -2.440930    0.146471    1.375238
      6          6           0       -3.758595   -0.131925    0.662583
      7          8           0       -3.626141   -1.338760   -0.093053
      8          7           0       -0.813117   -1.075946    0.000026
      9          6           0        0.391691   -1.410414   -0.559538
     10          8           0        0.504554   -2.309686   -1.386416
     11          6           0        1.616849   -0.686922   -0.069064
     12          6           0        1.856880   -0.423852    1.282319
     13          6           0        3.052124    0.199587    1.641706
     14          7           0        3.989108    0.576005    0.763733
     15          6           0        3.754988    0.303509   -0.527865
     16          6           0        2.604976   -0.332282   -0.990110
     17          1           0       -2.127494    3.313374   -1.045720
     18          1           0       -1.190938    3.058775    0.497230
     19          1           0       -0.252700    2.173101   -2.343658
     20          1           0        0.663966    1.937631   -0.786060
     21          1           0       -2.157101    0.826518   -1.449906
     22          1           0       -0.393664    0.673656    1.051146
     23          1           0       -2.249423   -0.642339    2.111506
     24          1           0       -2.558888    1.088991    1.922885
     25          1           0       -4.562833   -0.225890    1.407269
     26          1           0       -4.009769    0.711832    0.004028
     27          1           0       -4.437391   -1.476575   -0.603571
     28          1           0       -1.587104   -1.609269   -0.388945
     29          1           0        1.139224   -0.718337    2.041558
     30          1           0        3.266613    0.407558    2.688587
     31          1           0        4.531800    0.607113   -1.227142
     32          1           0        2.466814   -0.554790   -2.042593
 ---------------------------------------------------------------------

 SCF Done:  E(UB3LYP) =  -727.102652904     A.U. after   32 cycles

 The electronic state is 2-A.
 Alpha  occ. eigenvalues --  -19.03209 -18.96002 -14.20397 -14.17439 -10.14086
 Alpha  occ. eigenvalues --  -10.12268 -10.11043 -10.08317 -10.07969 -10.07957
 Alpha  occ. eigenvalues --  -10.07880 -10.07631 -10.07363 -10.05799 -10.05704
 Alpha  occ. eigenvalues --  -10.05431  -0.93173  -0.91077  -0.81671  -0.80728
 Alpha  occ. eigenvalues --   -0.75927  -0.68810  -0.67693  -0.63842  -0.59160
 Alpha  occ. eigenvalues --   -0.53424  -0.51882  -0.50924  -0.50609  -0.47092
 Alpha  occ. eigenvalues --   -0.46584  -0.43019  -0.41242  -0.39410  -0.38761
 Alpha  occ. eigenvalues --   -0.36657  -0.35863  -0.35374  -0.33936  -0.32520
 Alpha  occ. eigenvalues --   -0.31374  -0.30887  -0.29515  -0.29273  -0.28558
 Alpha  occ. eigenvalues --   -0.27806  -0.27170  -0.26236  -0.25431  -0.24092
 Alpha  occ. eigenvalues --   -0.22863  -0.20932  -0.19519  -0.18725  -0.16888
 Alpha  occ. eigenvalues --   -0.14782  -0.14158  -0.13930  -0.12483   0.03692
 Alpha virt. eigenvalues --    0.05089   0.07250   0.07573   0.08475   0.09165
 Alpha virt. eigenvalues --    0.09817   0.10072   0.10163   0.10709   0.11326
 Alpha virt. eigenvalues --    0.12498   0.12599   0.13150   0.13758   0.13975

  Beta  occ. eigenvalues --  -19.03173 -18.95865 -14.20373 -14.17104 -10.14006
  Beta  occ. eigenvalues --  -10.12238 -10.11038 -10.08323 -10.07959 -10.07924
  Beta  occ. eigenvalues --  -10.07871 -10.07628 -10.07362 -10.05749 -10.05465
  Beta  occ. eigenvalues --  -10.05397  -0.93087  -0.90830  -0.81240  -0.80630
  Beta  occ. eigenvalues --   -0.75899  -0.68458  -0.67529  -0.63646  -0.59088
  Beta  occ. eigenvalues --   -0.52957  -0.51838  -0.50827  -0.50589  -0.47029
  Beta  occ. eigenvalues --   -0.46433  -0.42887  -0.41172  -0.39375  -0.38681
  Beta  occ. eigenvalues --   -0.36542  -0.35752  -0.35228  -0.33849  -0.32298
  Beta  occ. eigenvalues --   -0.31339  -0.30839  -0.29407  -0.28977  -0.28440
  Beta  occ. eigenvalues --   -0.27325  -0.26996  -0.26054  -0.25058  -0.23968
  Beta  occ. eigenvalues --   -0.22732  -0.20889  -0.19495  -0.18683  -0.15685
  Beta  occ. eigenvalues --   -0.14228  -0.13777  -0.13552  -0.12124
  Beta virt. eigenvalues --    0.06295   0.07548   0.07720   0.08077   0.08568
  Beta virt. eigenvalues --    0.09391   0.09870   0.10202   0.10322   0.10845
  Beta virt. eigenvalues --    0.11281   0.12460   0.12870   0.13245   0.13765

 Mulliken charges and spin densities:
               1          2
     1  C   -0.175018  -0.382181
     2  C   -0.170876  -0.271368
     3  C   -0.516137   0.343576
     4  C    0.499657  -0.231934
     5  C   -0.916548   0.580505
     6  C    1.057719  -1.513621
     7  O   -0.332355   0.034586
     8  N   -0.119339  -0.002417
     9  C   -0.633388  -0.011482
    10  O   -0.319161   0.038889
    11  C    0.459048   0.050347
    12  C    0.034609   0.257205
    13  C   -0.589426  -0.064805
    14  N   -0.126948   0.146857
    15  C   -0.526579   0.032318
    16  C    0.297088   0.135770
    17  H    0.019681   0.119819
    18  H    0.086217   0.049518
    19  H    0.098224   0.053875
    20  H    0.230380  -0.058670
    21  H    0.073286   0.164854
    22  H    0.067083   0.122912
    23  H    0.217369  -0.033579
    24  H   -0.006111   0.115257
    25  H   -0.416904   0.582293
    26  H   -0.298989   0.474616
    27  H   -0.086846   0.362397
    28  H    0.471154  -0.114053
    29  H    0.167876   0.009503
    30  H    0.128525   0.003951
    31  H    0.127725  -0.001165
    32  H    0.198984   0.006229
 Sum of Mulliken charges =  -1.00000   1.00000

 Dipole moment (field-independent basis, Debye):
    X=              0.2888    Y=              3.1914    Z=              1.2484  Tot=              3.4390
 Quadrupole moment (field-independent basis, Debye-Ang):
   XX=           -177.6564   YY=           -128.0679   ZZ=           -111.8581
   XY=             -3.6814   XZ=             -4.8630   YZ=             -7.4620

 Summary of Natural Population Analysis:

                                       Natural Population
                Natural  -----------------------------------------------
    Atom  No    Charge         Core      Valence    Rydberg      Total
 -----------------------------------------------------------------------
      C    1   -0.20237      0.99962     2.19558    0.00718     3.20237
      C    2   -0.19548      0.99962     2.18883    0.00703     3.19548
      C    3   -0.12164      0.99956     2.11072    0.01136     3.12164
      C    4   -0.01505      0.99955     2.00105    0.01445     3.01505
      C    5   -0.19777      0.99960     2.18817    0.01000     3.19777
      C    6   -0.01077      0.99960     1.99877    0.01240     3.01077
      O    7   -0.38014      0.99989     3.37295    0.00730     4.38014
      N    8   -0.32730      0.99966     2.81771    0.00993     3.82730
      C    9    0.34964      0.99962     1.62968    0.02106     2.65036
      O   10   -0.30870      0.99988     3.30342    0.00540     4.30870
      C   11   -0.00944      0.99946     1.99677    0.01321     3.00944
      C   12   -0.12034      0.99952     2.10968    0.01114     3.12034
      C   13    0.01730      0.99960     1.96893    0.01417     2.98270
      N   14   -0.19777      0.99972     2.68581    0.01225     3.69777
      C   15    0.02197      0.99960     1.96398    0.01445     2.97803
      C   16   -0.10423      0.99952     2.09723    0.00748     3.10423
      H   17    0.10063      0.00000     0.39852    0.00085     0.39937
      H   18    0.09990      0.00000     0.39925    0.00085     0.40010
      H   19    0.09980      0.00000     0.39934    0.00086     0.40020
      H   20    0.11051      0.00000     0.38825    0.00124     0.38949
      H   21    0.10730      0.00000     0.39133    0.00137     0.39270
      H   22    0.10599      0.00000     0.39217    0.00184     0.39401
      H   23    0.10247      0.00000     0.39633    0.00119     0.39753
      H   24    0.10237      0.00000     0.39676    0.00086     0.39763
      H   25    0.07940      0.00000     0.41905    0.00155     0.42060
      H   26    0.08060      0.00000     0.41714    0.00226     0.41940
      H   27    0.23674      0.00000     0.25784    0.00543     0.26326
      H   28    0.20459      0.00000     0.29268    0.00273     0.29541
      H   29    0.10101      0.00000     0.39791    0.00107     0.39899
      H   30    0.08267      0.00000     0.41607    0.00126     0.41733
      H   31    0.08212      0.00000     0.41666    0.00122     0.41788
      H   32    0.10598      0.00000     0.39305    0.00097     0.39402
 =======================================================================
   * Total *    0.00000     15.99401    42.80163    0.20435    59.00000

 Normal termination of Gaussian 16 at Thu Dec 10 22:55:02 2020.
