 Gaussian 16, Revision A.03,

 -----------------------------------------------------------
 # opt freq B3LYP/6-31G(d) empiricaldispersion=gd3bj scf=xqc
 -----------------------------------------------------------

 -------------------------------
 CID_152054850_JID_4236_neutraal
 -------------------------------
 Symbolic Z-matrix:
 Charge =  0 Multiplicity = 1

 SCF Done:  E(RB3LYP) =  -688.886806481     A.U. after   15 cycles
 SCF Done:  E(RB3LYP) =  -688.896317288     A.U. after   13 cycles
 SCF Done:  E(RB3LYP) =  -688.897295937     A.U. after   12 cycles
 SCF Done:  E(RB3LYP) =  -688.897343459     A.U. after   13 cycles
 SCF Done:  E(RB3LYP) =  -688.898574727     A.U. after   12 cycles
 SCF Done:  E(RB3LYP) =  -688.898618932     A.U. after   13 cycles
 SCF Done:  E(RB3LYP) =  -688.899395258     A.U. after   12 cycles
 SCF Done:  E(RB3LYP) =  -688.899531115     A.U. after   12 cycles
 SCF Done:  E(RB3LYP) =  -688.899563641     A.U. after   12 cycles
 SCF Done:  E(RB3LYP) =  -688.899706675     A.U. after   11 cycles
 SCF Done:  E(RB3LYP) =  -688.899794265     A.U. after    8 cycles
 SCF Done:  E(RB3LYP) =  -688.899795275     A.U. after    9 cycles
 SCF Done:  E(RB3LYP) =  -688.899795525     A.U. after    7 cycles
 SCF Done:  E(RB3LYP) =  -688.899795596     A.U. after    8 cycles
 SCF Done:  E(RB3LYP) =  -688.899795615     A.U. after    7 cycles
 Optimization completed.
    -- Stationary point found.
 Normal termination of Gaussian 16 at Thu Dec 10 09:27:51 2020.

 --------------------------------------------------------------------
 #N Geom=AllCheck Guess=TCheck SCRF=Check GenChk RB3LYP/6-31G(d) Freq
 --------------------------------------------------------------------

 Structure from the checkpoint file:  "JID_4236.chk"
 -------------------------------
 CID_152054850_JID_4236_neutraal
 -------------------------------
 Charge =  0 Multiplicity = 1

 SCF Done:  E(RB3LYP) =  -688.899795615     A.U. after    1 cycles

  Exact polarizability: 143.402  -1.173 117.331   0.899  -2.467 100.049
 Approx polarizability: 189.768   4.069 159.347   2.165  -5.787 153.222

                      1                      2                      3
                      A                      A                      A
 Frequencies --     29.2923                39.5092                43.9242
 Red. masses --      2.5170                 3.9146                 3.2752
 Frc consts  --      0.0013                 0.0036                 0.0037
 IR Inten    --      0.3053                 1.5275                 1.0545

                      4                      5                      6
                      A                      A                      A
 Frequencies --     58.1589                60.9965                93.1576
 Red. masses --      3.9177                 4.5202                 3.1759
 Frc consts  --      0.0078                 0.0099                 0.0162
 IR Inten    --      0.9823                 2.9461                 0.3087

                      7                      8                      9
                      A                      A                      A
 Frequencies --    111.4891               119.3839               138.4676
 Red. masses --      1.0547                 1.8499                 2.3139
 Frc consts  --      0.0077                 0.0155                 0.0261
 IR Inten    --      0.2229                 0.2913                 0.8114

                     10                     11                     12
                      A                      A                      A
 Frequencies --    149.3700               172.0888               192.8364
 Red. masses --      2.8274                 3.0235                 1.9037
 Frc consts  --      0.0372                 0.0528                 0.0417
 IR Inten    --      0.6759                 2.9081                 0.6994

                     13                     14                     15
                      A                      A                      A
 Frequencies --    221.8515               235.7938               281.7337
 Red. masses --      1.8472                 1.6426                 2.6785
 Frc consts  --      0.0536                 0.0538                 0.1253
 IR Inten    --      3.2559                 0.7403                 5.0029

                     16                     17                     18
                      A                      A                      A
 Frequencies --    289.2638               345.6699               359.4295
 Red. masses --      2.1386                 4.6163                 2.2593
 Frc consts  --      0.1054                 0.3250                 0.1720
 IR Inten    --      3.3526                 6.0727                 0.2214

                     19                     20                     21
                      A                      A                      A
 Frequencies --    391.9870               445.9868               479.1893
 Red. masses --      3.5351                 3.2536                 5.0024
 Frc consts  --      0.3200                 0.3813                 0.6768
 IR Inten    --      0.6594                 0.7571                27.9066

                     22                     23                     24
                      A                      A                      A
 Frequencies --    502.2254               550.8548               583.2996
 Red. masses --      3.6975                 3.1412                 4.7718
 Frc consts  --      0.5495                 0.5616                 0.9566
 IR Inten    --      3.8850                 6.4713                 0.8653

                     25                     26                     27
                      A                      A                      A
 Frequencies --    641.1986               756.8303               770.8416
 Red. masses --      5.3877                 2.0340                 1.4646
 Frc consts  --      1.3051                 0.6864                 0.5127
 IR Inten    --      4.0053                18.1840                 7.1933

                     28                     29                     30
                      A                      A                      A
 Frequencies --    791.6788               820.1892               872.6049
 Red. masses --      1.8987                 6.5951                 1.4287
 Frc consts  --      0.7011                 2.6140                 0.6409
 IR Inten    --      7.7090                30.5327                 0.8800

                     31                     32                     33
                      A                      A                      A
 Frequencies --    889.6363               899.9059               921.3016
 Red. masses --      2.1504                 2.5183                 2.1541
 Frc consts  --      1.0027                 1.2016                 1.0773
 IR Inten    --     18.8275                 1.8521                29.4696

                     34                     35                     36
                      A                      A                      A
 Frequencies --    942.8964               945.5813               974.9357
 Red. masses --      1.2693                 1.3646                 2.2843
 Frc consts  --      0.6649                 0.7189                 1.2793
 IR Inten    --      2.6065                12.6898                 7.3914

                     37                     38                     39
                      A                      A                      A
 Frequencies --   1001.6974              1014.7661              1057.9294
 Red. masses --      2.9638                 9.3187                 3.6350
 Frc consts  --      1.7522                 5.6538                 2.3970
 IR Inten    --     13.6606               142.1596                62.1058

                     40                     41                     42
                      A                      A                      A
 Frequencies --   1083.5477              1099.1487              1100.2993
 Red. masses --      2.7798                 3.1436                 1.6306
 Frc consts  --      1.9229                 2.2376                 1.1631
 IR Inten    --     35.1423                51.2172                 0.2048

                     43                     44                     45
                      A                      A                      A
 Frequencies --   1139.5834              1151.9945              1154.8236
 Red. masses --      1.8353                 2.1774                 2.1116
 Frc consts  --      1.4043                 1.7025                 1.6592
 IR Inten    --      5.2186                 7.1941                26.6273

                     46                     47                     48
                      A                      A                      A
 Frequencies --   1168.3329              1193.1748              1243.9317
 Red. masses --      1.9881                 1.8096                 6.8968
 Frc consts  --      1.5989                 1.5179                 6.2877
 IR Inten    --      2.4990                 4.1367               200.7815

                     49                     50                     51
                      A                      A                      A
 Frequencies --   1275.3729              1296.6149              1321.1737
 Red. masses --      1.1622                 1.1830                 1.1823
 Frc consts  --      1.1138                 1.1718                 1.2159
 IR Inten    --      1.5636                 0.3064                 1.2441

                     52                     53                     54
                      A                      A                      A
 Frequencies --   1334.6608              1386.5273              1395.8600
 Red. masses --      1.1128                 1.3657                 1.3652
 Frc consts  --      1.1679                 1.5469                 1.5673
 IR Inten    --      2.2273                 2.3741                 6.6630

                     55                     56                     57
                      A                      A                      A
 Frequencies --   1424.8190              1425.4950              1427.1386
 Red. masses --      1.3893                 1.2359                 1.3495
 Frc consts  --      1.6618                 1.4797                 1.6194
 IR Inten    --      4.2407                13.3635                 9.7138

                     58                     59                     60
                      A                      A                      A
 Frequencies --   1440.6899              1443.5424              1448.2493
 Red. masses --      1.2363                 1.2677                 1.2512
 Frc consts  --      1.5118                 1.5565                 1.5462
 IR Inten    --     11.0720                16.8521                 6.2059

                     61                     62                     63
                      A                      A                      A
 Frequencies --   1495.2979              1506.3521              1508.3085
 Red. masses --      1.0472                 1.0642                 1.0735
 Frc consts  --      1.3796                 1.4227                 1.4389
 IR Inten    --     12.9260                24.6465                 2.0547

                     64                     65                     66
                      A                      A                      A
 Frequencies --   1509.9113              1520.8496              1524.2195
 Red. masses --      1.0771                 1.0770                 1.0477
 Frc consts  --      1.4468                 1.4678                 1.4341
 IR Inten    --      8.3039                 3.0515                 6.2101

                     67                     68                     69
                      A                      A                      A
 Frequencies --   1528.6963              1534.2640              1538.0108
 Red. masses --      1.0529                 1.0577                 1.0682
 Frc consts  --      1.4496                 1.4669                 1.4888
 IR Inten    --      6.7116                18.9229                 3.6993

                     70                     71                     72
                      A                      A                      A
 Frequencies --   1546.9028              1771.6702              1812.1512
 Red. masses --      1.0690                 9.1862                12.6188
 Frc consts  --      1.5071                16.9884                24.4149
 IR Inten    --      0.8054               125.7697               302.3111

                     73                     74                     75
                      A                      A                      A
 Frequencies --   3029.1656              3034.8763              3046.2061
 Red. masses --      1.0683                 1.0597                 1.0622
 Frc consts  --      5.7758                 5.7504                 5.8072
 IR Inten    --     36.6061                25.4244                19.8465

                     76                     77                     78
                      A                      A                      A
 Frequencies --   3046.7347              3050.0204              3051.2637
 Red. masses --      1.0594                 1.0439                 1.0401
 Frc consts  --      5.7940                 5.7216                 5.7053
 IR Inten    --     52.5907                12.0479                19.1431

                     79                     80                     81
                      A                      A                      A
 Frequencies --   3056.8085              3076.9955              3089.6275
 Red. masses --      1.0401                 1.1019                 1.0968
 Frc consts  --      5.7261                 6.1465                 6.1689
 IR Inten    --     22.0272                19.6669                15.5309

                     82                     83                     84
                      A                      A                      A
 Frequencies --   3096.1449              3104.4398              3109.0355
 Red. masses --      1.1048                 1.0996                 1.0882
 Frc consts  --      6.2399                 6.2438                 6.1973
 IR Inten    --     31.7861                11.7028                36.1993

                     85                     86                     87
                      A                      A                      A
 Frequencies --   3110.6041              3115.3353              3118.3050
 Red. masses --      1.0999                 1.0963                 1.1024
 Frc consts  --      6.2704                 6.2690                 6.3156
 IR Inten    --     48.7245                28.3193                53.6773

                     88                     89                     90
                      A                      A                      A
 Frequencies --   3151.0359              3154.7764              3162.8185
 Red. masses --      1.0986                 1.1000                 1.1006
 Frc consts  --      6.4266                 6.4501                 6.4865
 IR Inten    --     29.4974                18.1348                13.3509

 - Thermochemistry -
 -------------------
 Temperature   298.150 Kelvin.  Pressure   1.00000 Atm.
 Atom     1 has atomic number  6 and mass  12.00000

 Molecular mass:   202.13174 amu.
 Principal axes and moments of inertia in atomic units:
                           1         2         3
     Eigenvalues --  2293.872973423.750254623.43288
           X            0.99967   0.02419   0.00853
           Y           -0.02419   0.99971   0.00028
           Z           -0.00852  -0.00049   0.99996
 This molecule is an asymmetric top.
 Rotational symmetry number  1.
 Warning -- assumption of classical behavior for rotation
           may cause significant error
 Rotational temperatures (Kelvin)      0.03776     0.02530     0.01873
 Rotational constants (GHZ):           0.78677     0.52712     0.39035
 Zero-point vibrational energy     721071.6 (Joules/Mol)
                                  172.34025 (Kcal/Mol)
 Warning -- explicit consideration of  24 degrees of freedom as
           vibrations may cause significant error
 Vibrational temperatures:     42.15    56.84    63.20    83.68    87.76
          (Kelvin)            134.03   160.41   171.77   199.22   214.91
                              247.60   277.45   319.19   339.25   405.35
                              416.19   497.34   517.14   563.98   641.68
                              689.45   722.59   792.56   839.24   922.54
                             1088.91  1109.07  1139.05  1180.07  1255.48
                             1279.99  1294.76  1325.55  1356.62  1360.48
                             1402.71  1441.22  1460.02  1522.12  1558.98
                             1581.43  1583.09  1639.61  1657.46  1661.53
                             1680.97  1716.71  1789.74  1834.98  1865.54
                             1900.87  1920.28  1994.90  2008.33  2050.00
                             2050.97  2053.33  2072.83  2076.94  2083.71
                             2151.40  2167.30  2170.12  2172.43  2188.16
                             2193.01  2199.45  2207.46  2212.85  2225.65
                             2549.04  2607.28  4358.29  4366.51  4382.81
                             4383.57  4388.30  4390.09  4398.07  4427.11
                             4445.28  4454.66  4466.60  4473.21  4475.47
                             4482.27  4486.55  4533.64  4539.02  4550.59

 Zero-point correction=                           0.274642 (Hartree/Particle)
 Thermal correction to Energy=                    0.291624
 Thermal correction to Enthalpy=                  0.292569
 Thermal correction to Gibbs Free Energy=         0.228166
 Sum of electronic and zero-point Energies=           -688.625154
 Sum of electronic and thermal Energies=              -688.608171
 Sum of electronic and thermal Enthalpies=            -688.607227
 Sum of electronic and thermal Free Energies=         -688.671630

                     E (Thermal)             CV                S
                      KCal/Mol        Cal/Mol-Kelvin    Cal/Mol-Kelvin
 Total                  182.997             59.291            135.547
 Electronic               0.000              0.000              0.000
 Translational            0.889              2.981             41.816
 Rotational               0.889              2.981             31.963
 Vibrational            181.220             53.329             61.768
 Vibration     1          0.593              1.984              5.877
 Vibration     2          0.594              1.981              5.284
 Vibration     3          0.595              1.980              5.074
 Vibration     4          0.596              1.974              4.519
 Vibration     5          0.597              1.973              4.425
 Vibration     6          0.602              1.954              3.593
 Vibration     7          0.607              1.940              3.243
 Vibration     8          0.609              1.933              3.110
 Vibration     9          0.614              1.915              2.825
 Vibration    10          0.618              1.903              2.680
 Vibration    11          0.626              1.877              2.413
 Vibration    12          0.635              1.850              2.200
 Vibration    13          0.648              1.808              1.944
 Vibration    14          0.655              1.786              1.834
 Vibration    15          0.681              1.707              1.523
 Vibration    16          0.686              1.694              1.478
 Vibration    17          0.724              1.584              1.186
 Vibration    18          0.734              1.556              1.125
 Vibration    19          0.759              1.487              0.993
 Vibration    20          0.805              1.370              0.808
 Vibration    21          0.836              1.296              0.712
 Vibration    22          0.858              1.245              0.653
 Vibration    23          0.906              1.138              0.542
 Vibration    24          0.940              1.067              0.479

                           ! Non-Optimized Parameters !
 Normal termination of Gaussian 16 at Thu Dec 10 09:37:27 2020.

 ----------------------------------------------------------------------
 # B3LYP/6-311++G(d,p) empiricaldispersion=gd3bj scf=xqc pop=npa geom=c
 heck
 ----------------------------------------------------------------------

 ---------------------------------------
 CID_152054850_JID_4236_Energie_neutraal
 ---------------------------------------
 Structure from the checkpoint file:  "JID_4236.chk"
 Charge =  0 Multiplicity = 1

 SCF Done:  E(RB3LYP) =  -689.100827396     A.U. after   14 cycles
 Normal termination of Gaussian 16 at Thu Dec 10 09:41:46 2020.

 ----------------------------------------------------------------------
 # B3LYP/6-311++G(d,p) empiricaldispersion=gd3bj scf=xqc pop=npa geom=c
 heck
 ----------------------------------------------------------------------

 -------------------------------------
 CID_152054850_JID_4236_Energie_kation
 -------------------------------------
 Structure from the checkpoint file:  "JID_4236.chk"
 Charge =  1 Multiplicity = 2

 SCF Done:  E(UB3LYP) =  -688.774654730     A.U. after   26 cycles
 Normal termination of Gaussian 16 at Thu Dec 10 09:53:08 2020.
 Gaussian 16:  ES64L-G16RevA.03 25-Dec-2016

 ----------------------------------------------------------------------
 # B3LYP/6-311++G(d,p) empiricaldispersion=gd3bj scf=xqc pop=npa geom=c
 heck
 ----------------------------------------------------------------------

 ------------------------------------
 CID_152054850_JID_4236_Energie_anion
 ------------------------------------
 Structure from the checkpoint file:  "JID_4236.chk"
 Charge = -1 Multiplicity = 2

                         Standard orientation:
 ---------------------------------------------------------------------
 Center     Atomic      Atomic             Coordinates (Angstroms)
 Number     Number       Type             X           Y           Z
 ---------------------------------------------------------------------
      1          6           0        1.056373    2.421603    1.387033
      2          6           0        1.028990    2.699262   -0.119747
      3          6           0        1.663295    1.599428   -0.976997
      4          8           0        0.758081    0.608345   -1.487642
      5          7           0        0.038060   -0.034183   -0.464826
      6          6           0        0.322680   -1.425503   -0.380246
      7          8           0       -0.490007   -2.222931    0.033920
      8          7           0        1.627337   -1.745715   -0.766462
      9          6           0        2.586431   -1.764559    0.068150
     10          6           0        2.542652   -1.411858    1.528562
     11          8           0       -1.327188    0.188537   -0.687852
     12          6           0       -1.979292    0.676796    0.496884
     13          6           0       -3.472100    0.474057    0.283040
     14          6           0       -3.869446   -1.003240    0.222589
     15          1           0        0.535137    1.493721    1.633044
     16          1           0        0.587210    3.237954    1.947423
     17          1           0        2.090375    2.328425    1.741930
     18          1           0        0.003799    2.857562   -0.474369
     19          1           0        1.569509    3.634320   -0.316619
     20          1           0        2.079105    2.013643   -1.900056
     21          1           0        2.479376    1.101972   -0.433887
     22          1           0        3.559658   -2.081669   -0.319558
     23          1           0        2.867195   -2.273766    2.124576
     24          1           0        3.245560   -0.596276    1.738969
     25          1           0        1.543065   -1.113954    1.851784
     26          1           0       -1.629410    0.104770    1.363161
     27          1           0       -1.734093    1.736507    0.646616
     28          1           0       -3.999355    0.982329    1.101309
     29          1           0       -3.762515    0.986983   -0.642739
     30          1           0       -3.652158   -1.504716    1.172794
     31          1           0       -4.939687   -1.113350    0.017060
     32          1           0       -3.305139   -1.522690   -0.555439
 ---------------------------------------------------------------------

 SCF Done:  E(UB3LYP) =  -689.089985699     A.U. after   33 cycles
 SCF Done:  E(UB3LYP) =  -689.089985699     a.u. after    1 cycles

 The electronic state is 2-A.
 Alpha  occ. eigenvalues --  -19.07118 -19.06983 -19.00880 -14.33014 -14.21955
 Alpha  occ. eigenvalues --  -10.20311 -10.13015 -10.12610 -10.12309 -10.08376
 Alpha  occ. eigenvalues --  -10.07723 -10.07113 -10.06761 -10.05408  -1.04502
 Alpha  occ. eigenvalues --   -0.95650  -0.94088  -0.83588  -0.74701  -0.68817
 Alpha  occ. eigenvalues --   -0.67236  -0.64617  -0.59299  -0.58395  -0.54509
 Alpha  occ. eigenvalues --   -0.51086  -0.49964  -0.46139  -0.43899  -0.41631
 Alpha  occ. eigenvalues --   -0.40267  -0.37766  -0.36715  -0.35694  -0.35050
 Alpha  occ. eigenvalues --   -0.34978  -0.33692  -0.33047  -0.32524  -0.32008
 Alpha  occ. eigenvalues --   -0.29774  -0.29409  -0.28930  -0.27119  -0.26430
 Alpha  occ. eigenvalues --   -0.25816  -0.25458  -0.24777  -0.24033  -0.23319
 Alpha  occ. eigenvalues --   -0.20811  -0.20047  -0.18675  -0.16647  -0.15372
 Alpha  occ. eigenvalues --    0.04400
 Alpha virt. eigenvalues --    0.06184   0.06730   0.06984   0.07849   0.08538
 Alpha virt. eigenvalues --    0.09178   0.09420   0.09630   0.09929   0.10577
 Alpha virt. eigenvalues --    0.11326   0.11805   0.12534   0.13008   0.13526

  Beta  occ. eigenvalues --  -19.07118 -19.06980 -19.00874 -14.33010 -14.21848
  Beta  occ. eigenvalues --  -10.20308 -10.12889 -10.12598 -10.12297 -10.08367
  Beta  occ. eigenvalues --  -10.07695 -10.07091 -10.06759 -10.05365  -1.04495
  Beta  occ. eigenvalues --   -0.95626  -0.94076  -0.83388  -0.74674  -0.68790
  Beta  occ. eigenvalues --   -0.67188  -0.64467  -0.59274  -0.58341  -0.54395
  Beta  occ. eigenvalues --   -0.51008  -0.49922  -0.46075  -0.43880  -0.41555
  Beta  occ. eigenvalues --   -0.40190  -0.37740  -0.36572  -0.35641  -0.35013
  Beta  occ. eigenvalues --   -0.34937  -0.33653  -0.32890  -0.32485  -0.31972
  Beta  occ. eigenvalues --   -0.29746  -0.29352  -0.28894  -0.27096  -0.26392
  Beta  occ. eigenvalues --   -0.25774  -0.25435  -0.24736  -0.23995  -0.22912
  Beta  occ. eigenvalues --   -0.20723  -0.19972  -0.18596  -0.16594  -0.15328
  Beta virt. eigenvalues --    0.06456   0.07246   0.07581   0.07858   0.08255
  Beta virt. eigenvalues --    0.08842   0.09295   0.09707   0.10136   0.10453
  Beta virt. eigenvalues --    0.10892   0.11708   0.12271   0.12725   0.13287

 Mulliken charges and spin densities:
               1          2
     1  C    1.319011  -1.743683
     2  C   -0.768821   0.615991
     3  C    0.394828  -0.807936
     4  O    0.113821   0.020517
     5  N   -0.441469  -0.021542
     6  C   -0.101743  -0.052594
     7  O   -0.262751   0.008785
     8  N    0.006027   0.072670
     9  C   -0.240200   0.308406
    10  C    1.053543  -1.498104
    11  O    0.152303   0.017848
    12  C   -0.002619  -0.075113
    13  C    0.003869  -0.404748
    14  C   -0.485964  -0.028156
    15  H   -0.324939   0.450002
    16  H   -0.377314   0.522664
    17  H   -0.297264   0.456980
    18  H    0.086756   0.088473
    19  H   -0.678449   0.857123
    20  H   -0.055103   0.224439
    21  H    0.211023  -0.047626
    22  H   -0.365681   0.556902
    23  H   -0.081478   0.238375
    24  H   -0.412930   0.588332
    25  H   -0.056274   0.247276
    26  H    0.178100  -0.007181
    27  H    0.087264   0.038186
    28  H   -0.135696   0.272531
    29  H    0.115271   0.028327
    30  H    0.106279   0.023642
    31  H    0.086554   0.038492
    32  H    0.174048   0.010719
 Sum of Mulliken charges =  -1.00000   1.00000

 Dipole moment (field-independent basis, Debye):
    X=             -5.4479    Y=             -2.1963    Z=             -2.5240  Tot=              6.3933
 Quadrupole moment (field-independent basis, Debye-Ang):
   XX=           -141.8580   YY=           -144.8337   ZZ=           -122.4696
   XY=             -5.3811   XZ=             -7.2843   YZ=             -9.0947

 Summary of Natural Population Analysis:

                                       Natural Population
                Natural  -----------------------------------------------
    Atom  No    Charge         Core      Valence    Rydberg      Total
 -----------------------------------------------------------------------
      C    1   -0.28727      0.99966     2.28130    0.00631     3.28727
      C    2   -0.21121      0.99964     2.20263    0.00895     3.21121
      C    3   -0.00791      0.99957     1.99478    0.01357     3.00791
      O    4   -0.20536      0.99989     3.19656    0.00891     4.20536
      N    5    0.01341      0.99966     2.47149    0.01545     3.48659
      C    6    0.39722      0.99967     1.57783    0.02528     2.60278
      O    7   -0.30005      0.99987     3.29475    0.00543     4.30005
      N    8   -0.23221      0.99960     2.72159    0.01102     3.73221
      C    9    0.11482      0.99963     1.87008    0.01548     2.88518
      C   10   -0.32723      0.99965     2.32153    0.00606     3.32723
      O   11   -0.21282      0.99988     3.20337    0.00957     4.21282
      C   12   -0.00947      0.99958     1.99718    0.01272     3.00947
      C   13   -0.20190      0.99964     2.19371    0.00855     3.20190
      C   14   -0.28809      0.99966     2.28357    0.00485     3.28809
      H   15    0.09730      0.00000     0.40014    0.00256     0.40270
      H   16    0.09950      0.00000     0.39881    0.00169     0.40050
      H   17    0.10045      0.00000     0.39724    0.00232     0.39955
      H   18    0.09919      0.00000     0.39937    0.00144     0.40081
      H   19    0.10213      0.00000     0.39616    0.00171     0.39787
      H   20    0.09263      0.00000     0.40611    0.00126     0.40737
      H   21    0.08362      0.00000     0.41473    0.00165     0.41638
      H   22    0.08052      0.00000     0.41802    0.00146     0.41948
      H   23    0.11004      0.00000     0.38899    0.00097     0.38996
      H   24    0.11768      0.00000     0.37876    0.00357     0.38232
      H   25    0.10583      0.00000     0.39277    0.00140     0.39417
      H   26    0.08817      0.00000     0.41042    0.00141     0.41183
      H   27    0.08612      0.00000     0.41210    0.00178     0.41388
      H   28    0.09817      0.00000     0.40079    0.00104     0.40183
      H   29    0.09728      0.00000     0.40161    0.00111     0.40272
      H   30    0.09710      0.00000     0.40192    0.00099     0.40290
      H   31    0.09238      0.00000     0.40689    0.00073     0.40762
      H   32    0.10996      0.00000     0.38887    0.00116     0.39004
 =======================================================================
   * Total *    0.00000     13.99559    40.82405    0.18036    55.00000

 Normal termination of Gaussian 16 at Thu Dec 10 10:07:33 2020.
