 Gaussian 16, Revision A.03,

 -----------------------------------------------------------
 # opt freq B3LYP/6-31G(d) empiricaldispersion=gd3bj scf=xqc
 -----------------------------------------------------------

 ------------------------------
 CID_88925248_JID_2717_neutraal
 ------------------------------
 Symbolic Z-matrix:
 Charge =  0 Multiplicity = 1

 SCF Done:  E(RB3LYP) =  -515.060688680     A.U. after   14 cycles
 SCF Done:  E(RB3LYP) =  -515.066375273     A.U. after   12 cycles
 SCF Done:  E(RB3LYP) =  -515.067952777     A.U. after   12 cycles
 SCF Done:  E(RB3LYP) =  -515.068611510     A.U. after   12 cycles
 SCF Done:  E(RB3LYP) =  -515.068840383     A.U. after   12 cycles
 SCF Done:  E(RB3LYP) =  -515.068894450     A.U. after   11 cycles
 SCF Done:  E(RB3LYP) =  -515.068900825     A.U. after    9 cycles
 SCF Done:  E(RB3LYP) =  -515.068901974     A.U. after    8 cycles
 SCF Done:  E(RB3LYP) =  -515.068902335     A.U. after    7 cycles
 SCF Done:  E(RB3LYP) =  -515.068902459     A.U. after    7 cycles
 Optimization completed.
    -- Stationary point found.

 1\1\GINC-NODE201\FOpt\RB3LYP\6-31G(d)\C9H13N3\VSC10255\09-Dec-2020\0\\
 # opt freq B3LYP/6-31G(d) empiricaldispersion=gd3bj scf=xqc\\CID_88925
 248_JID_2717_neutraal\\0,1\C,1.0704654587,0.0381850276,0.0579601812\N,
 0.2258361139,0.8312033776,-0.8130260013\C,-0.5302704273,0.0915146717,-
 1.8090861146\C,0.620118432,2.1141319202,-1.1246919853\C,1.6933500035,2
 .7771280447,-0.635313671\C,2.018834382,4.170314119,-0.9238217202\N,3.2
 473508629,4.5589511339,-0.5145043034\C,3.647786399,5.8111833258,-0.758
 8798949\C,2.8464175001,6.760654732,-1.418882864\C,1.5756184858,6.36192

 Normal termination of Gaussian 16 at Wed Dec  9 17:51:00 2020.

 --------------------------------------------------------------------
 #N Geom=AllCheck Guess=TCheck SCRF=Check GenChk RB3LYP/6-31G(d) Freq
 --------------------------------------------------------------------

 Structure from the checkpoint file:  "JID_2717.chk"
 ------------------------------
 CID_88925248_JID_2717_neutraal
 ------------------------------
 Charge =  0 Multiplicity = 1

 SCF Done:  E(RB3LYP) =  -515.068902459     A.U. after    1 cycles

  Exact polarizability: 216.356   1.779 118.224   0.304  -2.072  55.183
 Approx polarizability: 304.508  11.551 191.626  -5.310  -6.466  82.412

                      1                      2                      3
                      A                      A                      A
 Frequencies --     33.0822                75.9214                95.7909
 Red. masses --      3.0083                 3.5709                 3.5154
 Frc consts  --      0.0019                 0.0121                 0.0190
 IR Inten    --      0.8880                 4.3893                 3.2273

                      4                      5                      6
                      A                      A                      A
 Frequencies --    149.8748               196.3205               203.9462
 Red. masses --      2.6531                 3.4089                 1.3809
 Frc consts  --      0.0351                 0.0774                 0.0338
 IR Inten    --     10.9932                 4.2252                 0.8334

                      7                      8                      9
                      A                      A                      A
 Frequencies --    219.4681               257.5828               284.1244
 Red. masses --      1.2102                 2.8806                 3.2932
 Frc consts  --      0.0343                 0.1126                 0.1566
 IR Inten    --      0.7120                 7.0160                 3.9193

                     10                     11                     12
                      A                      A                      A
 Frequencies --    294.0704               350.3049               369.2215
 Red. masses --      2.0205                 2.9728                 1.1287
 Frc consts  --      0.1029                 0.2149                 0.0907
 IR Inten    --      1.4376                10.0934                62.5090

                     13                     14                     15
                      A                      A                      A
 Frequencies --    429.1918               454.5901               478.4810
 Red. masses --      2.8662                 3.4981                 2.8113
 Frc consts  --      0.3111                 0.4259                 0.3792
 IR Inten    --      0.4686                17.5756                 3.6632

                     16                     17                     18
                      A                      A                      A
 Frequencies --    532.4760               563.5499               600.8476
 Red. masses --      3.6101                 4.3666                 1.5692
 Frc consts  --      0.6031                 0.8171                 0.3338
 IR Inten    --      0.6060                51.9078               245.9346

                     19                     20                     21
                      A                      A                      A
 Frequencies --    651.7698               687.6905               741.8253
 Red. masses --      6.0031                 3.2861                 1.4947
 Frc consts  --      1.5025                 0.9156                 0.4846
 IR Inten    --     10.5385                90.9791                 6.5128

                     22                     23                     24
                      A                      A                      A
 Frequencies --    785.8055               805.7978               839.4633
 Red. masses --      3.0851                 4.5392                 1.5079
 Frc consts  --      1.1224                 1.7365                 0.6261
 IR Inten    --     38.4761                10.7728                14.8837

                     25                     26                     27
                      A                      A                      A
 Frequencies --    853.4646               897.0177               970.7747
 Red. masses --      2.0426                 3.5439                 1.2139
 Frc consts  --      0.8766                 1.6801                 0.6740
 IR Inten    --     11.7685                14.9351                26.9452

                     28                     29                     30
                      A                      A                      A
 Frequencies --    979.7873               981.4969               999.0896
 Red. masses --      1.2240                 2.5368                 6.1034
 Frc consts  --      0.6923                 1.4398                 3.5895
 IR Inten    --     24.3289                11.3395                 3.5229

                     31                     32                     33
                      A                      A                      A
 Frequencies --   1095.2699              1105.1461              1127.7261
 Red. masses --      1.4946                 1.7824                 1.6226
 Frc consts  --      1.0564                 1.2826                 1.2158
 IR Inten    --      8.2280                38.1377               143.6756

                     34                     35                     36
                      A                      A                      A
 Frequencies --   1137.3007              1147.9372              1178.7177
 Red. masses --      1.2469                 1.3698                 1.3847
 Frc consts  --      0.9503                 1.0635                 1.1335
 IR Inten    --      4.4171                 6.6383                77.6048

                     37                     38                     39
                      A                      A                      A
 Frequencies --   1201.8966              1247.6307              1292.4645
 Red. masses --      1.2068                 2.0701                 2.0518
 Frc consts  --      1.0271                 1.8985                 2.0194
 IR Inten    --     23.9582                18.4181                62.9665

                     40                     41                     42
                      A                      A                      A
 Frequencies --   1329.1967              1350.6712              1364.1341
 Red. masses --      2.1815                 2.4083                 3.3493
 Frc consts  --      2.2708                 2.5886                 3.6721
 IR Inten    --      3.1760                26.1634                24.3731

                     43                     44                     45
                      A                      A                      A
 Frequencies --   1402.9713              1409.4047              1471.4239
 Red. masses --      1.7669                 3.4109                 1.1620
 Frc consts  --      2.0491                 3.9920                 1.4823
 IR Inten    --    107.0433               157.0187                 4.1085

                     46                     47                     48
                      A                      A                      A
 Frequencies --   1487.2043              1503.7678              1509.5252
 Red. masses --      1.8390                 1.4915                 2.1532
 Frc consts  --      2.3964                 1.9872                 2.8908
 IR Inten    --     81.5730                 5.8491               220.7407

                     49                     50                     51
                      A                      A                      A
 Frequencies --   1510.2014              1516.3586              1538.3586
 Red. masses --      1.1676                 1.0695                 1.0693
 Frc consts  --      1.5690                 1.4489                 1.4910
 IR Inten    --     11.7150                21.1664                10.7292

                     52                     53                     54
                      A                      A                      A
 Frequencies --   1553.7646              1636.1134              1641.2754
 Red. masses --      1.1335                 3.2249                 5.1414
 Frc consts  --      1.6123                 5.0861                 8.1602
 IR Inten    --     14.8736               110.7210               237.3111

                     55                     56                     57
                      A                      A                      A
 Frequencies --   1671.9995              1715.6290              2989.9807
 Red. masses --      1.4485                 4.7163                 1.0538
 Frc consts  --      2.3858                 8.1790                 5.5505
 IR Inten    --    283.7790               334.4904                70.0902

                     58                     59                     60
                      A                      A                      A
 Frequencies --   2997.1737              3085.9107              3095.7042
 Red. masses --      1.0564                 1.0797                 1.0784
 Frc consts  --      5.5913                 6.0580                 6.0890
 IR Inten    --    134.3360                40.2880                35.9823

                     61                     62                     63
                      A                      A                      A
 Frequencies --   3132.5363              3139.6677              3179.4118
 Red. masses --      1.1033                 1.1045                 1.0884
 Frc consts  --      6.3786                 6.4145                 6.4821
 IR Inten    --     17.9863                24.4213                18.6082

                     64                     65                     66
                      A                      A                      A
 Frequencies --   3182.4055              3201.3275              3216.2861
 Red. masses --      1.0874                 1.0931                 1.0898
 Frc consts  --      6.4888                 6.6004                 6.6422
 IR Inten    --      2.4343                26.6426                10.7354

                     67                     68                     69
                      A                      A                      A
 Frequencies --   3216.4077              3556.1886              3666.5710
 Red. masses --      1.0913                 1.0470                 1.0992
 Frc consts  --      6.6517                 7.8012                 8.7064
 IR Inten    --     23.1821                18.6426                14.0623

 - Thermochemistry -
 -------------------
 Temperature   298.150 Kelvin.  Pressure   1.00000 Atm.
 Atom     1 has atomic number  6 and mass  12.00000

 Molecular mass:   163.11095 amu.
 Principal axes and moments of inertia in atomic units:
                           1         2         3
     Eigenvalues --   743.430974474.744425133.76430
           X            0.99999  -0.00224   0.00437
           Y            0.00219   0.99993   0.01157
           Z           -0.00439  -0.01156   0.99992
 This molecule is an asymmetric top.
 Rotational symmetry number  1.
 Warning -- assumption of classical behavior for rotation
           may cause significant error
 Rotational temperatures (Kelvin)      0.11651     0.01936     0.01687
 Rotational constants (GHZ):           2.42758     0.40332     0.35154
 Zero-point vibrational energy     559783.5 (Joules/Mol)
                                  133.79146 (Kcal/Mol)
 Warning -- explicit consideration of  18 degrees of freedom as
           vibrations may cause significant error
 Vibrational temperatures:     47.60   109.23   137.82   215.64   282.46
          (Kelvin)            293.43   315.77   370.60   408.79   423.10
                              504.01   531.23   617.51   654.05   688.43
                              766.11   810.82   864.49   937.75   989.43
                             1067.32  1130.60  1159.36  1207.80  1227.95
                             1290.61  1396.73  1409.70  1412.16  1437.47
                             1575.85  1590.06  1622.55  1636.32  1651.63
                             1695.91  1729.26  1795.06  1859.57  1912.42
                             1943.31  1962.68  2018.56  2027.82  2117.05
                             2139.76  2163.59  2171.87  2172.84  2181.70
                             2213.35  2235.52  2354.00  2361.43  2405.63
                             2468.41  4301.92  4312.26  4439.94  4454.03
                             4507.02  4517.28  4574.46  4578.77  4606.00
                             4627.52  4627.69  5116.56  5275.38

 Zero-point correction=                           0.213210 (Hartree/Particle)
 Thermal correction to Energy=                    0.225220
 Thermal correction to Enthalpy=                  0.226164
 Thermal correction to Gibbs Free Energy=         0.174775
 Sum of electronic and zero-point Energies=           -514.855692
 Sum of electronic and thermal Energies=              -514.843683
 Sum of electronic and thermal Enthalpies=            -514.842739
 Sum of electronic and thermal Free Energies=         -514.894128

                     E (Thermal)             CV                S
                      KCal/Mol        Cal/Mol-Kelvin    Cal/Mol-Kelvin
 Total                  141.327             45.356            108.157
 Electronic               0.000              0.000              0.000
 Translational            0.889              2.981             41.176
 Rotational               0.889              2.981             31.213
 Vibrational            139.550             39.395             35.767
 Vibration     1          0.594              1.983              5.635
 Vibration     2          0.599              1.965              3.994
 Vibration     3          0.603              1.952              3.538
 Vibration     4          0.618              1.903              2.674
 Vibration     5          0.636              1.845              2.167
 Vibration     6          0.640              1.834              2.097
 Vibration     7          0.647              1.811              1.963
 Vibration     8          0.667              1.750              1.678
 Vibration     9          0.683              1.703              1.509
 Vibration    10          0.689              1.685              1.450
 Vibration    11          0.727              1.575              1.165
 Vibration    12          0.742              1.535              1.083
 Vibration    13          0.791              1.407              0.861
 Vibration    14          0.813              1.351              0.782
 Vibration    15          0.835              1.298              0.714
 Vibration    16          0.887              1.178              0.582
 Vibration    17          0.919              1.110              0.517
 Vibration    18          0.959              1.030              0.448

                           ! Non-Optimized Parameters !

 1\1\GINC-NODE201\Freq\RB3LYP\6-31G(d)\C9H13N3\VSC10255\09-Dec-2020\0\\
 #N Geom=AllCheck Guess=TCheck SCRF=Check GenChk RB3LYP/6-31G(d) Freq\\
 CID_88925248_JID_2717_neutraal\\0,1\C,1.0704654587,0.0381850276,0.0579
 601812\N,0.2258361139,0.8312033776,-0.8130260013\C,-0.5302704273,0.091
 5146717,-1.8090861146\C,0.620118432,2.1141319202,-1.1246919853\C,1.693
 3500035,2.7771280447,-0.635313671\C,2.018834382,4.170314119,-0.9238217
 202\N,3.2473508629,4.5589511339,-0.5145043034\C,3.647786399,5.81118332
 58,-0.7588798949\C,2.8464175001,6.760654732,-1.418882864\C,1.575618485

 Normal termination of Gaussian 16 at Wed Dec  9 17:55:51 2020.

 ----------------------------------------------------------------------
 # B3LYP/6-311++G(d,p) empiricaldispersion=gd3bj scf=xqc pop=npa geom=c
 heck
 ----------------------------------------------------------------------

 --------------------------------------
 CID_88925248_JID_2717_Energie_neutraal
 --------------------------------------
 Structure from the checkpoint file:  "JID_2717.chk"
 Charge =  0 Multiplicity = 1

 SCF Done:  E(RB3LYP) =  -515.216171248     A.U. after   15 cycles
 Normal termination of Gaussian 16 at Wed Dec  9 17:58:26 2020.

 ----------------------------------------------------------------------
 # B3LYP/6-311++G(d,p) empiricaldispersion=gd3bj scf=xqc pop=npa geom=c
 heck
 ----------------------------------------------------------------------

 ------------------------------------
 CID_88925248_JID_2717_Energie_kation
 ------------------------------------
 Structure from the checkpoint file:  "JID_2717.chk"
 Charge =  1 Multiplicity = 2

 SCF Done:  E(UB3LYP) =  -514.967885685     A.U. after   20 cycles
 Normal termination of Gaussian 16 at Wed Dec  9 18:02:53 2020.
 Gaussian 16:  ES64L-G16RevA.03 25-Dec-2016

 -----------------------------------
 CID_88925248_JID_2717_Energie_anion
 -----------------------------------
 Structure from the checkpoint file:  "JID_2717.chk"
 Charge = -1 Multiplicity = 2

                         Standard orientation:
 ---------------------------------------------------------------------
 Center     Atomic      Atomic             Coordinates (Angstroms)
 Number     Number       Type             X           Y           Z
 ---------------------------------------------------------------------
      1          6           0        3.479986   -1.433115   -0.286737
      2          7           0        3.196295   -0.016820   -0.166230
      3          6           0        4.210278    0.778488    0.504811
      4          6           0        1.883216    0.385555   -0.054795
      5          6           0        0.782801   -0.398270   -0.129536
      6          6           0       -0.593367    0.086899   -0.099287
      7          7           0       -1.529069   -0.879072    0.039253
      8          6           0       -2.818315   -0.530292    0.105218
      9          6           0       -3.259915    0.803246    0.028040
     10          6           0       -2.294891    1.788545   -0.139681
     11          6           0       -0.948700    1.443809   -0.211496
     12          7           0       -3.717351   -1.571443    0.305701
     13          1           0        4.539723   -1.568002   -0.520474
     14          1           0        2.886454   -1.858494   -1.101289
     15          1           0        3.248705   -1.990679    0.635953
     16          1           0        3.951055    1.838705    0.430047
     17          1           0        4.313925    0.524815    1.572922
     18          1           0        5.180385    0.626640    0.019946
     19          1           0        1.780410    1.459305    0.084088
     20          1           0        0.870167   -1.477818   -0.184131
     21          1           0       -4.316265    1.044797    0.096018
     22          1           0       -2.594056    2.830496   -0.221939
     23          1           0       -0.194759    2.206163   -0.372546
     24          1           0       -3.318280   -2.476895    0.090088
     25          1           0       -4.643141   -1.436882   -0.078974
 ---------------------------------------------------------------------

 SCF Done:  E(UB3LYP) =  -515.204314650     A.U. after   33 cycles
 SCF Done:  E(UB3LYP) =  -515.204314650     a.u. after    1 cycles

 The electronic state is 2-A.
 Alpha  occ. eigenvalues --  -14.23356 -14.21414 -14.18374 -10.13224 -10.09920
 Alpha  occ. eigenvalues --  -10.09576 -10.09575 -10.09468 -10.07840 -10.05902
 Alpha  occ. eigenvalues --  -10.05659 -10.04435  -0.85282  -0.84752  -0.78229
 Alpha  occ. eigenvalues --   -0.68983  -0.67436  -0.62345  -0.62116  -0.56519
 Alpha  occ. eigenvalues --   -0.51578  -0.50879  -0.45446  -0.41828  -0.41647
 Alpha  occ. eigenvalues --   -0.39447  -0.37740  -0.36431  -0.36213  -0.34350
 Alpha  occ. eigenvalues --   -0.32064  -0.30450  -0.30040  -0.29515  -0.29325
 Alpha  occ. eigenvalues --   -0.28320  -0.26631  -0.25596  -0.23092  -0.20157
 Alpha  occ. eigenvalues --   -0.17653  -0.15264  -0.12367  -0.08396   0.04275
 Alpha virt. eigenvalues --    0.05630   0.06881   0.07451   0.08073   0.08853
 Alpha virt. eigenvalues --    0.09343   0.09614   0.10213   0.10855   0.11973
 Alpha virt. eigenvalues --    0.12216   0.12434   0.13624   0.14342   0.15032

  Beta  occ. eigenvalues --  -14.23346 -14.21382 -14.18348 -10.13220 -10.09849
  Beta  occ. eigenvalues --  -10.09541 -10.09488 -10.09401 -10.07828 -10.05849
  Beta  occ. eigenvalues --  -10.05658 -10.04444  -0.85218  -0.84697  -0.78159
  Beta  occ. eigenvalues --   -0.68915  -0.67335  -0.62264  -0.62012  -0.56422
  Beta  occ. eigenvalues --   -0.51507  -0.50811  -0.45344  -0.41767  -0.41600
  Beta  occ. eigenvalues --   -0.39378  -0.37673  -0.36350  -0.36156  -0.34287
  Beta  occ. eigenvalues --   -0.32007  -0.30298  -0.29987  -0.29467  -0.29256
  Beta  occ. eigenvalues --   -0.28265  -0.26581  -0.25557  -0.22894  -0.19986
  Beta  occ. eigenvalues --   -0.17403  -0.15226  -0.12220  -0.08217
  Beta virt. eigenvalues --    0.06597   0.06993   0.07443   0.07801   0.08646
  Beta virt. eigenvalues --    0.09314   0.09426   0.10325   0.10686   0.11266
  Beta virt. eigenvalues --    0.12230   0.12525   0.12822   0.13780   0.14356

 Mulliken charges and spin densities:
               1          2
     1  C    0.278125  -0.679549
     2  N   -0.127602   0.274347
     3  C    1.327962  -1.643587
     4  C   -0.156822  -0.098122
     5  C   -0.100802  -0.433357
     6  C    0.887921  -0.507392
     7  N   -0.042747  -0.014999
     8  C    0.009228  -0.338308
     9  C    0.121118   0.308343
    10  C    0.028511  -0.922876
    11  C   -1.174805   1.207625
    12  N   -0.310830   0.026465
    13  H   -0.428619   0.575620
    14  H   -0.019435   0.170052
    15  H   -0.013947   0.163416
    16  H   -0.420525   0.532970
    17  H   -0.409106   0.563551
    18  H   -0.518338   0.664661
    19  H    0.230789  -0.099312
    20  H    0.132660   0.048534
    21  H   -0.237136   0.395692
    22  H    0.088542   0.051628
    23  H   -0.089835   0.209789
    24  H    0.174329   0.074211
    25  H   -0.228635   0.470599
 Sum of Mulliken charges =  -1.00000   1.00000

 Dipole moment (field-independent basis, Debye):
    X=             -4.0047    Y=              0.6955    Z=             -1.5206  Tot=              4.3398
 Quadrupole moment (field-independent basis, Debye-Ang):
   XX=           -181.2592   YY=            -96.9850   ZZ=            -99.5038
   XY=             -6.7389   XZ=             -4.7392   YZ=             -0.5986

 Summary of Natural Population Analysis:

                                       Natural Population
                Natural  -----------------------------------------------
    Atom  No    Charge         Core      Valence    Rydberg      Total
 -----------------------------------------------------------------------
      C    1   -0.17889      0.99964     2.17028    0.00897     3.17889
      N    2   -0.24331      0.99969     2.73188    0.01175     3.74331
      C    3   -0.16945      0.99964     2.16169    0.00812     3.16945
      C    4    0.05302      0.99951     1.93609    0.01137     2.94698
      C    5   -0.16948      0.99953     2.16024    0.00972     3.16948
      C    6    0.11715      0.99953     1.87068    0.01264     2.88285
      N    7   -0.26760      0.99965     2.75784    0.01010     3.76760
      C    8    0.20012      0.99955     1.78559    0.01475     2.79988
      C    9   -0.15458      0.99952     2.14555    0.00951     3.15458
      C   10   -0.07635      0.99957     2.06719    0.00958     3.07635
      C   11   -0.14692      0.99952     2.13931    0.00809     3.14692
      N   12   -0.39956      0.99971     2.88970    0.01015     3.89956
      H   13    0.09937      0.00000     0.39949    0.00113     0.40063
      H   14    0.09825      0.00000     0.40044    0.00131     0.40175
      H   15    0.09068      0.00000     0.40775    0.00157     0.40932
      H   16    0.09691      0.00000     0.40169    0.00140     0.40309
      H   17    0.09009      0.00000     0.40683    0.00308     0.40991
      H   18    0.09713      0.00000     0.40048    0.00240     0.40287
      H   19    0.08975      0.00000     0.40879    0.00147     0.41025
      H   20    0.10424      0.00000     0.39394    0.00183     0.39576
      H   21    0.10009      0.00000     0.39888    0.00103     0.39991
      H   22    0.09612      0.00000     0.40313    0.00075     0.40388
      H   23    0.09868      0.00000     0.39985    0.00147     0.40132
      H   24    0.18821      0.00000     0.30954    0.00225     0.31179
      H   25    0.18632      0.00000     0.31026    0.00342     0.31368
 =======================================================================
   * Total *   -0.00000     11.99507    31.85709    0.14784    44.00000

 Normal termination of Gaussian 16 at Wed Dec  9 18:10:10 2020.
