 Gaussian 16, Revision A.03,

 ----------------------------------------------------------------------
 # opt=(cartesian,calcfc) freq B3LYP/6-31G(d) empiricaldispersion=gd3bj
  scf=xqc
 ----------------------------------------------------------------------

 -------------------------------
 CID_79212634_JID_10151_neutraal
 -------------------------------
 Symbolic Z-matrix:
 Charge =  0 Multiplicity = 1

 SCF Done:  E(RB3LYP) =  -1271.50545705     A.U. after   15 cycles
 SCF Done:  E(RB3LYP) =  -1271.50553142     A.U. after   11 cycles
 SCF Done:  E(RB3LYP) =  -1271.50553395     A.U. after   11 cycles
 SCF Done:  E(RB3LYP) =  -1271.50553457     A.U. after    9 cycles
 SCF Done:  E(RB3LYP) =  -1271.50553458     A.U. after    7 cycles
 SCF Done:  E(RB3LYP) =  -1271.50553459     A.U. after    7 cycles
 Optimization completed.
    -- Stationary point found.
 Normal termination of Gaussian 16 at Mon Jan  4 11:01:57 2021.

 --------------------------------------------------------------------
 #N Geom=AllCheck Guess=TCheck SCRF=Check GenChk RB3LYP/6-31G(d) Freq
 --------------------------------------------------------------------

 Structure from the checkpoint file:  "JID_10151.chk"
 -------------------------------
 CID_79212634_JID_10151_neutraal
 -------------------------------
 Charge =  0 Multiplicity = 1

 SCF Done:  E(RB3LYP) =  -1271.50553459     A.U. after    1 cycles

  Exact polarizability: 188.183 -17.791 169.040 -15.949 -12.757 145.581
 Approx polarizability: 290.587 -29.729 278.119 -48.050 -23.913 258.809

                      1                      2                      3
                      A                      A                      A
 Frequencies --     26.9565                58.0748                74.9709
 Red. masses --      6.2343                 6.6447                 5.3051
 Frc consts  --      0.0027                 0.0132                 0.0176
 IR Inten    --      1.7450                 3.1679                 0.8751

                      4                      5                      6
                      A                      A                      A
 Frequencies --     78.9516                98.0473               111.0250
 Red. masses --      6.6211                 7.2568                 7.2241
 Frc consts  --      0.0243                 0.0411                 0.0525
 IR Inten    --      0.0201                 3.4592                 3.3653

                      7                      8                      9
                      A                      A                      A
 Frequencies --    164.6862               175.3038               188.1281
 Red. masses --      4.2419                 3.2677                 4.7623
 Frc consts  --      0.0678                 0.0592                 0.0993
 IR Inten    --      0.7484                 1.0693                 0.4309

                     10                     11                     12
                      A                      A                      A
 Frequencies --    238.3304               253.7154               265.2271
 Red. masses --      4.0089                 2.7892                 4.0904
 Frc consts  --      0.1342                 0.1058                 0.1695
 IR Inten    --      1.2201                 1.5203                 0.7657

                     13                     14                     15
                      A                      A                      A
 Frequencies --    289.3840               290.5708               305.2672
 Red. masses --      2.1684                 1.6540                 1.9471
 Frc consts  --      0.1070                 0.0823                 0.1069
 IR Inten    --      0.3393                 0.8063                 2.9248

                     16                     17                     18
                      A                      A                      A
 Frequencies --    334.3868               366.2689               385.2208
 Red. masses --      2.1248                 3.6836                 3.6082
 Frc consts  --      0.1400                 0.2912                 0.3155
 IR Inten    --      1.1134                 4.2893                 1.9446

                     19                     20                     21
                      A                      A                      A
 Frequencies --    393.7381               402.1387               445.4399
 Red. masses --      4.1843                 5.9935                 4.0055
 Frc consts  --      0.3822                 0.5711                 0.4683
 IR Inten    --      0.5064                 0.5606                 3.1915

                     22                     23                     24
                      A                      A                      A
 Frequencies --    469.2162               490.8867               513.5638
 Red. masses --      3.8693                 8.7290                 4.2631
 Frc consts  --      0.5019                 1.2393                 0.6625
 IR Inten    --      7.4074                 1.4064                 1.9515

                     25                     26                     27
                      A                      A                      A
 Frequencies --    520.4540               576.9200               587.7749
 Red. masses --      4.7782                 1.9584                 2.1976
 Frc consts  --      0.7626                 0.3840                 0.4473
 IR Inten    --      0.1729                72.5318                75.0539

                     28                     29                     30
                      A                      A                      A
 Frequencies --    638.5564               666.7606               689.8022
 Red. masses --      4.1171                 3.2069                 5.1649
 Frc consts  --      0.9891                 0.8400                 1.4480
 IR Inten    --      6.4450                69.4082                 6.3340

                     31                     32                     33
                      A                      A                      A
 Frequencies --    715.1244               721.5234               734.6767
 Red. masses --      6.6038                 9.1192                 7.8886
 Frc consts  --      1.9898                 2.7971                 2.5087
 IR Inten    --      5.1033                 6.3429                 1.2169

                     34                     35                     36
                      A                      A                      A
 Frequencies --    750.2053               765.2301               772.6939
 Red. masses --      2.5835                 3.5247                 2.9457
 Frc consts  --      0.8567                 1.2161                 1.0362
 IR Inten    --     31.2503                41.5644                10.0424

                     37                     38                     39
                      A                      A                      A
 Frequencies --    780.1480               819.3769               872.0987
 Red. masses --      2.8461                 2.6336                 1.3463
 Frc consts  --      1.0206                 1.0418                 0.6033
 IR Inten    --     10.0932                 6.2499                 0.1408

                     40                     41                     42
                      A                      A                      A
 Frequencies --    893.2415               941.5254               945.0272
 Red. masses --      3.7485                 1.4986                 2.1419
 Frc consts  --      1.7622                 0.7827                 1.1270
 IR Inten    --      3.1387                13.1179                 7.7462

                     43                     44                     45
                      A                      A                      A
 Frequencies --    954.5761               977.4335               978.3780
 Red. masses --      1.5094                 1.3174                 1.4617
 Frc consts  --      0.8103                 0.7416                 0.8244
 IR Inten    --      1.3717                 0.3973                 1.8737

                     46                     47                     48
                      A                      A                      A
 Frequencies --   1009.3966              1028.2162              1046.2192
 Red. masses --      4.4237                 5.5557                 1.6478
 Frc consts  --      2.6556                 3.4607                 1.0626
 IR Inten    --      0.3577                 1.5421                 4.6717

                     49                     50                     51
                      A                      A                      A
 Frequencies --   1061.8038              1081.6116              1100.6625
 Red. masses --      2.6383                 3.7306                 4.8495
 Frc consts  --      1.7525                 2.5714                 3.4614
 IR Inten    --      5.7450                11.4279                 1.7123

                     52                     53                     54
                      A                      A                      A
 Frequencies --   1133.2912              1145.7332              1159.4636
 Red. masses --     10.1636                 2.3178                 1.7122
 Frc consts  --      7.6910                 1.7927                 1.3562
 IR Inten    --     11.8492                88.1039                16.6298

                     55                     56                     57
                      A                      A                      A
 Frequencies --   1173.4124              1191.9099              1195.3037
 Red. masses --      1.2075                 2.7674                 1.1375
 Frc consts  --      0.9796                 2.3164                 0.9576
 IR Inten    --      6.6009                89.7944                 0.4137

                     58                     59                     60
                      A                      A                      A
 Frequencies --   1226.6219              1239.1032              1246.2721
 Red. masses --      2.4872                 3.8309                 2.0803
 Frc consts  --      2.2049                 3.4655                 1.9037
 IR Inten    --      0.7121                 6.4553                20.1888

                     61                     62                     63
                      A                      A                      A
 Frequencies --   1279.2636              1284.6216              1300.6291
 Red. masses --      2.0875                 1.8473                 1.3797
 Frc consts  --      2.0128                 1.7961                 1.3751
 IR Inten    --      5.0696                23.5830                 8.8202

                     64                     65                     66
                      A                      A                      A
 Frequencies --   1322.7911              1328.9875              1360.6703
 Red. masses --      1.9568                 1.7711                 3.6129
 Frc consts  --      2.0173                 1.8430                 3.9410
 IR Inten    --      4.4501                 2.7264                 0.9482

                     67                     68                     69
                      A                      A                      A
 Frequencies --   1372.9323              1388.1392              1429.1657
 Red. masses --      5.6368                 2.3909                 1.2130
 Frc consts  --      6.2601                 2.7144                 1.4597
 IR Inten    --      5.4664                23.0846                 6.2759

                     70                     71                     72
                      A                      A                      A
 Frequencies --   1440.7760              1457.6271              1492.5442
 Red. masses --      3.9094                 1.2830                 2.2515
 Frc consts  --      4.7813                 1.6061                 2.9551
 IR Inten    --     44.4063                10.0558                21.5318

                     73                     74                     75
                      A                      A                      A
 Frequencies --   1505.6951              1514.3544              1517.7779
 Red. masses --      1.0800                 1.1605                 1.8418
 Frc consts  --      1.4426                 1.5680                 2.4999
 IR Inten    --      7.0435                 6.0382                13.8644

                     76                     77                     78
                      A                      A                      A
 Frequencies --   1524.3548              1532.7832              1538.1901
 Red. masses --      1.1035                 1.0821                 7.2412
 Frc consts  --      1.5107                 1.4978                10.0944
 IR Inten    --      9.4105                12.4194                12.3553

                     79                     80                     81
                      A                      A                      A
 Frequencies --   1554.1430              1634.3711              1648.7456
 Red. masses --      1.0797                 6.1453                 5.7832
 Frc consts  --      1.5365                 9.6715                 9.2624
 IR Inten    --      5.6341                 2.3445                16.9843

                     82                     83                     84
                      A                      A                      A
 Frequencies --   1849.6148              3069.5483              3079.0966
 Red. masses --     10.6000                 1.0838                 1.0378
 Frc consts  --     21.3658                 6.0165                 5.7970
 IR Inten    --    158.1398                 1.5978                 6.0530

                     85                     86                     87
                      A                      A                      A
 Frequencies --   3085.1155              3119.1869              3151.4901
 Red. masses --      1.0414                 1.0580                 1.1018
 Frc consts  --      5.8400                 6.0649                 6.4476
 IR Inten    --     15.1508                14.8296                 1.4443

                     88                     89                     90
                      A                      A                      A
 Frequencies --   3158.3073              3168.7575              3190.3130
 Red. masses --      1.1008                 1.1095                 1.0861
 Frc consts  --      6.4694                 6.5640                 6.5130
 IR Inten    --     20.9766                 4.8292                 2.9252

                     91                     92                     93
                      A                      A                      A
 Frequencies --   3190.9363              3203.7000              3204.7006
 Red. masses --      1.1025                 1.0977                 1.0895
 Frc consts  --      6.6139                 6.6381                 6.5925
 IR Inten    --      2.8139                 0.5327                 6.7795

                     94                     95                     96
                      A                      A                      A
 Frequencies --   3212.2317              3220.6230              3685.4622
 Red. masses --      1.0939                 1.0962                 1.0639
 Frc consts  --      6.6506                 6.6990                 8.5141
 IR Inten    --     15.7059                 6.6931                44.8928

 - Thermochemistry -
 -------------------
 Temperature   298.150 Kelvin.  Pressure   1.00000 Atm.
 Atom     1 has atomic number  6 and mass  12.00000

 Molecular mass:   290.08375 amu.
 Principal axes and moments of inertia in atomic units:
                           1         2         3
     Eigenvalues --  3753.257905732.536326865.32470
           X            0.99957  -0.00421   0.02896
           Y            0.00421   0.99999  -0.00006
           Z           -0.02896   0.00018   0.99958
 This molecule is an asymmetric top.
 Rotational symmetry number  1.
 Warning -- assumption of classical behavior for rotation
           may cause significant error
 Rotational temperatures (Kelvin)      0.02308     0.01511     0.01262
 Rotational constants (GHZ):           0.48085     0.31482     0.26288
 Zero-point vibrational energy     698485.7 (Joules/Mol)
                                  166.94209 (Kcal/Mol)
 Warning -- explicit consideration of  27 degrees of freedom as
           vibrations may cause significant error
 Vibrational temperatures:     38.78    83.56   107.87   113.59   141.07
          (Kelvin)            159.74   236.95   252.22   270.67   342.90
                              365.04   381.60   416.36   418.07   439.21
                              481.11   526.98   554.25   566.50   578.59
                              640.89   675.10   706.28   738.90   748.82
                              830.06   845.68   918.74   959.32   992.47
                             1028.90  1038.11  1057.04  1079.38  1101.00
                             1111.73  1122.46  1178.90  1254.76  1285.18
                             1354.65  1359.68  1373.42  1406.31  1407.67
                             1452.30  1479.37  1505.28  1527.70  1556.20
                             1583.61  1630.55  1648.45  1668.21  1688.28
                             1714.89  1719.78  1764.84  1782.79  1793.11
                             1840.58  1848.28  1871.32  1903.20  1912.12
                             1957.70  1975.34  1997.22  2056.25  2072.96
                             2097.20  2147.44  2166.36  2178.82  2183.74
                             2193.21  2205.33  2213.11  2236.07  2351.50
                             2372.18  2661.18  4416.40  4430.13  4438.79
                             4487.81  4534.29  4544.10  4559.14  4590.15
                             4591.05  4609.41  4610.85  4621.68  4633.76
                             5302.56

 Zero-point correction=                           0.266039 (Hartree/Particle)
 Thermal correction to Energy=                    0.283224
 Thermal correction to Enthalpy=                  0.284169
 Thermal correction to Gibbs Free Energy=         0.221032
 Sum of electronic and zero-point Energies=          -1271.239495
 Sum of electronic and thermal Energies=             -1271.222310
 Sum of electronic and thermal Enthalpies=           -1271.221366
 Sum of electronic and thermal Free Energies=        -1271.284502

                     E (Thermal)             CV                S
                      KCal/Mol        Cal/Mol-Kelvin    Cal/Mol-Kelvin
 Total                  177.726             67.336            132.882
 Electronic               0.000              0.000              0.000
 Translational            0.889              2.981             42.893
 Rotational               0.889              2.981             33.357
 Vibrational            175.949             61.375             56.632
 Vibration     1          0.593              1.984              6.042
 Vibration     2          0.596              1.974              4.522
 Vibration     3          0.599              1.966              4.018
 Vibration     4          0.600              1.963              3.917
 Vibration     5          0.603              1.951              3.493
 Vibration     6          0.607              1.940              3.251
 Vibration     7          0.623              1.886              2.495
 Vibration     8          0.627              1.873              2.378
 Vibration     9          0.633              1.856              2.246
 Vibration    10          0.656              1.782              1.815
 Vibration    11          0.665              1.757              1.705
 Vibration    12          0.671              1.737              1.627
 Vibration    13          0.686              1.693              1.478
 Vibration    14          0.687              1.691              1.471
 Vibration    15          0.696              1.664              1.388
 Vibration    16          0.716              1.607              1.239
 Vibration    17          0.739              1.542              1.095
 Vibration    18          0.754              1.502              1.019
 Vibration    19          0.761              1.484              0.986
 Vibration    20          0.768              1.466              0.955
 Vibration    21          0.805              1.371              0.810
 Vibration    22          0.826              1.318              0.740
 Vibration    23          0.847              1.270              0.681
 Vibration    24          0.869              1.220              0.625
 Vibration    25          0.875              1.205              0.609
 Vibration    26          0.933              1.081              0.491
 Vibration    27          0.945              1.058              0.471

 Normal termination of Gaussian 16 at Mon Jan  4 11:23:20 2021.

 ----------------------------------------------------------------------
 # B3LYP/6-311++G(d,p) empiricaldispersion=gd3bj scf=xqc pop=npa geom=c
 heck
 ----------------------------------------------------------------------

 ---------------------------------------
 CID_79212634_JID_10151_Energie_neutraal
 ---------------------------------------
 Structure from the checkpoint file:  "JID_10151.chk"
 Charge =  0 Multiplicity = 1

 SCF Done:  E(RB3LYP) =  -1271.76936221     A.U. after   16 cycles
 Normal termination of Gaussian 16 at Mon Jan  4 11:32:29 2021.

 ----------------------------------------------------------------------
 # B3LYP/6-311++G(d,p) empiricaldispersion=gd3bj scf=xqc pop=npa geom=c
 heck
 ----------------------------------------------------------------------

 -------------------------------------
 CID_79212634_JID_10151_Energie_kation
 -------------------------------------
 Structure from the checkpoint file:  "JID_10151.chk"
 Charge =  1 Multiplicity = 2

 SCF Done:  E(UB3LYP) =  -1271.47236069     A.U. after   24 cycles
 Normal termination of Gaussian 16 at Mon Jan  4 11:51:54 2021.
 Gaussian 16:  ES64L-G16RevA.03 25-Dec-2016

 ----------------------------------------------------------------------
 # B3LYP/6-311++G(d,p) empiricaldispersion=gd3bj scf=xqc pop=npa geom=c
 heck
 ----------------------------------------------------------------------

 ------------------------------------
 CID_79212634_JID_10151_Energie_anion
 ------------------------------------
 Structure from the checkpoint file:  "JID_10151.chk"
 Charge = -1 Multiplicity = 2

                         Standard orientation:
 ---------------------------------------------------------------------
 Center     Atomic      Atomic             Coordinates (Angstroms)
 Number     Number       Type             X           Y           Z
 ---------------------------------------------------------------------
      1          6           0        2.858434    1.340396    1.546619
      2          6           0        1.564511    0.717272    0.985715
      3          6           0        0.748300    0.110441    2.129928
      4          6           0        0.839249    1.854539    0.243489
      5          8           0        1.183104    2.280134   -0.833254
      6          8           0       -0.177848    2.362922    0.964513
      7          7           0        1.915883   -0.311231   -0.022217
      8          6           0        1.180631   -1.186726   -0.768754
      9          7           0        2.008783   -1.819526   -1.583254
     10          7           0        3.249497   -1.328108   -1.340437
     11          7           0        3.212009   -0.426073   -0.421820
     12          6           0       -0.281883   -1.533370   -0.744057
     13          6           0       -0.647471   -2.456103    0.461084
     14         16           0       -2.282088   -1.918859    1.139528
     15          6           0       -2.307336   -0.455254    0.135822
     16          6           0       -3.288421    0.534688    0.192810
     17          6           0       -3.214223    1.607462   -0.698014
     18          6           0       -2.184168    1.683841   -1.639332
     19          6           0       -1.205352    0.687587   -1.685444
     20          6           0       -1.250952   -0.368050   -0.779395
     21          1           0        2.575714    2.111044    2.270004
     22          1           0        3.457121    1.787440    0.753801
     23          1           0        3.456140    0.579180    2.053117
     24          1           0        0.617429    0.859156    2.913663
     25          1           0       -0.245938   -0.206310    1.820552
     26          1           0        1.291630   -0.740651    2.551261
     27          1           0       -0.603627    3.038760    0.403611
     28          1           0       -0.413472   -2.116804   -1.661827
     29          1           0       -0.722410   -3.496528    0.143785
     30          1           0        0.097850   -2.396156    1.254597
     31          1           0       -4.098066    0.469362    0.912785
     32          1           0       -3.975217    2.382063   -0.662527
     33          1           0       -2.143018    2.511377   -2.340846
     34          1           0       -0.393880    0.749610   -2.403217
 ---------------------------------------------------------------------

 SCF Done:  E(UB3LYP) =  -1271.76748430     A.U. after   33 cycles
 SCF Done:  E(UB3LYP) =  -1271.76748430     a.u. after    2 cycles

 The electronic state is 2-A.
 Alpha  occ. eigenvalues --  -88.75644 -19.07952 -19.02499 -14.30357 -14.26582
 Alpha  occ. eigenvalues --  -14.25808 -14.22832 -10.21844 -10.16507 -10.14648
 Alpha  occ. eigenvalues --  -10.11861 -10.11711 -10.10894 -10.08974 -10.08703
 Alpha  occ. eigenvalues --  -10.08566 -10.07696 -10.07624 -10.07546 -10.07356
 Alpha  occ. eigenvalues --   -7.84249  -5.80624  -5.80276  -5.79659  -1.02876
 Alpha  occ. eigenvalues --   -1.02114  -0.93461  -0.85053  -0.79957  -0.77582
 Alpha  occ. eigenvalues --   -0.72898  -0.72227  -0.67594  -0.63964  -0.62287
 Alpha  occ. eigenvalues --   -0.62203  -0.58634  -0.55858  -0.54335  -0.53175
 Alpha  occ. eigenvalues --   -0.51419  -0.48889  -0.47164  -0.43990  -0.41281
 Alpha  occ. eigenvalues --   -0.40351  -0.39946  -0.39266  -0.37824  -0.37038
 Alpha  occ. eigenvalues --   -0.36714  -0.35707  -0.33772  -0.33384  -0.32764
 Alpha  occ. eigenvalues --   -0.32400  -0.31629  -0.31512  -0.30284  -0.29261
 Alpha  occ. eigenvalues --   -0.28901  -0.28615  -0.26992  -0.26850  -0.26158
 Alpha  occ. eigenvalues --   -0.25242  -0.23765  -0.23411  -0.21236  -0.19858
 Alpha  occ. eigenvalues --   -0.19310  -0.18965  -0.18790  -0.18269  -0.15658
 Alpha  occ. eigenvalues --   -0.11625   0.03995
 Alpha virt. eigenvalues --    0.06450   0.06840   0.07191   0.07329   0.07793
 Alpha virt. eigenvalues --    0.08208   0.08747   0.09322   0.09561   0.09920
 Alpha virt. eigenvalues --    0.10306   0.10578   0.11203   0.11954   0.12381

  Beta  occ. eigenvalues --  -88.75625 -19.07905 -19.02480 -14.30228 -14.26381
  Beta  occ. eigenvalues --  -14.25795 -14.22835 -10.21824 -10.16507 -10.14544
  Beta  occ. eigenvalues --  -10.11806 -10.11716 -10.10883 -10.08965 -10.08649
  Beta  occ. eigenvalues --  -10.08551 -10.07653 -10.07567 -10.07489 -10.07351
  Beta  occ. eigenvalues --   -7.84231  -5.80559  -5.80268  -5.79649  -1.02718
  Beta  occ. eigenvalues --   -1.02015  -0.93401  -0.84892  -0.79789  -0.77438
  Beta  occ. eigenvalues --   -0.72823  -0.72136  -0.67472  -0.63860  -0.62249
  Beta  occ. eigenvalues --   -0.62079  -0.58552  -0.55691  -0.54235  -0.53083
  Beta  occ. eigenvalues --   -0.51271  -0.48788  -0.47068  -0.43861  -0.41165
  Beta  occ. eigenvalues --   -0.40254  -0.39906  -0.39093  -0.37730  -0.36808
  Beta  occ. eigenvalues --   -0.36633  -0.35559  -0.33725  -0.33323  -0.32643
  Beta  occ. eigenvalues --   -0.32354  -0.31594  -0.31439  -0.30218  -0.29190
  Beta  occ. eigenvalues --   -0.28767  -0.28519  -0.26852  -0.26775  -0.26038
  Beta  occ. eigenvalues --   -0.25149  -0.23668  -0.23256  -0.20828  -0.19767
  Beta  occ. eigenvalues --   -0.19063  -0.18823  -0.18358  -0.18169  -0.15354
  Beta  occ. eigenvalues --   -0.11517
  Beta virt. eigenvalues --    0.06664   0.06942   0.07098   0.07452   0.07971
  Beta virt. eigenvalues --    0.08304   0.08768   0.09157   0.09423   0.09867
  Beta virt. eigenvalues --    0.10268   0.10513   0.10920   0.11472   0.12122

 Mulliken charges and spin densities:
               1          2
     1  C   -0.452571  -0.188095
     2  C   -0.342002   0.164230
     3  C   -0.168428  -0.342257
     4  C    0.211386  -0.370783
     5  O   -0.197094   0.041912
     6  O   -0.001519   0.001775
     7  N    0.182021   0.035292
     8  C   -0.506198   0.038485
     9  N    0.067185   0.006368
    10  N    0.083582  -0.003385
    11  N    0.084588   0.106702
    12  C    0.515023  -0.718410
    13  C   -0.264385   0.001624
    14  S   -0.538342   0.170632
    15  C   -0.459643   0.445713
    16  C   -0.135200   0.308992
    17  C    1.627943  -1.837270
    18  C   -0.902793   0.500126
    19  C   -0.272579   0.020015
    20  C    0.658269  -0.387155
    21  H    0.004309   0.147079
    22  H    0.199488   0.016366
    23  H    0.190731  -0.008239
    24  H    0.068314   0.113105
    25  H    0.098340   0.057768
    26  H    0.150252   0.006235
    27  H   -0.240011   0.545429
    28  H    0.226487   0.052964
    29  H    0.240512  -0.001374
    30  H    0.185465   0.002886
    31  H   -0.461011   0.647265
    32  H   -0.669955   0.850457
    33  H   -0.341196   0.521838
    34  H    0.159032   0.053712
 Sum of Mulliken charges =  -1.00000   1.00000

 Dipole moment (field-independent basis, Debye):
    X=              2.4957    Y=             -3.9595    Z=              3.4064  Tot=              5.7888
 Quadrupole moment (field-independent basis, Debye-Ang):
   XX=           -196.1761   YY=           -168.8370   ZZ=           -151.5853
   XY=             17.5781   XZ=             15.1240   YZ=             -3.1432

 Summary of Natural Population Analysis:

                                       Natural Population
                Natural  -----------------------------------------------
    Atom  No    Charge         Core      Valence    Rydberg      Total
 -----------------------------------------------------------------------
      C    1   -0.28267      0.99963     2.27593    0.00711     3.28267
      C    2    0.02819      0.99953     1.95862    0.01367     2.97181
      C    3   -0.29205      0.99962     2.28447    0.00796     3.29205
      C    4    0.41077      0.99964     1.56200    0.02759     2.58923
      O    5   -0.29819      0.99987     3.29236    0.00597     4.29819
      O    6   -0.34079      0.99987     3.33295    0.00797     4.34079
      N    7   -0.11155      0.99958     2.59554    0.01643     3.61155
      C    8    0.20862      0.99957     1.77076    0.02105     2.79138
      N    9   -0.17035      0.99969     2.65895    0.01171     3.67035
      N   10   -0.04764      0.99980     2.52934    0.01850     3.54764
      N   11   -0.01593      0.99977     2.50212    0.01404     3.51593
      C   12   -0.14265      0.99953     2.12947    0.01365     3.14265
      C   13   -0.22938      0.99959     2.22199    0.00781     3.22938
      S   14    0.12956      4.99955     2.85279    0.01811     7.87044
      C   15   -0.08012      0.99935     2.06786    0.01292     3.08012
      C   16   -0.10357      0.99948     2.09225    0.01184     3.10357
      C   17   -0.08802      0.99956     2.07789    0.01058     3.08802
      C   18   -0.11314      0.99956     2.10226    0.01133     3.11314
      C   19   -0.08500      0.99951     2.07558    0.00991     3.08500
      C   20   -0.03214      0.99941     2.02069    0.01203     3.03214
      H   21    0.10290      0.00000     0.39634    0.00076     0.39710
      H   22    0.11742      0.00000     0.38139    0.00118     0.38258
      H   23    0.10656      0.00000     0.39250    0.00093     0.39344
      H   24    0.11106      0.00000     0.38807    0.00087     0.38894
      H   25    0.11442      0.00000     0.38384    0.00174     0.38558
      H   26    0.09970      0.00000     0.39943    0.00087     0.40030
      H   27    0.25104      0.00000     0.23902    0.00994     0.24896
      H   28    0.12276      0.00000     0.37532    0.00192     0.37724
      H   29    0.10530      0.00000     0.39390    0.00080     0.39470
      H   30    0.10187      0.00000     0.39715    0.00098     0.39813
      H   31    0.10505      0.00000     0.39333    0.00163     0.39495
      H   32    0.10450      0.00000     0.39306    0.00244     0.39550
      H   33    0.10401      0.00000     0.39487    0.00112     0.39599
      H   34    0.10948      0.00000     0.38895    0.00158     0.39052
 =======================================================================
   * Total *   -0.00000     23.99210    51.72098    0.28692    76.00000

 Normal termination of Gaussian 16 at Mon Jan  4 13:26:58 2021.
