 Gaussian 16, Revision A.03,

 -----------------------------------------------------------
 # opt freq B3LYP/6-31G(d) empiricaldispersion=gd3bj scf=xqc
 -----------------------------------------------------------

 -------------------------------
 CID_130704463_JID_4208_neutraal
 -------------------------------
 Symbolic Z-matrix:
 Charge =  0 Multiplicity = 1

 SCF Done:  E(RB3LYP) =  -632.016985012     A.U. after   14 cycles
 SCF Done:  E(RB3LYP) =  -632.021553278     A.U. after   12 cycles
 SCF Done:  E(RB3LYP) =  -632.022216913     A.U. after   12 cycles
 SCF Done:  E(RB3LYP) =  -632.022310323     A.U. after   12 cycles
 SCF Done:  E(RB3LYP) =  -632.022621008     A.U. after   11 cycles
 SCF Done:  E(RB3LYP) =  -632.022642187     A.U. after   10 cycles
 SCF Done:  E(RB3LYP) =  -632.022664348     A.U. after    9 cycles
 SCF Done:  E(RB3LYP) =  -632.022672520     A.U. after    9 cycles
 SCF Done:  E(RB3LYP) =  -632.022679047     A.U. after   10 cycles
 SCF Done:  E(RB3LYP) =  -632.022683799     A.U. after   10 cycles
 SCF Done:  E(RB3LYP) =  -632.024538914     A.U. after   12 cycles
 SCF Done:  E(RB3LYP) =  -632.024595603     A.U. after   11 cycles
 SCF Done:  E(RB3LYP) =  -632.024610119     A.U. after   10 cycles
 SCF Done:  E(RB3LYP) =  -632.024611617     A.U. after    8 cycles
 SCF Done:  E(RB3LYP) =  -632.024612133     A.U. after    8 cycles
 Optimization completed.
    -- Stationary point found.
 Normal termination of Gaussian 16 at Thu Dec 10 09:35:07 2020.

 --------------------------------------------------------------------
 #N Geom=AllCheck Guess=TCheck SCRF=Check GenChk RB3LYP/6-31G(d) Freq
 --------------------------------------------------------------------

 Structure from the checkpoint file:  "JID_4208.chk"
 -------------------------------
 CID_130704463_JID_4208_neutraal
 -------------------------------
 Charge =  0 Multiplicity = 1

 SCF Done:  E(RB3LYP) =  -632.024612133     A.U. after    1 cycles

  Exact polarizability: 156.108   7.221 113.784  -1.749   5.210 105.088
 Approx polarizability: 202.206   8.092 176.415  -7.143  19.239 157.901

                      1                      2                      3
                      A                      A                      A
 Frequencies --     35.8698                42.9412                74.7581
 Red. masses --      4.0534                 4.1209                 2.9237
 Frc consts  --      0.0031                 0.0045                 0.0096
 IR Inten    --      0.2114                 0.0743                 0.0544

                      4                      5                      6
                      A                      A                      A
 Frequencies --    138.1101               143.2338               186.7467
 Red. masses --      3.3787                 1.0716                 3.9340
 Frc consts  --      0.0380                 0.0130                 0.0808
 IR Inten    --      0.1947                 0.2013                 3.7354

                      7                      8                      9
                      A                      A                      A
 Frequencies --    223.1144               248.8663               253.2809
 Red. masses --      1.0978                 1.3392                 1.1634
 Frc consts  --      0.0322                 0.0489                 0.0440
 IR Inten    --      0.1695                 0.8130                 0.4570

                     10                     11                     12
                      A                      A                      A
 Frequencies --    267.0333               276.2330               282.1668
 Red. masses --      1.3204                 1.5068                 2.2927
 Frc consts  --      0.0555                 0.0677                 0.1075
 IR Inten    --      0.2779                 1.6378                 0.6432

                     13                     14                     15
                      A                      A                      A
 Frequencies --    298.9565               318.4782               327.2469
 Red. masses --      2.3394                 2.2445                 1.7953
 Frc consts  --      0.1232                 0.1341                 0.1133
 IR Inten    --      1.5946                 0.9895                 4.2748

                     16                     17                     18
                      A                      A                      A
 Frequencies --    346.6217               373.6874               380.6741
 Red. masses --      3.9124                 2.0389                 2.4043
 Frc consts  --      0.2770                 0.1677                 0.2053
 IR Inten    --      2.6539                 0.6897                 0.3972

                     19                     20                     21
                      A                      A                      A
 Frequencies --    388.9064               396.5473               416.7857
 Red. masses --      2.4194                 2.5650                 2.5354
 Frc consts  --      0.2156                 0.2376                 0.2595
 IR Inten    --      1.6893                 0.5352                 0.3624

                     22                     23                     24
                      A                      A                      A
 Frequencies --    465.8378               481.1482               517.1934
 Red. masses --      1.4871                 1.7903                 2.5179
 Frc consts  --      0.1901                 0.2442                 0.3968
 IR Inten    --     51.5057                29.3381                10.6402

                     25                     26                     27
                      A                      A                      A
 Frequencies --    559.8005               652.0560               670.9411
 Red. masses --      3.1256                 5.2848                 3.8614
 Frc consts  --      0.5771                 1.3239                 1.0242
 IR Inten    --      3.5082                 2.6656                11.7913

                     28                     29                     30
                      A                      A                      A
 Frequencies --    684.0814               750.7282               799.1539
 Red. masses --      3.3907                 9.6881                 4.6866
 Frc consts  --      0.9349                 3.2170                 1.7635
 IR Inten    --      9.2460                13.5805                 4.7868

                     31                     32                     33
                      A                      A                      A
 Frequencies --    843.8301               889.0865               918.6256
 Red. masses --      2.7924                 8.0405                 2.7078
 Frc consts  --      1.1715                 3.7447                 1.3463
 IR Inten    --      2.1758                 9.1571                 3.3222

                     34                     35                     36
                      A                      A                      A
 Frequencies --    947.9929               950.6935               961.6857
 Red. masses --      1.7088                 1.6982                 1.5638
 Frc consts  --      0.9048                 0.9043                 0.8521
 IR Inten    --      0.3555                 1.1989                 0.7937

                     37                     38                     39
                      A                      A                      A
 Frequencies --    978.2948               981.6330              1012.4454
 Red. masses --      1.2395                 2.6562                 2.4284
 Frc consts  --      0.6989                 1.5080                 1.4666
 IR Inten    --      0.2480                 6.0703                 4.5677

                     40                     41                     42
                      A                      A                      A
 Frequencies --   1034.6795              1054.9713              1060.5732
 Red. masses --      1.2911                 2.3458                 1.3995
 Frc consts  --      0.8144                 1.5382                 0.9275
 IR Inten    --      0.1031                 8.7444                 0.3054

                     43                     44                     45
                      A                      A                      A
 Frequencies --   1068.9416              1083.7596              1102.0123
 Red. masses --      1.4857                 1.5483                 5.1186
 Frc consts  --      1.0002                 1.0715                 3.6625
 IR Inten    --      0.2800                 3.9610                12.7178

                     46                     47                     48
                      A                      A                      A
 Frequencies --   1190.5501              1205.4313              1219.1727
 Red. masses --      2.4865                 2.1767                 2.3086
 Frc consts  --      2.0765                 1.8635                 2.0217
 IR Inten    --     11.9195                49.5001                32.8171

                     49                     50                     51
                      A                      A                      A
 Frequencies --   1263.0907              1270.0582              1283.6425
 Red. masses --      2.8292                 3.0132                 2.5927
 Frc consts  --      2.6594                 2.8636                 2.5170
 IR Inten    --     10.5241                16.8599                 1.8606

                     52                     53                     54
                      A                      A                      A
 Frequencies --   1309.9194              1394.9729              1426.6155
 Red. masses --      4.1154                 2.3324                 1.2462
 Frc consts  --      4.1605                 2.6742                 1.4944
 IR Inten    --     19.9722               159.0780                 0.7201

                     55                     56                     57
                      A                      A                      A
 Frequencies --   1432.3450              1437.6393              1449.1300
 Red. masses --      1.2310                 1.2154                 1.3163
 Frc consts  --      1.4880                 1.4801                 1.6287
 IR Inten    --      3.5563                12.7867                20.8107

                     58                     59                     60
                      A                      A                      A
 Frequencies --   1452.3726              1468.9534              1502.0658
 Red. masses --      1.6148                 1.2106                 1.2304
 Frc consts  --      2.0069                 1.5391                 1.6356
 IR Inten    --     96.4816                 8.6458                19.0701

                     61                     62                     63
                      A                      A                      A
 Frequencies --   1504.7676              1510.6475              1515.2105
 Red. masses --      1.0444                 1.0547                 1.0515
 Frc consts  --      1.3934                 1.4181                 1.4223
 IR Inten    --      7.6226                 4.0370                 0.7158

                     64                     65                     66
                      A                      A                      A
 Frequencies --   1519.2609              1522.2400              1528.2755
 Red. masses --      1.0485                 1.0495                 1.0506
 Frc consts  --      1.4258                 1.4328                 1.4457
 IR Inten    --      0.7275                 3.9640                 1.2076

                     67                     68                     69
                      A                      A                      A
 Frequencies --   1535.5789              1537.5570              1545.9542
 Red. masses --      1.1245                 1.0554                 1.0745
 Frc consts  --      1.5623                 1.4700                 1.5131
 IR Inten    --     23.5890                12.0355                 9.4218

                     70                     71                     72
                      A                      A                      A
 Frequencies --   1551.4244              1555.7107              1561.2559
 Red. masses --      1.1158                 1.2430                 1.2009
 Frc consts  --      1.5824                 1.7724                 1.7246
 IR Inten    --     17.3161                14.8635                12.7953

                     73                     74                     75
                      A                      A                      A
 Frequencies --   1623.6330              1679.9664              3050.0140
 Red. masses --      3.7321                10.6759                 1.0361
 Frc consts  --      5.7967                17.7524                 5.6788
 IR Inten    --     67.7691               598.8473                18.4988

                     76                     77                     78
                      A                      A                      A
 Frequencies --   3053.1475              3059.6138              3064.3727
 Red. masses --      1.0369                 1.0401                 1.0380
 Frc consts  --      5.6946                 5.7367                 5.7427
 IR Inten    --     12.7418                32.0090                20.8130

                     79                     80                     81
                      A                      A                      A
 Frequencies --   3066.1908              3074.5210              3110.9738
 Red. masses --      1.0366                 1.0410                 1.1012
 Frc consts  --      5.7420                 5.7979                 6.2795
 IR Inten    --     10.8135                16.9498                 5.1288

                     82                     83                     84
                      A                      A                      A
 Frequencies --   3114.9084              3120.9192              3124.7829
 Red. masses --      1.1003                 1.0996                 1.1025
 Frc consts  --      6.2899                 6.3100                 6.3426
 IR Inten    --     19.9137                73.5634                10.0883

                     85                     86                     87
                      A                      A                      A
 Frequencies --   3125.0289              3125.7154              3130.0940
 Red. masses --      1.1013                 1.1017                 1.1013
 Frc consts  --      6.3369                 6.3418                 6.3571
 IR Inten    --     10.2678                19.2124                56.7859

                     88                     89                     90
                      A                      A                      A
 Frequencies --   3136.6686              3158.1260              3160.0322
 Red. masses --      1.1003                 1.0999                 1.0992
 Frc consts  --      6.3781                 6.4635                 6.4671
 IR Inten    --     25.1070                17.3106                17.6698

                     91                     92                     93
                      A                      A                      A
 Frequencies --   3163.3286              3192.3918              3616.4508
 Red. masses --      1.1023                 1.0984                 1.0757
 Frc consts  --      6.4988                 6.5956                 8.2892
 IR Inten    --      8.2276                 1.6633                36.2652

 - Thermochemistry -
 -------------------
 Temperature   298.150 Kelvin.  Pressure   1.00000 Atm.
 Atom     1 has atomic number  6 and mass  12.00000

 Molecular mass:   197.15281 amu.
 Principal axes and moments of inertia in atomic units:
                           1         2         3
     Eigenvalues --  1393.976854394.314824590.62915
           X            0.99982   0.01724   0.00813
           Y           -0.01683   0.99870  -0.04811
           Z           -0.00895   0.04797   0.99881
 This molecule is an asymmetric top.
 Rotational symmetry number  1.
 Warning -- assumption of classical behavior for rotation
           may cause significant error
 Rotational temperatures (Kelvin)      0.06213     0.01971     0.01887
 Rotational constants (GHZ):           1.29467     0.41070     0.39314
 Zero-point vibrational energy     762829.6 (Joules/Mol)
                                  182.32064 (Kcal/Mol)
 Warning -- explicit consideration of  25 degrees of freedom as
           vibrations may cause significant error
 Vibrational temperatures:     51.61    61.78   107.56   198.71   206.08
          (Kelvin)            268.69   321.01   358.06   364.41   384.20
                              397.44   405.98   430.13   458.22   470.84
                              498.71   537.65   547.71   559.55   570.54
                              599.66   670.24   692.26   744.13   805.43
                              938.16   965.33   984.24  1080.13  1149.80
                             1214.08  1279.20  1321.70  1363.95  1367.84
                             1383.65  1407.55  1412.35  1456.68  1488.67
                             1517.87  1525.93  1537.97  1559.29  1585.55
                             1712.94  1734.35  1754.12  1817.31  1827.33
                             1846.88  1884.68  2007.05  2052.58  2060.82
                             2068.44  2084.97  2089.64  2113.50  2161.14
                             2165.02  2173.48  2180.05  2185.88  2190.16
                             2198.85  2209.36  2212.20  2224.28  2232.15
                             2238.32  2246.30  2336.05  2417.10  4388.29
                             4392.80  4402.10  4408.95  4411.56  4423.55
                             4476.00  4481.66  4490.31  4495.87  4496.22
                             4497.21  4503.51  4512.97  4543.84  4546.58
                             4551.32  4593.14  5203.27

 Zero-point correction=                           0.290546 (Hartree/Particle)
 Thermal correction to Energy=                    0.306022
 Thermal correction to Enthalpy=                  0.306967
 Thermal correction to Gibbs Free Energy=         0.248874
 Sum of electronic and zero-point Energies=           -631.734066
 Sum of electronic and thermal Energies=              -631.718590
 Sum of electronic and thermal Enthalpies=            -631.717646
 Sum of electronic and thermal Free Energies=         -631.775738

                     E (Thermal)             CV                S
                      KCal/Mol        Cal/Mol-Kelvin    Cal/Mol-Kelvin
 Total                  192.032             59.765            122.267
 Electronic               0.000              0.000              0.000
 Translational            0.889              2.981             41.741
 Rotational               0.889              2.981             31.709
 Vibrational            190.254             53.803             48.817
 Vibration     1          0.594              1.982              5.475
 Vibration     2          0.595              1.980              5.119
 Vibration     3          0.599              1.966              4.024
 Vibration     4          0.614              1.915              2.830
 Vibration     5          0.616              1.910              2.760
 Vibration     6          0.632              1.858              2.260
 Vibration     7          0.649              1.806              1.934
 Vibration     8          0.662              1.765              1.739
 Vibration     9          0.664              1.757              1.708
 Vibration    10          0.672              1.734              1.615
 Vibration    11          0.678              1.717              1.557
 Vibration    12          0.681              1.707              1.520
 Vibration    13          0.692              1.676              1.423
 Vibration    14          0.705              1.638              1.318
 Vibration    15          0.711              1.621              1.274
 Vibration    16          0.725              1.582              1.182
 Vibration    17          0.745              1.526              1.065
 Vibration    18          0.750              1.511              1.036
 Vibration    19          0.757              1.494              1.004
 Vibration    20          0.763              1.478              0.975
 Vibration    21          0.780              1.434              0.903
 Vibration    22          0.823              1.326              0.749
 Vibration    23          0.837              1.292              0.707
 Vibration    24          0.872              1.212              0.617
 Vibration    25          0.915              1.118              0.524

                           ! Non-Optimized Parameters !
 Normal termination of Gaussian 16 at Thu Dec 10 09:45:29 2020.

 ----------------------------------------------------------------------
 # B3LYP/6-311++G(d,p) empiricaldispersion=gd3bj scf=xqc pop=npa geom=c
 heck
 ----------------------------------------------------------------------

 ---------------------------------------
 CID_130704463_JID_4208_Energie_neutraal
 ---------------------------------------
 Structure from the checkpoint file:  "JID_4208.chk"
 Charge =  0 Multiplicity = 1

 SCF Done:  E(RB3LYP) =  -632.200741217     A.U. after   14 cycles
 Normal termination of Gaussian 16 at Thu Dec 10 09:50:14 2020.

 ----------------------------------------------------------------------
 # B3LYP/6-311++G(d,p) empiricaldispersion=gd3bj scf=xqc pop=npa geom=c
 heck
 ----------------------------------------------------------------------

 -------------------------------------
 CID_130704463_JID_4208_Energie_kation
 -------------------------------------
 Structure from the checkpoint file:  "JID_4208.chk"
 Charge =  1 Multiplicity = 2

 SCF Done:  E(UB3LYP) =  -631.896258846     A.U. after   20 cycles
 Normal termination of Gaussian 16 at Thu Dec 10 09:59:56 2020.
 Gaussian 16:  ES64L-G16RevA.03 25-Dec-2016

 ----------------------------------------------------------------------
 # B3LYP/6-311++G(d,p) empiricaldispersion=gd3bj scf=xqc pop=npa geom=c
 heck
 ----------------------------------------------------------------------

 ------------------------------------
 CID_130704463_JID_4208_Energie_anion
 ------------------------------------
 Structure from the checkpoint file:  "JID_4208.chk"
 Charge = -1 Multiplicity = 2

                         Standard orientation:
 ---------------------------------------------------------------------
 Center     Atomic      Atomic             Coordinates (Angstroms)
 Number     Number       Type             X           Y           Z
 ---------------------------------------------------------------------
      1          6           0        4.041756    1.266500    0.439425
      2          6           0        2.984710    0.287047    0.056430
      3          7           0        3.246048   -0.741397   -0.709580
      4          8           0        1.970657   -1.387743   -0.812749
      5          6           0        1.113891   -0.642781   -0.081066
      6          7           0        1.678441    0.404919    0.478232
      7          7           0       -0.152238   -1.099905   -0.026249
      8          6           0       -1.360607   -0.474261    0.565453
      9          6           0       -2.317532   -1.656124    0.813951
     10          6           0       -0.998912    0.135035    1.928676
     11          6           0       -1.989174    0.584044   -0.432275
     12          6           0       -1.167842    1.887933   -0.455017
     13          6           0       -2.026501    0.020287   -1.866289
     14          6           0       -3.432078    0.936888   -0.017018
     15          1           0        4.998829    0.985213   -0.004754
     16          1           0        3.766930    2.270691    0.099781
     17          1           0        4.145848    1.303237    1.528912
     18          1           0       -0.319975   -1.889458   -0.634486
     19          1           0       -1.808650   -2.417405    1.412911
     20          1           0       -3.202624   -1.329783    1.363417
     21          1           0       -2.653897   -2.123169   -0.118416
     22          1           0       -0.204460    0.875229    1.848660
     23          1           0       -1.882020    0.599974    2.375693
     24          1           0       -0.654330   -0.656018    2.602488
     25          1           0       -0.110447    1.707103   -0.658786
     26          1           0       -1.559715    2.551666   -1.234443
     27          1           0       -1.233977    2.423743    0.496809
     28          1           0       -2.564670   -0.932479   -1.928181
     29          1           0       -2.543787    0.725591   -2.525650
     30          1           0       -1.019428   -0.127322   -2.268175
     31          1           0       -4.119346    0.095341   -0.148527
     32          1           0       -3.492020    1.267798    1.025207
     33          1           0       -3.799540    1.759280   -0.640909
 ---------------------------------------------------------------------

 SCF Done:  E(UB3LYP) =  -632.187599497     A.U. after   33 cycles
 SCF Done:  E(UB3LYP) =  -632.187599497     a.u. after    1 cycles

 The electronic state is 2-A.
 Alpha  occ. eigenvalues --  -19.10898 -14.26080 -14.25244 -14.20963 -10.21147
 Alpha  occ. eigenvalues --  -10.14844 -10.13323 -10.09369 -10.08927 -10.06346
 Alpha  occ. eigenvalues --  -10.05784 -10.05654 -10.05629 -10.05265  -1.05746
 Alpha  occ. eigenvalues --   -0.86940  -0.83970  -0.76443  -0.72224  -0.66860
 Alpha  occ. eigenvalues --   -0.64874  -0.60558  -0.58708  -0.57534  -0.54415
 Alpha  occ. eigenvalues --   -0.51779  -0.50151  -0.44941  -0.43426  -0.40385
 Alpha  occ. eigenvalues --   -0.38538  -0.37722  -0.36564  -0.34588  -0.34044
 Alpha  occ. eigenvalues --   -0.33482  -0.31944  -0.31281  -0.30632  -0.30395
 Alpha  occ. eigenvalues --   -0.29184  -0.28671  -0.28224  -0.27086  -0.26664
 Alpha  occ. eigenvalues --   -0.26032  -0.25212  -0.24358  -0.23238  -0.22248
 Alpha  occ. eigenvalues --   -0.21769  -0.21309  -0.19624  -0.14008   0.04384
 Alpha virt. eigenvalues --    0.06140   0.07323   0.07659   0.08610   0.08771
 Alpha virt. eigenvalues --    0.09589   0.09877   0.09892   0.10211   0.11068
 Alpha virt. eigenvalues --    0.11369   0.11468   0.12710   0.13353   0.13551

  Beta  occ. eigenvalues --  -19.10891 -14.26075 -14.25227 -14.20952 -10.21144
  Beta  occ. eigenvalues --  -10.14844 -10.13320 -10.09350 -10.08924 -10.06298
  Beta  occ. eigenvalues --  -10.05760 -10.05616 -10.05592 -10.05246  -1.05737
  Beta  occ. eigenvalues --   -0.86918  -0.83956  -0.76429  -0.72202  -0.66825
  Beta  occ. eigenvalues --   -0.64846  -0.60504  -0.58641  -0.57475  -0.54370
  Beta  occ. eigenvalues --   -0.51751  -0.50110  -0.44910  -0.43377  -0.40358
  Beta  occ. eigenvalues --   -0.38496  -0.37699  -0.36516  -0.34552  -0.34012
  Beta  occ. eigenvalues --   -0.33449  -0.31923  -0.31250  -0.30598  -0.30361
  Beta  occ. eigenvalues --   -0.29146  -0.28638  -0.28190  -0.27052  -0.26624
  Beta  occ. eigenvalues --   -0.25996  -0.25184  -0.24342  -0.23206  -0.22224
  Beta  occ. eigenvalues --   -0.21737  -0.21281  -0.19606  -0.13991
  Beta virt. eigenvalues --    0.06289   0.07048   0.07980   0.08554   0.08852
  Beta virt. eigenvalues --    0.09232   0.09951   0.10238   0.10401   0.10736
  Beta virt. eigenvalues --    0.11358   0.11681   0.11865   0.13089   0.13673

 Mulliken charges and spin densities:
               1          2
     1  C    0.975935  -1.472235
     2  C    0.526040   0.189741
     3  N   -0.431176   0.066293
     4  O    0.196570  -0.020022
     5  C   -0.782050   0.405142
     6  N   -0.108514   0.033010
     7  N   -0.448866   0.223658
     8  C   -1.379691   1.069815
     9  C    2.036458  -2.380230
    10  C    0.694896  -1.382555
    11  C   -1.389418   2.108912
    12  C   -0.178466  -0.513394
    13  C    0.780678  -1.431985
    14  C    0.710368  -1.319280
    15  H    0.060371   0.091905
    16  H   -0.056046   0.222040
    17  H   -0.058710   0.225431
    18  H   -0.147673   0.471848
    19  H   -0.092581   0.251483
    20  H   -0.379854   0.560098
    21  H   -0.421219   0.581892
    22  H    0.125748   0.044801
    23  H   -0.067100   0.214346
    24  H   -0.022586   0.192811
    25  H    0.087327   0.079385
    26  H   -0.061663   0.215186
    27  H   -0.085857   0.240069
    28  H   -0.118281   0.274028
    29  H   -0.227121   0.386230
    30  H   -0.097948   0.274081
    31  H   -0.391383   0.551335
    32  H   -0.210330   0.359569
    33  H   -0.037858   0.186593
 Sum of Mulliken charges =  -1.00000   1.00000

 Dipole moment (field-independent basis, Debye):
    X=              5.0334    Y=              1.6545    Z=              0.7135  Tot=              5.3461
 Quadrupole moment (field-independent basis, Debye-Ang):
   XX=           -164.5116   YY=           -130.9121   ZZ=           -126.4949
   XY=             -2.8081   XZ=              1.9577   YZ=             -3.3718

 Summary of Natural Population Analysis:

                                       Natural Population
                Natural  -----------------------------------------------
    Atom  No    Charge         Core      Valence    Rydberg      Total
 -----------------------------------------------------------------------
      C    1   -0.30217      0.99962     2.29782    0.00474     3.30217
      C    2    0.18323      0.99967     1.79958    0.01752     2.81677
      N    3   -0.11060      0.99966     2.59910    0.01183     3.61060
      O    4   -0.18821      0.99986     3.18077    0.00759     4.18821
      C    5    0.37599      0.99961     1.60557    0.01882     2.62401
      N    6   -0.30733      0.99966     2.79798    0.00969     3.80733
      N    7   -0.31681      0.99963     2.80477    0.01241     3.81681
      C    8    0.07346      0.99952     1.91062    0.01640     2.92654
      C    9   -0.29106      0.99961     2.28348    0.00797     3.29106
      C   10   -0.29615      0.99961     2.28955    0.00699     3.29615
      C   11   -0.04569      0.99954     2.03148    0.01467     3.04569
      C   12   -0.28886      0.99962     2.28185    0.00739     3.28886
      C   13   -0.28831      0.99962     2.28092    0.00778     3.28831
      C   14   -0.28761      0.99962     2.28037    0.00761     3.28761
      H   15    0.10845      0.00000     0.39031    0.00124     0.39155
      H   16    0.11041      0.00000     0.38823    0.00136     0.38959
      H   17    0.10955      0.00000     0.38914    0.00131     0.39045
      H   18    0.20254      0.00000     0.29426    0.00320     0.29746
      H   19    0.10413      0.00000     0.39462    0.00125     0.39587
      H   20    0.10920      0.00000     0.38917    0.00163     0.39080
      H   21    0.10458      0.00000     0.39321    0.00221     0.39542
      H   22    0.11692      0.00000     0.38100    0.00208     0.38308
      H   23    0.10398      0.00000     0.39498    0.00104     0.39602
      H   24    0.10207      0.00000     0.39698    0.00095     0.39793
      H   25    0.10726      0.00000     0.39117    0.00157     0.39274
      H   26    0.09869      0.00000     0.40041    0.00089     0.40131
      H   27    0.10101      0.00000     0.39797    0.00102     0.39899
      H   28    0.10237      0.00000     0.39607    0.00156     0.39763
      H   29    0.10232      0.00000     0.39669    0.00099     0.39768
      H   30    0.10059      0.00000     0.39821    0.00120     0.39941
      H   31    0.10357      0.00000     0.39494    0.00149     0.39643
      H   32    0.10099      0.00000     0.39768    0.00132     0.39901
      H   33    0.10150      0.00000     0.39740    0.00110     0.39850
 =======================================================================
   * Total *   -0.00000     13.99484    39.82632    0.17885    54.00000

 Normal termination of Gaussian 16 at Thu Dec 10 10:16:22 2020.
