 Gaussian 16, Revision A.03,

 -----------------------------------------------------------
 # opt freq B3LYP/6-31G(d) empiricaldispersion=gd3bj scf=xqc
 -----------------------------------------------------------

 ------------------------------
 CID_64904325_JID_7803_neutraal
 ------------------------------
 Symbolic Z-matrix:
 Charge =  0 Multiplicity = 1

 SCF Done:  E(RB3LYP) =  -1470.28542127     A.U. after   15 cycles
 SCF Done:  E(RB3LYP) =  -1470.29145392     A.U. after   12 cycles
 SCF Done:  E(RB3LYP) =  -1470.28962687     A.U. after   13 cycles
 SCF Done:  E(RB3LYP) =  -1470.29293365     A.U. after   12 cycles
 SCF Done:  E(RB3LYP) =  -1470.29353699     A.U. after   13 cycles
 SCF Done:  E(RB3LYP) =  -1470.29428287     A.U. after   12 cycles
 SCF Done:  E(RB3LYP) =  -1470.29460586     A.U. after   12 cycles
 SCF Done:  E(RB3LYP) =  -1470.29484133     A.U. after   12 cycles
 SCF Done:  E(RB3LYP) =  -1470.29508497     A.U. after   11 cycles
 SCF Done:  E(RB3LYP) =  -1470.29519521     A.U. after   11 cycles
 SCF Done:  E(RB3LYP) =  -1470.29543159     A.U. after    8 cycles
 SCF Done:  E(RB3LYP) =  -1470.29543198     A.U. after    8 cycles
 SCF Done:  E(RB3LYP) =  -1470.29543208     A.U. after    7 cycles
 SCF Done:  E(RB3LYP) =  -1470.29543214     A.U. after    7 cycles
 SCF Done:  E(RB3LYP) =  -1470.29543223     A.U. after    7 cycles
 Optimization completed.
    -- Stationary point found.
 Normal termination of Gaussian 16 at Fri Dec 11 13:11:04 2020.

 --------------------------------------------------------------------
 #N Geom=AllCheck Guess=TCheck SCRF=Check GenChk RB3LYP/6-31G(d) Freq
 --------------------------------------------------------------------

 Structure from the checkpoint file:  "JID_7803.chk"
 ------------------------------
 CID_64904325_JID_7803_neutraal
 ------------------------------
 Charge =  0 Multiplicity = 1

 SCF Done:  E(RB3LYP) =  -1470.29543223     A.U. after    1 cycles

  Exact polarizability: 174.277 -19.650 166.308   2.124   4.253 149.986
 Approx polarizability: 254.281 -35.022 233.295  10.291  17.792 271.260

                      1                      2                      3
                      A                      A                      A
 Frequencies --     19.8112                47.8294                60.6151
 Red. masses --      4.9801                 5.0993                 4.0691
 Frc consts  --      0.0012                 0.0069                 0.0088
 IR Inten    --      0.3373                 3.2307                 0.7333

                      4                      5                      6
                      A                      A                      A
 Frequencies --     71.9098                81.6287               102.2683
 Red. masses --      2.3659                 3.2033                 2.9368
 Frc consts  --      0.0072                 0.0126                 0.0181
 IR Inten    --      1.8317                 1.2506                 1.3506

                      7                      8                      9
                      A                      A                      A
 Frequencies --    110.5286               139.5827               157.4426
 Red. masses --      1.2319                 3.9894                 4.0338
 Frc consts  --      0.0089                 0.0458                 0.0589
 IR Inten    --      0.7589                 0.6420                 2.4440

                     10                     11                     12
                      A                      A                      A
 Frequencies --    173.4111               194.2023               227.4656
 Red. masses --      3.8494                 4.1247                 3.8126
 Frc consts  --      0.0682                 0.0917                 0.1162
 IR Inten    --      0.8160                 1.5893                 1.8003

                     13                     14                     15
                      A                      A                      A
 Frequencies --    246.8051               276.4341               295.4388
 Red. masses --      2.0279                 1.6023                 3.1836
 Frc consts  --      0.0728                 0.0721                 0.1637
 IR Inten    --      1.2711                 2.2755                 1.7738

                     16                     17                     18
                      A                      A                      A
 Frequencies --    319.4481               326.3516               341.2806
 Red. masses --      3.1236                 3.2351                 3.2406
 Frc consts  --      0.1878                 0.2030                 0.2224
 IR Inten    --      0.2362                 1.7677                 0.4519

                     19                     20                     21
                      A                      A                      A
 Frequencies --    367.4521               383.3131               424.8285
 Red. masses --      2.2691                 6.3479                 5.0229
 Frc consts  --      0.1805                 0.5495                 0.5341
 IR Inten    --      0.9662                16.4989                19.2033

                     22                     23                     24
                      A                      A                      A
 Frequencies --    439.3207               505.8515               535.6628
 Red. masses --      3.2059                 4.8312                 3.7047
 Frc consts  --      0.3646                 0.7284                 0.6263
 IR Inten    --      5.0862                13.7621                 7.0332

                     25                     26                     27
                      A                      A                      A
 Frequencies --    552.5059               593.0677               604.5993
 Red. masses --      6.2545                 3.6089                 4.7541
 Frc consts  --      1.1249                 0.7479                 1.0239
 IR Inten    --     11.5598                 4.7881                 3.3952

                     28                     29                     30
                      A                      A                      A
 Frequencies --    658.8749               674.6286               681.8607
 Red. masses --      3.6103                 5.6389                 4.9050
 Frc consts  --      0.9234                 1.5121                 1.3436
 IR Inten    --     17.6316                 3.1522                20.6776

                     31                     32                     33
                      A                      A                      A
 Frequencies --    733.7689               749.4743               762.7059
 Red. masses --      4.9430                 2.4400                 1.8153
 Frc consts  --      1.5680                 0.8075                 0.6222
 IR Inten    --      7.9664                18.3963               101.8934

                     34                     35                     36
                      A                      A                      A
 Frequencies --    802.8423               818.5708               832.6389
 Red. masses --      1.7859                 2.1100                 1.7086
 Frc consts  --      0.6782                 0.8330                 0.6979
 IR Inten    --     27.4145                15.8609                13.7563

                     37                     38                     39
                      A                      A                      A
 Frequencies --    852.3162               887.1011               896.2154
 Red. masses --      1.3645                 1.4534                 2.9004
 Frc consts  --      0.5840                 0.6739                 1.3725
 IR Inten    --      5.9692                 0.0946                18.0120

                     40                     41                     42
                      A                      A                      A
 Frequencies --    907.5956               944.7377               962.1838
 Red. masses --      2.0791                 1.6061                 2.1487
 Frc consts  --      1.0090                 0.8446                 1.1720
 IR Inten    --      7.1996                 7.8207                 7.2652

                     43                     44                     45
                      A                      A                      A
 Frequencies --    992.3043               996.9763              1019.8760
 Red. masses --      1.8405                 1.7582                 1.9347
 Frc consts  --      1.0677                 1.0296                 1.1857
 IR Inten    --      1.0991                 4.5321                 0.7690

                     46                     47                     48
                      A                      A                      A
 Frequencies --   1056.3387              1064.5611              1072.5909
 Red. masses --      2.4791                 2.1206                 1.4001
 Frc consts  --      1.6299                 1.4159                 0.9490
 IR Inten    --      4.7859                 4.1366                 0.8766

                     49                     50                     51
                      A                      A                      A
 Frequencies --   1091.7212              1099.8534              1129.7578
 Red. masses --      1.6477                 4.6794                 2.0835
 Frc consts  --      1.1570                 3.3351                 1.5668
 IR Inten    --      9.0392               125.8196                 6.5574

                     52                     53                     54
                      A                      A                      A
 Frequencies --   1142.2355              1145.0205              1162.6611
 Red. masses --      1.3955                 2.5815                 1.2530
 Frc consts  --      1.0727                 1.9941                 0.9979
 IR Inten    --     29.3340                37.5526                11.2522

                     55                     56                     57
                      A                      A                      A
 Frequencies --   1177.5918              1190.7011              1196.9508
 Red. masses --      2.1702                 4.1063                 1.9231
 Frc consts  --      1.7731                 3.4301                 1.6233
 IR Inten    --     21.9660                 6.7638                33.7126

                     58                     59                     60
                      A                      A                      A
 Frequencies --   1215.0033              1252.6213              1276.0332
 Red. masses --      1.2308                 1.4513                 1.4566
 Frc consts  --      1.0705                 1.3417                 1.3974
 IR Inten    --      9.7696                 6.3067                22.0855

                     61                     62                     63
                      A                      A                      A
 Frequencies --   1301.3445              1313.8029              1318.8185
 Red. masses --      1.9181                 1.3187                 2.0171
 Frc consts  --      1.9138                 1.3411                 2.0671
 IR Inten    --     62.8816                11.0923                82.6621

                     64                     65                     66
                      A                      A                      A
 Frequencies --   1326.4550              1339.1800              1371.1963
 Red. masses --      1.3823                 1.8129                 1.6844
 Frc consts  --      1.4329                 1.9156                 1.8659
 IR Inten    --     17.7112                11.9819                 2.8937

                     67                     68                     69
                      A                      A                      A
 Frequencies --   1384.0869              1393.7599              1412.2039
 Red. masses --      1.4460                 1.3442                 1.2576
 Frc consts  --      1.6321                 1.5385                 1.4777
 IR Inten    --      1.8891                 4.6873                 5.6869

                     70                     71                     72
                      A                      A                      A
 Frequencies --   1431.7017              1442.4183              1444.9523
 Red. masses --      1.3575                 1.2887                 1.2391
 Frc consts  --      1.6394                 1.5797                 1.5242
 IR Inten    --      4.9531                 7.9451                 0.8921

                     73                     74                     75
                      A                      A                      A
 Frequencies --   1485.7015              1495.4580              1508.3278
 Red. masses --      1.0964                 1.0944                 1.0423
 Frc consts  --      1.4259                 1.4420                 1.3971
 IR Inten    --      6.4854                11.6502                 7.8957

                     76                     77                     78
                      A                      A                      A
 Frequencies --   1515.0586              1518.7210              1519.7110
 Red. masses --      1.0851                 1.2349                 1.0825
 Frc consts  --      1.4675                 1.6782                 1.4731
 IR Inten    --     10.5897                11.2161                 1.6303

                     79                     80                     81
                      A                      A                      A
 Frequencies --   1531.1652              1540.9487              1543.2427
 Red. masses --      1.0401                 1.1769                 3.6172
 Frc consts  --      1.4368                 1.6466                 5.0757
 IR Inten    --      6.7588                12.6494                11.4023

                     82                     83                     84
                      A                      A                      A
 Frequencies --   1558.9867              1622.2873              2983.2280
 Red. masses --      1.0883                 4.9279                 1.0704
 Frc consts  --      1.5585                 7.6414                 5.6128
 IR Inten    --      3.3542                 0.9082                34.2955

                     85                     86                     87
                      A                      A                      A
 Frequencies --   3036.7187              3046.1552              3047.9500
 Red. masses --      1.0848                 1.0366                 1.0391
 Frc consts  --      5.8942                 5.6670                 5.6878
 IR Inten    --     13.4048                40.0675                23.5454

                     88                     89                     90
                      A                      A                      A
 Frequencies --   3075.2081              3076.0378              3089.7716
 Red. masses --      1.0663                 1.0857                 1.0814
 Frc consts  --      5.9414                 6.0529                 6.0827
 IR Inten    --     14.2922                23.8337                24.0054

                     91                     92                     93
                      A                      A                      A
 Frequencies --   3098.0319              3116.0467              3118.4977
 Red. masses --      1.1018                 1.0989                 1.0816
 Frc consts  --      6.2304                 6.2864                 6.1975
 IR Inten    --     15.3368                42.4703                 9.7800

                     94                     95                     96
                      A                      A                      A
 Frequencies --   3123.7625              3127.4242              3131.3252
 Red. masses --      1.0813                 1.0665                 1.1008
 Frc consts  --      6.2167                 6.1459                 6.3596
 IR Inten    --      6.6261                 4.2756                11.2481

                     97                     98                     99
                      A                      A                      A
 Frequencies --   3135.0224              3188.3695              3212.2520
 Red. masses --      1.1034                 1.1090                 1.0996
 Frc consts  --      6.3897                 6.6425                 6.6850
 IR Inten    --     22.8517                 0.9687                 1.9861

                    100                    101                    102
                      A                      A                      A
 Frequencies --   3217.3574              3263.4378              3477.6710
 Red. masses --      1.0925                 1.0930                 1.0738
 Frc consts  --      6.6632                 6.8583                 7.6515
 IR Inten    --      8.5561                 3.9818                 0.5275

 - Thermochemistry -
 -------------------
 Temperature   298.150 Kelvin.  Pressure   1.00000 Atm.
 Atom     1 has atomic number  6 and mass  12.00000

 Molecular mass:   273.08572 amu.
 Principal axes and moments of inertia in atomic units:
                           1         2         3
     Eigenvalues --  4166.053245480.000117654.04374
           X            0.99769  -0.06477  -0.02063
           Y            0.06430   0.99767  -0.02277
           Z            0.02205   0.02140   0.99953
 This molecule is an asymmetric top.
 Rotational symmetry number  1.
 Warning -- assumption of classical behavior for rotation
           may cause significant error
 Rotational temperatures (Kelvin)      0.02079     0.01581     0.01132
 Rotational constants (GHZ):           0.43320     0.32933     0.23579
 Zero-point vibrational energy     795104.9 (Joules/Mol)
                                  190.03464 (Kcal/Mol)
 Warning -- explicit consideration of  27 degrees of freedom as
           vibrations may cause significant error
 Vibrational temperatures:     28.50    68.82    87.21   103.46   117.45
          (Kelvin)            147.14   159.03   200.83   226.52   249.50
                              279.41   327.27   355.10   397.73   425.07
                              459.61   469.55   491.03   528.68   551.50
                              611.23   632.08   727.81   770.70   794.93
                              853.29   869.88   947.97   970.64   981.05
                             1055.73  1078.33  1097.36  1155.11  1177.74
                             1197.98  1226.29  1276.34  1289.45  1305.83
                             1359.27  1384.37  1427.70  1434.43  1467.37
                             1519.84  1531.67  1543.22  1570.74  1582.44
                             1625.47  1643.42  1647.43  1672.81  1694.29
                             1713.15  1722.15  1748.12  1802.24  1835.93
                             1872.34  1890.27  1897.49  1908.47  1926.78
                             1972.85  1991.39  2005.31  2031.85  2059.90
                             2075.32  2078.96  2137.59  2151.63  2170.15
                             2179.83  2185.10  2186.53  2203.01  2217.08
                             2220.38  2243.03  2334.11  4292.20  4369.16
                             4382.74  4385.32  4424.54  4425.73  4445.49
                             4457.38  4483.30  4486.82  4494.40  4499.67
                             4505.28  4510.60  4587.35  4621.71  4629.06
                             4695.36  5003.59

 Zero-point correction=                           0.302839 (Hartree/Particle)
 Thermal correction to Energy=                    0.320661
 Thermal correction to Enthalpy=                  0.321605
 Thermal correction to Gibbs Free Energy=         0.255863
 Sum of electronic and zero-point Energies=          -1469.992593
 Sum of electronic and thermal Energies=             -1469.974772
 Sum of electronic and thermal Enthalpies=           -1469.973827
 Sum of electronic and thermal Free Energies=        -1470.039569

                     E (Thermal)             CV                S
                      KCal/Mol        Cal/Mol-Kelvin    Cal/Mol-Kelvin
 Total                  201.218             67.124            138.365
 Electronic               0.000              0.000              0.000
 Translational            0.889              2.981             42.713
 Rotational               0.889              2.981             33.524
 Vibrational            199.440             61.162             62.128
 Vibration     1          0.593              1.986              6.653
 Vibration     2          0.595              1.978              4.905
 Vibration     3          0.597              1.973              4.437
 Vibration     4          0.598              1.967              4.100
 Vibration     5          0.600              1.962              3.851
 Vibration     6          0.604              1.947              3.411
 Vibration     7          0.606              1.941              3.260
 Vibration     8          0.615              1.914              2.810
 Vibration     9          0.621              1.894              2.580
 Vibration    10          0.627              1.875              2.398
 Vibration    11          0.635              1.848              2.187
 Vibration    12          0.651              1.799              1.899
 Vibration    13          0.661              1.768              1.753
 Vibration    14          0.678              1.717              1.556
 Vibration    15          0.690              1.682              1.443
 Vibration    16          0.705              1.636              1.313
 Vibration    17          0.710              1.623              1.278
 Vibration    18          0.721              1.593              1.206
 Vibration    19          0.740              1.539              1.090
 Vibration    20          0.753              1.506              1.026
 Vibration    21          0.787              1.416              0.876
 Vibration    22          0.799              1.384              0.829
 Vibration    23          0.861              1.237              0.644
 Vibration    24          0.891              1.171              0.575
 Vibration    25          0.908              1.134              0.539
 Vibration    26          0.951              1.047              0.462
 Vibration    27          0.963              1.022              0.442

                           ! Non-Optimized Parameters !
 Normal termination of Gaussian 16 at Fri Dec 11 13:25:24 2020.

 ----------------------------------------------------------------------
 # B3LYP/6-311++G(d,p) empiricaldispersion=gd3bj scf=xqc pop=npa geom=c
 heck
 ----------------------------------------------------------------------

 --------------------------------------
 CID_64904325_JID_7803_Energie_neutraal
 --------------------------------------
 Structure from the checkpoint file:  "JID_7803.chk"
 Charge =  0 Multiplicity = 1

 SCF Done:  E(RB3LYP) =  -1470.54064107     A.U. after   15 cycles
 Normal termination of Gaussian 16 at Fri Dec 11 13:31:46 2020.

 ----------------------------------------------------------------------
 # B3LYP/6-311++G(d,p) empiricaldispersion=gd3bj scf=xqc pop=npa geom=c
 heck
 ----------------------------------------------------------------------

 ------------------------------------
 CID_64904325_JID_7803_Energie_kation
 ------------------------------------
 Structure from the checkpoint file:  "JID_7803.chk"
 Charge =  1 Multiplicity = 2

 SCF Done:  E(UB3LYP) =  -1470.24555864     A.U. after   26 cycles
 Normal termination of Gaussian 16 at Fri Dec 11 13:46:37 2020.
 Gaussian 16:  ES64L-G16RevA.03 25-Dec-2016

 ----------------------------------------------------------------------
 # B3LYP/6-311++G(d,p) empiricaldispersion=gd3bj scf=xqc pop=npa geom=c
 heck
 ----------------------------------------------------------------------

 -----------------------------------
 CID_64904325_JID_7803_Energie_anion
 -----------------------------------
 Structure from the checkpoint file:  "JID_7803.chk"
 Charge = -1 Multiplicity = 2

                         Standard orientation:
 ---------------------------------------------------------------------
 Center     Atomic      Atomic             Coordinates (Angstroms)
 Number     Number       Type             X           Y           Z
 ---------------------------------------------------------------------
      1          6           0        0.622560    4.505119   -0.880678
      2          6           0        0.106568    3.081411   -0.690586
      3          7           0        0.391556    2.632546    0.673408
      4          6           0        0.212956    1.207258    1.007855
      5          6           0       -1.281662    0.814231    1.108397
      6          6           0       -1.468434   -0.512736    1.906047
      7          6           0       -1.411771   -1.698611    0.944279
      8         16           0       -2.404427   -1.130610   -0.472390
      9          8           0       -3.824914   -1.352858   -0.147397
     10          8           0       -1.851993   -1.604408   -1.752279
     11          6           0       -2.040181    0.655927   -0.229218
     12          6           0        1.072420    0.239412    0.217305
     13          6           0        1.041192   -0.179417   -1.089462
     14          6           0        2.063006   -1.125864   -1.410372
     15          6           0        2.887028   -1.433460   -0.362270
     16         16           0        2.399499   -0.542458    1.059822
     17          6           0        4.051897   -2.374545   -0.335358
     18          1           0        0.187874    5.174925   -0.131765
     19          1           0        0.367615    4.880456   -1.876945
     20          1           0        1.714623    4.543107   -0.779548
     21          1           0       -0.978387    3.075294   -0.842148
     22          1           0        0.549862    2.427231   -1.460516
     23          1           0        1.364239    2.860270    0.876318
     24          1           0        0.564387    1.149093    2.045470
     25          1           0       -1.744614    1.628321    1.673875
     26          1           0       -2.447335   -0.500528    2.395879
     27          1           0       -0.707838   -0.608115    2.686876
     28          1           0       -1.883786   -2.605729    1.326116
     29          1           0       -0.404894   -1.911142    0.584076
     30          1           0       -1.491065    0.989227   -1.105160
     31          1           0       -3.014869    1.147184   -0.211413
     32          1           0        0.295781    0.123149   -1.811533
     33          1           0        2.173965   -1.571652   -2.393270
     34          1           0        4.988207   -1.859636   -0.088660
     35          1           0        3.913849   -3.175883    0.400289
     36          1           0        4.172113   -2.838518   -1.318940
 ---------------------------------------------------------------------

 SCF Done:  E(UB3LYP) =  -1470.53076883     A.U. after   33 cycles
 SCF Done:  E(UB3LYP) =  -1470.53076883     a.u. after    1 cycles

 The electronic state is 2-A.
 Alpha  occ. eigenvalues --  -88.95190 -88.78279 -19.02661 -19.02437 -14.21566
 Alpha  occ. eigenvalues --  -10.13345 -10.12215 -10.11999 -10.11766 -10.11473
 Alpha  occ. eigenvalues --  -10.11351 -10.10743 -10.10547 -10.09014 -10.08672
 Alpha  occ. eigenvalues --  -10.08425 -10.07686  -8.01742  -7.86924  -5.98004
 Alpha  occ. eigenvalues --   -5.97870  -5.97846  -5.83202  -5.82841  -5.82521
 Alpha  occ. eigenvalues --   -1.01543  -0.91305  -0.83260  -0.79105  -0.76764
 Alpha  occ. eigenvalues --   -0.69602  -0.67401  -0.66679  -0.64454  -0.63684
 Alpha  occ. eigenvalues --   -0.60229  -0.56543  -0.52980  -0.50559  -0.50166
 Alpha  occ. eigenvalues --   -0.45730  -0.45179  -0.42943  -0.41781  -0.40261
 Alpha  occ. eigenvalues --   -0.39916  -0.38214  -0.37570  -0.36873  -0.35949
 Alpha  occ. eigenvalues --   -0.35177  -0.34935  -0.34188  -0.33023  -0.31802
 Alpha  occ. eigenvalues --   -0.31093  -0.30167  -0.29614  -0.29465  -0.28962
 Alpha  occ. eigenvalues --   -0.28167  -0.27499  -0.26720  -0.25578  -0.25306
 Alpha  occ. eigenvalues --   -0.24887  -0.23718  -0.22742  -0.21552  -0.19713
 Alpha  occ. eigenvalues --   -0.16665  -0.15492  -0.13561   0.03831
 Alpha virt. eigenvalues --    0.05437   0.05944   0.06226   0.06919   0.07679
 Alpha virt. eigenvalues --    0.07955   0.08684   0.08936   0.09223   0.09803
 Alpha virt. eigenvalues --    0.10195   0.10661   0.10969   0.11459   0.11622

  Beta  occ. eigenvalues --  -88.95190 -88.78270 -19.02660 -19.02435 -14.21544
  Beta  occ. eigenvalues --  -10.13337 -10.12202 -10.11988 -10.11750 -10.11462
  Beta  occ. eigenvalues --  -10.11338 -10.10731 -10.10523 -10.08977 -10.08670
  Beta  occ. eigenvalues --  -10.08416 -10.07659  -8.01743  -7.86913  -5.98004
  Beta  occ. eigenvalues --   -5.97870  -5.97846  -5.83192  -5.82832  -5.82510
  Beta  occ. eigenvalues --   -1.01541  -0.91303  -0.83227  -0.79081  -0.76738
  Beta  occ. eigenvalues --   -0.69571  -0.67366  -0.66647  -0.64426  -0.63652
  Beta  occ. eigenvalues --   -0.60178  -0.56499  -0.52921  -0.50521  -0.50139
  Beta  occ. eigenvalues --   -0.45693  -0.45140  -0.42905  -0.41760  -0.40236
  Beta  occ. eigenvalues --   -0.39872  -0.38196  -0.37541  -0.36849  -0.35926
  Beta  occ. eigenvalues --   -0.35144  -0.34916  -0.34133  -0.32994  -0.31775
  Beta  occ. eigenvalues --   -0.31063  -0.30129  -0.29579  -0.29428  -0.28929
  Beta  occ. eigenvalues --   -0.28132  -0.27453  -0.26687  -0.25540  -0.25275
  Beta  occ. eigenvalues --   -0.24852  -0.23708  -0.22734  -0.21547  -0.19699
  Beta  occ. eigenvalues --   -0.16633  -0.15446  -0.13489
  Beta virt. eigenvalues --    0.05841   0.06217   0.06293   0.06728   0.07394
  Beta virt. eigenvalues --    0.08169   0.08193   0.09025   0.09325   0.09561
  Beta virt. eigenvalues --    0.10098   0.10587   0.10723   0.11314   0.11655

 Mulliken charges and spin densities:
               1          2
     1  C    0.421299  -1.115472
     2  C   -0.279346   0.119211
     3  N   -0.104680   0.264827
     4  C    0.580794  -0.968617
     5  C   -0.522969   1.103020
     6  C    0.511096  -1.220787
     7  C   -0.866179   0.127841
     8  S    0.927226  -0.223571
     9  O   -0.193266   0.007016
    10  O   -0.122827  -0.002569
    11  C   -0.786688  -0.265078
    12  C    0.122352   0.158109
    13  C   -0.072183  -0.042293
    14  C   -1.036309   0.604611
    15  C   -2.105627   2.061874
    16  S    1.016636  -1.206949
    17  C    2.876508  -3.352130
    18  H   -0.096770   0.260555
    19  H   -0.082238   0.216101
    20  H   -0.201073   0.332452
    21  H   -0.040254   0.182997
    22  H    0.046158   0.089715
    23  H    0.126118   0.095170
    24  H   -0.394213   0.621789
    25  H   -0.150144   0.454833
    26  H    0.007751   0.218867
    27  H   -0.342371   0.492780
    28  H    0.031120   0.252464
    29  H    0.259220  -0.104086
    30  H    0.219150  -0.020787
    31  H   -0.004476   0.299221
    32  H    0.079901   0.063585
    33  H   -0.064985   0.244230
    34  H   -0.309419   0.477400
    35  H   -0.201855   0.366187
    36  H   -0.247457   0.407488
 Sum of Mulliken charges =  -1.00000   1.00000

 Dipole moment (field-independent basis, Debye):
    X=             -1.4157    Y=             -0.2408    Z=             -0.5038  Tot=              1.5219
 Quadrupole moment (field-independent basis, Debye-Ang):
   XX=           -200.5575   YY=           -180.6076   ZZ=           -161.0202
   XY=              3.2993   XZ=              0.9505   YZ=             -6.3605

 Summary of Natural Population Analysis:

                                       Natural Population
                Natural  -----------------------------------------------
    Atom  No    Charge         Core      Valence    Rydberg      Total
 -----------------------------------------------------------------------
      C    1   -0.28450      0.99967     2.28046    0.00437     3.28450
      C    2   -0.09153      0.99962     2.08295    0.00896     3.09153
      N    3   -0.33242      0.99974     2.82085    0.01183     3.83242
      C    4   -0.02308      0.99949     2.00606    0.01753     3.02308
      C    5   -0.11540      0.99957     2.10222    0.01361     3.11540
      C    6   -0.19929      0.99961     2.18936    0.01032     3.19929
      C    7   -0.28901      0.99959     2.27888    0.01054     3.28901
      S    8    1.01198      4.99929     1.89532    0.09341     6.98802
      O    9   -0.47074      0.99991     3.46542    0.00541     4.47074
      O   10   -0.46414      0.99991     3.45877    0.00547     4.46414
      C   11   -0.29207      0.99956     2.28069    0.01181     3.29207
      C   12   -0.11323      0.99948     2.09746    0.01630     3.11323
      C   13   -0.12958      0.99945     2.11911    0.01102     3.12958
      C   14   -0.12596      0.99945     2.11567    0.01083     3.12596
      C   15   -0.09321      0.99950     2.08115    0.01256     3.09321
      S   16    0.20686      4.99937     2.77537    0.01840     7.79314
      C   17   -0.29928      0.99961     2.29280    0.00688     3.29928
      H   18    0.10078      0.00000     0.39790    0.00132     0.39922
      H   19    0.09994      0.00000     0.39905    0.00101     0.40006
      H   20    0.09601      0.00000     0.40268    0.00132     0.40399
      H   21    0.08746      0.00000     0.41068    0.00186     0.41254
      H   22    0.08355      0.00000     0.41425    0.00220     0.41645
      H   23    0.17381      0.00000     0.32297    0.00322     0.32619
      H   24    0.10517      0.00000     0.39250    0.00233     0.39483
      H   25    0.11629      0.00000     0.38189    0.00182     0.38371
      H   26    0.10871      0.00000     0.38993    0.00137     0.39129
      H   27    0.11209      0.00000     0.38628    0.00163     0.38791
      H   28    0.11832      0.00000     0.38054    0.00114     0.38168
      H   29    0.12199      0.00000     0.37629    0.00173     0.37801
      H   30    0.11699      0.00000     0.38116    0.00185     0.38301
      H   31    0.12205      0.00000     0.37672    0.00123     0.37795
      H   32    0.11062      0.00000     0.38724    0.00214     0.38938
      H   33    0.10718      0.00000     0.39193    0.00089     0.39282
      H   34    0.10887      0.00000     0.38933    0.00180     0.39113
      H   35    0.10604      0.00000     0.39286    0.00110     0.39396
      H   36    0.10875      0.00000     0.38996    0.00128     0.39125
 =======================================================================
   * Total *    0.00000     24.99282    47.70667    0.30051    73.00000

 Normal termination of Gaussian 16 at Fri Dec 11 14:05:45 2020.
