 Gaussian 16, Revision A.03,

 -----------------------------------------------------------
 # opt freq B3LYP/6-31G(d) empiricaldispersion=gd3bj scf=xqc
 -----------------------------------------------------------

 ------------------------------
 CID_13411579_JID_5918_neutraal
 ------------------------------
 Symbolic Z-matrix:
 Charge =  0 Multiplicity = 1

 SCF Done:  E(RB3LYP) =  -600.922927742     A.U. after   14 cycles
 SCF Done:  E(RB3LYP) =  -600.925935709     A.U. after   12 cycles
 SCF Done:  E(RB3LYP) =  -600.926597099     A.U. after   14 cycles
 SCF Done:  E(RB3LYP) =  -600.927562998     A.U. after   11 cycles
 SCF Done:  E(RB3LYP) =  -600.927893030     A.U. after   12 cycles
 SCF Done:  E(RB3LYP) =  -600.927963383     A.U. after   12 cycles
 SCF Done:  E(RB3LYP) =  -600.928045031     A.U. after   10 cycles
 SCF Done:  E(RB3LYP) =  -600.928062210     A.U. after   11 cycles
 SCF Done:  E(RB3LYP) =  -600.928067845     A.U. after   10 cycles
 SCF Done:  E(RB3LYP) =  -600.928069164     A.U. after    9 cycles
 SCF Done:  E(RB3LYP) =  -600.928069776     A.U. after    9 cycles
 SCF Done:  E(RB3LYP) =  -600.928069789     A.U. after    7 cycles
 SCF Done:  E(RB3LYP) =  -600.928069767     A.U. after    6 cycles
 Optimization completed.
    -- Stationary point found.
 Normal termination of Gaussian 16 at Thu Dec 10 17:35:31 2020.

 --------------------------------------------------------------------
 #N Geom=AllCheck Guess=TCheck SCRF=Check GenChk RB3LYP/6-31G(d) Freq
 --------------------------------------------------------------------

 Structure from the checkpoint file:  "JID_5918.chk"
 ------------------------------
 CID_13411579_JID_5918_neutraal
 ------------------------------
 Charge =  0 Multiplicity = 1

 SCF Done:  E(RB3LYP) =  -600.928069767     A.U. after    1 cycles

  Exact polarizability: 227.746 -12.388 146.846  15.696  14.046 104.986
 Approx polarizability: 313.933 -18.041 234.848  29.732  30.316 154.579

                      1                      2                      3
                      A                      A                      A
 Frequencies --     21.5637                31.4167                34.8874
 Red. masses --      3.7025                 3.5105                 3.9158
 Frc consts  --      0.0010                 0.0020                 0.0028
 IR Inten    --      0.0083                 0.0155                 0.0313

                      4                      5                      6
                      A                      A                      A
 Frequencies --     83.1784                97.4338               108.1421
 Red. masses --      3.4262                 2.2082                 2.1498
 Frc consts  --      0.0140                 0.0124                 0.0148
 IR Inten    --      0.4233                 0.2391                 0.1275

                      7                      8                      9
                      A                      A                      A
 Frequencies --    120.4478               179.0196               201.8836
 Red. masses --      3.6083                 2.1393                 2.4085
 Frc consts  --      0.0308                 0.0404                 0.0578
 IR Inten    --      1.2329                 0.3086                 2.0662

                     10                     11                     12
                      A                      A                      A
 Frequencies --    228.6303               246.4781               284.5697
 Red. masses --      1.2688                 1.9525                 2.8983
 Frc consts  --      0.0391                 0.0699                 0.1383
 IR Inten    --      0.2230                 0.2833                 0.3258

                     13                     14                     15
                      A                      A                      A
 Frequencies --    295.4744               312.4516               356.4584
 Red. masses --      1.4183                 2.6714                 2.8956
 Frc consts  --      0.0730                 0.1537                 0.2168
 IR Inten    --      0.8818                 0.1157                 0.1415

                     16                     17                     18
                      A                      A                      A
 Frequencies --    383.2116               415.3439               421.9516
 Red. masses --      2.7065                 2.9965                 4.0473
 Frc consts  --      0.2342                 0.3046                 0.4246
 IR Inten    --      1.6157                 0.1170                 0.7921

                     19                     20                     21
                      A                      A                      A
 Frequencies --    441.2933               493.3576               525.0540
 Red. masses --      1.9113                 2.3028                 2.5438
 Frc consts  --      0.2193                 0.3302                 0.4132
 IR Inten    --      0.2019                 2.8599                 8.3684

                     22                     23                     24
                      A                      A                      A
 Frequencies --    572.1382               622.9545               636.6685
 Red. masses --      2.8810                 4.7149                 6.3918
 Frc consts  --      0.5556                 1.0780                 1.5265
 IR Inten    --      5.3161                 6.6679                 0.0182

                     25                     26                     27
                      A                      A                      A
 Frequencies --    706.6712               732.4752               763.4506
 Red. masses --      1.9191                 2.5234                 1.6868
 Frc consts  --      0.5647                 0.7977                 0.5792
 IR Inten    --     16.5507                 0.3495                41.9501

                     28                     29                     30
                      A                      A                      A
 Frequencies --    794.1986               817.5474               833.9829
 Red. masses --      1.1524                 1.3055                 1.8238
 Frc consts  --      0.4283                 0.5141                 0.7474
 IR Inten    --      3.3083                 2.0698                 8.3226

                     31                     32                     33
                      A                      A                      A
 Frequencies --    850.9159               859.3050               863.9777
 Red. masses --      1.4413                 1.9130                 2.1892
 Frc consts  --      0.6149                 0.8323                 0.9628
 IR Inten    --      0.2565                 4.4590                 2.5793

                     34                     35                     36
                      A                      A                      A
 Frequencies --    911.2338               922.7907               927.0439
 Red. masses --      2.0500                 1.9535                 1.7162
 Frc consts  --      1.0029                 0.9801                 0.8690
 IR Inten    --      7.3348                 1.6582                 3.7885

                     37                     38                     39
                      A                      A                      A
 Frequencies --    962.1721               989.9968              1007.3640
 Red. masses --      1.3477                 1.2446                 2.4263
 Frc consts  --      0.7351                 0.7187                 1.4507
 IR Inten    --      0.0446                 0.8049                16.4201

                     40                     41                     42
                      A                      A                      A
 Frequencies --   1015.3314              1020.2834              1044.5948
 Red. masses --      1.3344                 3.2392                 2.0491
 Frc consts  --      0.8105                 1.9867                 1.3173
 IR Inten    --     25.4100                 5.4156                13.0606

                     43                     44                     45
                      A                      A                      A
 Frequencies --   1062.2977              1082.2489              1099.4478
 Red. masses --      2.1502                 2.1100                 2.2279
 Frc consts  --      1.4296                 1.4561                 1.5867
 IR Inten    --      5.9296                13.4357                25.7389

                     46                     47                     48
                      A                      A                      A
 Frequencies --   1112.7550              1117.4800              1133.8489
 Red. masses --      2.1970                 1.6200                 1.7873
 Frc consts  --      1.6028                 1.1919                 1.3538
 IR Inten    --     21.1533                 0.9124                15.6007

                     49                     50                     51
                      A                      A                      A
 Frequencies --   1149.8346              1193.6337              1195.5704
 Red. masses --      1.7841                 1.0950                 1.5373
 Frc consts  --      1.3898                 0.9192                 1.2946
 IR Inten    --     31.3232                 0.1560                13.5437

                     52                     53                     54
                      A                      A                      A
 Frequencies --   1217.5463              1238.5484              1251.3197
 Red. masses --      1.1465                 1.3878                 2.2586
 Frc consts  --      1.0014                 1.2543                 2.0836
 IR Inten    --      0.2564                 4.3856                 2.2220

                     55                     56                     57
                      A                      A                      A
 Frequencies --   1270.9642              1313.1257              1335.9220
 Red. masses --      2.0328                 1.2810                 2.1280
 Frc consts  --      1.9347                 1.3014                 2.2376
 IR Inten    --     35.9765                12.7710                 3.5456

                     58                     59                     60
                      A                      A                      A
 Frequencies --   1338.5006              1349.5223              1372.6138
 Red. masses --      1.2721                 1.3364                 2.0787
 Frc consts  --      1.3428                 1.4340                 2.3075
 IR Inten    --     10.1672                 7.0042                 0.4673

                     61                     62                     63
                      A                      A                      A
 Frequencies --   1379.2806              1383.8968              1403.9173
 Red. masses --      1.3107                 1.4703                 1.2647
 Frc consts  --      1.4691                 1.6591                 1.4687
 IR Inten    --     10.3214                 4.4641                39.0406

                     64                     65                     66
                      A                      A                      A
 Frequencies --   1413.2710              1416.9093              1429.9715
 Red. masses --      1.3267                 1.3331                 1.2424
 Frc consts  --      1.5613                 1.5769                 1.4968
 IR Inten    --     16.2432                 6.1314                11.0411

                     67                     68                     69
                      A                      A                      A
 Frequencies --   1433.7154              1452.7478              1498.6932
 Red. masses --      1.2507                 1.4366                 2.1303
 Frc consts  --      1.5147                 1.7863                 2.8191
 IR Inten    --     17.2653                22.6589                 5.2705

                     70                     71                     72
                      A                      A                      A
 Frequencies --   1500.7838              1508.0222              1513.5065
 Red. masses --      1.0757                 1.0892                 1.1105
 Frc consts  --      1.4275                 1.4594                 1.4988
 IR Inten    --      0.9880                 9.3621                 3.8775

                     73                     74                     75
                      A                      A                      A
 Frequencies --   1523.4231              1529.6119              1535.0932
 Red. masses --      1.0477                 1.0678                 1.0631
 Frc consts  --      1.4326                 1.4719                 1.4761
 IR Inten    --      1.1472                 7.3386                 0.8332

                     76                     77                     78
                      A                      A                      A
 Frequencies --   1538.6453              1548.4733              1553.5171
 Red. masses --      1.0496                 2.2029                 1.0945
 Frc consts  --      1.4641                 3.1121                 1.5563
 IR Inten    --     11.8024                15.0846                 3.4576

                     79                     80                     81
                      A                      A                      A
 Frequencies --   1637.2827              1665.0493              1726.4817
 Red. masses --      5.2180                 5.5126                 5.5932
 Frc consts  --      8.2414                 9.0046                 9.8228
 IR Inten    --      1.3240                10.3435                 4.5177

                     82                     83                     84
                      A                      A                      A
 Frequencies --   2953.3442              3013.2969              3028.1802
 Red. masses --      1.0722                 1.0659                 1.0662
 Frc consts  --      5.5099                 5.7025                 5.7601
 IR Inten    --    111.7522                54.8647                16.8034

                     85                     86                     87
                      A                      A                      A
 Frequencies --   3035.6631              3040.5858              3053.6292
 Red. masses --      1.0831                 1.0662                 1.0377
 Frc consts  --      5.8808                 5.8080                 5.7012
 IR Inten    --     62.1868                95.2487                18.9201

                     88                     89                     90
                      A                      A                      A
 Frequencies --   3057.5360              3066.8029              3076.7763
 Red. masses --      1.0367                 1.0970                 1.0991
 Frc consts  --      5.7103                 6.0792                 6.1305
 IR Inten    --     19.9689                27.5723                19.4121

                     91                     92                     93
                      A                      A                      A
 Frequencies --   3103.6925              3115.2835              3124.5847
 Red. masses --      1.0977                 1.1004                 1.1022
 Frc consts  --      6.2298                 6.2923                 6.3402
 IR Inten    --     52.6774                52.0530                25.1472

                     94                     95                     96
                      A                      A                      A
 Frequencies --   3135.3625              3135.6173              3135.6261
 Red. masses --      1.0987                 1.0921                 1.1007
 Frc consts  --      6.3639                 6.3266                 6.3763
 IR Inten    --     32.7866                43.3352                17.4862

                     97                     98                     99
                      A                      A                      A
 Frequencies --   3171.8310              3176.4340              3183.7447
 Red. masses --      1.0875                 1.0858                 1.0865
 Frc consts  --      6.4463                 6.4550                 6.4887
 IR Inten    --     17.5541                 9.6969                 0.7808

                    100                    101                    102
                      A                      A                      A
 Frequencies --   3193.7977              3202.6908              3211.2903
 Red. masses --      1.0907                 1.0928                 1.0977
 Frc consts  --      6.5550                 6.6042                 6.6694
 IR Inten    --     17.4797                42.0437                21.6598

 - Thermochemistry -
 -------------------
 Temperature   298.150 Kelvin.  Pressure   1.00000 Atm.
 Atom     1 has atomic number  6 and mass  12.00000

 Molecular mass:   203.16740 amu.
 Principal axes and moments of inertia in atomic units:
                           1         2         3
     Eigenvalues --  1564.577776688.733356910.45004
           X            0.99997   0.00177   0.00774
           Y           -0.00216   0.99871   0.05067
           Z           -0.00765  -0.05068   0.99869
 This molecule is an asymmetric top.
 Rotational symmetry number  1.
 Warning -- assumption of classical behavior for rotation
           may cause significant error
 Rotational temperatures (Kelvin)      0.05536     0.01295     0.01253
 Rotational constants (GHZ):           1.15350     0.26982     0.26116
 Zero-point vibrational energy     848036.2 (Joules/Mol)
                                  202.68552 (Kcal/Mol)
 Warning -- explicit consideration of  22 degrees of freedom as
           vibrations may cause significant error
 Vibrational temperatures:     31.03    45.20    50.20   119.68   140.19
          (Kelvin)            155.59   173.30   257.57   290.47   328.95
                              354.63   409.43   425.12   449.55   512.86
                              551.36   597.59   607.09   634.92   709.83
                              755.44   823.18   896.29   916.02  1016.74
                             1053.87  1098.44  1142.67  1176.27  1199.92
                             1224.28  1236.35  1243.07  1311.06  1327.69
                             1333.81  1384.35  1424.38  1449.37  1460.84
                             1467.96  1502.94  1528.41  1557.11  1581.86
                             1601.01  1607.80  1631.36  1654.36  1717.37
                             1720.16  1751.78  1781.99  1800.37  1828.63
                             1889.29  1922.09  1925.80  1941.66  1974.89
                             1984.48  1991.12  2019.92  2033.38  2038.62
                             2057.41  2062.80  2090.18  2156.29  2159.29
                             2169.71  2177.60  2191.87  2200.77  2208.66
                             2213.77  2227.91  2235.16  2355.68  2395.63
                             2484.02  4249.20  4335.46  4356.88  4367.64
                             4374.72  4393.49  4399.11  4412.45  4426.79
                             4465.52  4482.20  4495.58  4511.09  4511.45
                             4511.47  4563.56  4570.18  4580.70  4595.16
                             4607.96  4620.33

 Zero-point correction=                           0.323000 (Hartree/Particle)
 Thermal correction to Energy=                    0.338752
 Thermal correction to Enthalpy=                  0.339697
 Thermal correction to Gibbs Free Energy=         0.278146
 Sum of electronic and zero-point Energies=           -600.605070
 Sum of electronic and thermal Energies=              -600.589317
 Sum of electronic and thermal Enthalpies=            -600.588373
 Sum of electronic and thermal Free Energies=         -600.649924

                     E (Thermal)             CV                S
                      KCal/Mol        Cal/Mol-Kelvin    Cal/Mol-Kelvin
 Total                  212.570             59.612            129.545
 Electronic               0.000              0.000              0.000
 Translational            0.889              2.981             41.831
 Rotational               0.889              2.981             32.647
 Vibrational            210.793             53.650             55.067
 Vibration     1          0.593              1.985              6.485
 Vibration     2          0.594              1.983              5.738
 Vibration     3          0.594              1.983              5.530
 Vibration     4          0.600              1.961              3.814
 Vibration     5          0.603              1.951              3.505
 Vibration     6          0.606              1.943              3.302
 Vibration     7          0.609              1.932              3.093
 Vibration     8          0.629              1.868              2.339
 Vibration     9          0.639              1.837              2.116
 Vibration    10          0.651              1.797              1.890
 Vibration    11          0.661              1.769              1.756
 Vibration    12          0.683              1.702              1.506
 Vibration    13          0.690              1.682              1.442
 Vibration    14          0.701              1.650              1.349
 Vibration    15          0.732              1.562              1.138
 Vibration    16          0.752              1.506              1.026
 Vibration    17          0.779              1.437              0.908
 Vibration    18          0.784              1.423              0.885
 Vibration    19          0.801              1.380              0.823
 Vibration    20          0.849              1.265              0.675
 Vibration    21          0.880              1.195              0.598
 Vibration    22          0.928              1.092              0.500

 Optimization completed.
    -- Stationary point found.
 Normal termination of Gaussian 16 at Thu Dec 10 17:48:11 2020.

 ----------------------------------------------------------------------
 # B3LYP/6-311++G(d,p) empiricaldispersion=gd3bj scf=xqc pop=npa geom=c
 heck
 ----------------------------------------------------------------------

 --------------------------------------
 CID_13411579_JID_5918_Energie_neutraal
 --------------------------------------
 Structure from the checkpoint file:  "JID_5918.chk"
 Charge =  0 Multiplicity = 1

 SCF Done:  E(RB3LYP) =  -601.088537586     A.U. after   14 cycles
 Normal termination of Gaussian 16 at Thu Dec 10 17:54:31 2020.

 ----------------------------------------------------------------------
 # B3LYP/6-311++G(d,p) empiricaldispersion=gd3bj scf=xqc pop=npa geom=c
 heck
 ----------------------------------------------------------------------

 ------------------------------------
 CID_13411579_JID_5918_Energie_kation
 ------------------------------------
 Structure from the checkpoint file:  "JID_5918.chk"
 Charge =  1 Multiplicity = 2

 SCF Done:  E(UB3LYP) =  -600.828937349     A.U. after   21 cycles
 Normal termination of Gaussian 16 at Thu Dec 10 18:07:08 2020.
 Gaussian 16:  ES64L-G16RevA.03 25-Dec-2016

 ----------------------------------------------------------------------
 # B3LYP/6-311++G(d,p) empiricaldispersion=gd3bj scf=xqc pop=npa geom=c
 heck
 ----------------------------------------------------------------------

 -----------------------------------
 CID_13411579_JID_5918_Energie_anion
 -----------------------------------
 Structure from the checkpoint file:  "JID_5918.chk"
 Charge = -1 Multiplicity = 2

                         Standard orientation:
 ---------------------------------------------------------------------
 Center     Atomic      Atomic             Coordinates (Angstroms)
 Number     Number       Type             X           Y           Z
 ---------------------------------------------------------------------
      1          6           0        1.272521    1.006780   -2.228161
      2          6           0        2.017985    1.212850   -0.911108
      3          7           0        2.951440    0.141804   -0.586176
      4          6           0        3.908243    0.475383    0.458834
      5          6           0        3.349002    0.847886    1.844465
      6          6           0        2.491554   -1.231594   -0.639871
      7          6           0        1.558573   -1.781141    0.483733
      8          6           0        0.296079   -0.993567    0.658746
      9          6           0       -0.875820   -1.303719    0.083537
     10          6           0       -2.116022   -0.520190    0.138583
     11          6           0       -3.318072   -1.106146   -0.292194
     12          6           0       -4.519004   -0.400637   -0.256454
     13          6           0       -4.544069    0.914739    0.207163
     14          6           0       -3.355091    1.516684    0.628212
     15          6           0       -2.156662    0.811388    0.590853
     16          1           0        1.972383    0.769236   -3.036621
     17          1           0        0.733996    1.923067   -2.492754
     18          1           0        0.533143    0.203869   -2.155070
     19          1           0        2.617327    2.131076   -0.983313
     20          1           0        1.273835    1.399239   -0.115752
     21          1           0        4.595107   -0.374215    0.561087
     22          1           0        4.511268    1.321908    0.098294
     23          1           0        2.805142    0.019071    2.307285
     24          1           0        4.168940    1.127662    2.516594
     25          1           0        2.668533    1.704012    1.781537
     26          1           0        1.975483   -1.378952   -1.593805
     27          1           0        3.382840   -1.873411   -0.664594
     28          1           0        1.316435   -2.817820    0.212153
     29          1           0        2.115368   -1.823080    1.427274
     30          1           0        0.372323   -0.091721    1.262797
     31          1           0       -0.939319   -2.231703   -0.486940
     32          1           0       -3.304356   -2.131489   -0.654146
     33          1           0       -5.435343   -0.878399   -0.592252
     34          1           0       -5.477686    1.469320    0.233881
     35          1           0       -3.361887    2.545157    0.979144
     36          1           0       -1.238917    1.302246    0.900418
 ---------------------------------------------------------------------

 SCF Done:  E(UB3LYP) =  -601.081065816     A.U. after   30 cycles

 The electronic state is 2-A.
 Alpha  occ. eigenvalues --  -14.18804 -10.08562 -10.08225 -10.07703 -10.05458
 Alpha  occ. eigenvalues --  -10.05419 -10.05163 -10.05115 -10.04869 -10.04824
 Alpha  occ. eigenvalues --  -10.04771 -10.04366 -10.04246 -10.03269 -10.02990
 Alpha  occ. eigenvalues --   -0.81050  -0.73400  -0.67784  -0.65465  -0.64425
 Alpha  occ. eigenvalues --   -0.62424  -0.61667  -0.57917  -0.52992  -0.51918
 Alpha  occ. eigenvalues --   -0.48922  -0.47595  -0.44706  -0.42042  -0.39791
 Alpha  occ. eigenvalues --   -0.38089  -0.36243  -0.35033  -0.34467  -0.33227
 Alpha  occ. eigenvalues --   -0.31908  -0.31545  -0.30528  -0.30035  -0.28931
 Alpha  occ. eigenvalues --   -0.28600  -0.27694  -0.26982  -0.26094  -0.25248
 Alpha  occ. eigenvalues --   -0.24776  -0.24503  -0.23387  -0.23188  -0.22120
 Alpha  occ. eigenvalues --   -0.21223  -0.20780  -0.17390  -0.13696  -0.10864
 Alpha  occ. eigenvalues --   -0.08522   0.04707
 Alpha virt. eigenvalues --    0.06840   0.07707   0.07975   0.08331   0.09113
 Alpha virt. eigenvalues --    0.09283   0.10253   0.10543   0.10579   0.10869
 Alpha virt. eigenvalues --    0.11201   0.12017   0.12898   0.12995   0.13745

  Beta  occ. eigenvalues --  -14.18808 -10.08538 -10.08205 -10.07654 -10.05470
  Beta  occ. eigenvalues --  -10.05446 -10.05140 -10.05110 -10.04885 -10.04771
  Beta  occ. eigenvalues --  -10.04663 -10.04169 -10.04128 -10.03209 -10.02739
  Beta  occ. eigenvalues --   -0.81037  -0.73168  -0.67478  -0.65439  -0.64224
  Beta  occ. eigenvalues --   -0.62264  -0.61496  -0.57742  -0.52846  -0.51856
  Beta  occ. eigenvalues --   -0.48741  -0.47385  -0.44583  -0.41812  -0.39700
  Beta  occ. eigenvalues --   -0.38027  -0.36184  -0.34979  -0.34297  -0.33100
  Beta  occ. eigenvalues --   -0.31818  -0.31508  -0.30473  -0.29987  -0.28867
  Beta  occ. eigenvalues --   -0.28517  -0.27594  -0.26908  -0.26012  -0.24859
  Beta  occ. eigenvalues --   -0.24515  -0.24448  -0.23289  -0.23163  -0.22058
  Beta  occ. eigenvalues --   -0.21149  -0.20634  -0.16413  -0.13232  -0.10204
  Beta  occ. eigenvalues --   -0.08007
  Beta virt. eigenvalues --    0.07082   0.07709   0.08119   0.08458   0.09115
  Beta virt. eigenvalues --    0.09247   0.09471   0.10350   0.10630   0.10743
  Beta virt. eigenvalues --    0.11043   0.11263   0.12068   0.13000   0.13035

 Mulliken charges and spin densities:
               1          2
     1  C   -0.154021  -0.439948
     2  C   -0.050171  -0.069425
     3  N    0.013584   0.131410
     4  C    0.200380  -0.455181
     5  C   -0.147414  -0.283795
     6  C    0.472221  -0.889724
     7  C   -0.639464   0.128242
     8  C   -0.018713   0.516913
     9  C   -0.228503  -0.161847
    10  C    1.307657  -0.170338
    11  C   -0.064492   0.106726
    12  C   -0.417813   0.004530
    13  C   -0.343744   0.134150
    14  C   -0.371215   0.091027
    15  C   -0.731358  -0.023620
    16  H    0.077232   0.067244
    17  H    0.087345   0.032908
    18  H    0.144574   0.013280
    19  H   -0.111306   0.254833
    20  H   -0.003305   0.038487
    21  H   -0.252845   0.373734
    22  H   -0.087415   0.236264
    23  H    0.120077   0.009491
    24  H   -0.308091   0.452451
    25  H    0.117885   0.018814
    26  H    0.180407  -0.041043
    27  H   -0.458213   0.608783
    28  H   -0.127885   0.272925
    29  H    0.095811   0.044817
    30  H    0.137494  -0.020347
    31  H    0.116239   0.007197
    32  H    0.078155   0.033086
    33  H    0.120995  -0.000791
    34  H    0.101722  -0.013169
    35  H    0.124984   0.026997
    36  H    0.019204  -0.035082
 Sum of Mulliken charges =  -1.00000   1.00000

 Dipole moment (field-independent basis, Debye):
    X=             -3.1420    Y=              1.3740    Z=             -0.7549  Tot=              3.5114
 Quadrupole moment (field-independent basis, Debye-Ang):
   XX=           -174.2069   YY=           -120.4557   ZZ=           -117.2972
   XY=              3.5975   XZ=             -0.2001   YZ=              2.3264

 Summary of Natural Population Analysis:

                                       Natural Population
                Natural  -----------------------------------------------
    Atom  No    Charge         Core      Valence    Rydberg      Total
 -----------------------------------------------------------------------
      C    1   -0.29151      0.99966     2.28763    0.00422     3.29151
      C    2   -0.08247      0.99962     2.07156    0.01130     3.08247
      N    3   -0.28561      0.99971     2.77090    0.01499     3.78561
      C    4   -0.07993      0.99962     2.06844    0.01186     3.07993
      C    5   -0.29739      0.99966     2.29259    0.00514     3.29739
      C    6   -0.07314      0.99959     2.06040    0.01314     3.07314
      C    7   -0.21662      0.99961     2.20705    0.00996     3.21662
      C    8   -0.03581      0.99953     2.02802    0.00826     3.03581
      C    9   -0.10453      0.99950     2.09526    0.00978     3.10453
      C   10   -0.01131      0.99950     2.00262    0.00918     3.01131
      C   11   -0.09265      0.99954     2.08494    0.00817     3.09265
      C   12   -0.10679      0.99957     2.09779    0.00942     3.10679
      C   13   -0.08264      0.99957     2.07316    0.00991     3.08264
      C   14   -0.11544      0.99958     2.10672    0.00914     3.11544
      C   15   -0.07472      0.99953     2.06763    0.00755     3.07472
      H   16    0.09492      0.00000     0.40399    0.00109     0.40508
      H   17    0.09807      0.00000     0.40120    0.00073     0.40193
      H   18    0.10522      0.00000     0.39370    0.00108     0.39478
      H   19    0.08896      0.00000     0.40967    0.00137     0.41104
      H   20    0.08377      0.00000     0.41456    0.00167     0.41623
      H   21    0.09382      0.00000     0.40474    0.00144     0.40618
      H   22    0.08785      0.00000     0.41079    0.00136     0.41215
      H   23    0.09752      0.00000     0.40138    0.00110     0.40248
      H   24    0.09631      0.00000     0.40238    0.00130     0.40369
      H   25    0.09568      0.00000     0.40344    0.00088     0.40432
      H   26    0.09204      0.00000     0.40665    0.00132     0.40796
      H   27    0.09303      0.00000     0.40514    0.00183     0.40697
      H   28    0.09793      0.00000     0.40057    0.00150     0.40207
      H   29    0.09524      0.00000     0.40356    0.00121     0.40476
      H   30    0.08465      0.00000     0.41346    0.00189     0.41535
      H   31    0.08608      0.00000     0.41239    0.00153     0.41392
      H   32    0.09223      0.00000     0.40647    0.00130     0.40777
      H   33    0.09097      0.00000     0.40792    0.00111     0.40903
      H   34    0.08929      0.00000     0.40969    0.00101     0.41071
      H   35    0.09232      0.00000     0.40665    0.00103     0.40768
      H   36    0.09467      0.00000     0.40386    0.00147     0.40533
 =======================================================================
   * Total *   -0.00000     14.99380    40.83694    0.16927    56.00000

 Normal termination of Gaussian 16 at Thu Dec 10 18:25:14 2020.
