 Gaussian 16, Revision A.03,

 -----------------------------------------------------------
 # opt freq B3LYP/6-31G(d) empiricaldispersion=gd3bj scf=xqc
 -----------------------------------------------------------

 --------------------------------
 CID_106325148_JID_10413_neutraal
 --------------------------------
 Symbolic Z-matrix:
 Charge =  0 Multiplicity = 1

 SCF Done:  E(RB3LYP) =  -1221.96450882     A.U. after   15 cycles
 SCF Done:  E(RB3LYP) =  -1221.97116393     A.U. after   14 cycles
 SCF Done:  E(RB3LYP) =  -1221.97307148     A.U. after   14 cycles
 SCF Done:  E(RB3LYP) =  -1221.97470051     A.U. after   15 cycles
 SCF Done:  E(RB3LYP) =  -1221.97578215     A.U. after   12 cycles
 SCF Done:  E(RB3LYP) =  -1221.97689436     A.U. after   14 cycles
 SCF Done:  E(RB3LYP) =  -1221.97782963     A.U. after   15 cycles
 SCF Done:  E(RB3LYP) =  -1221.97821223     A.U. after   12 cycles
 SCF Done:  E(RB3LYP) =  -1221.97844688     A.U. after   11 cycles
 SCF Done:  E(RB3LYP) =  -1221.97858801     A.U. after   11 cycles
 SCF Done:  E(RB3LYP) =  -1221.97890337     A.U. after   10 cycles
 SCF Done:  E(RB3LYP) =  -1221.97890353     A.U. after    9 cycles
 SCF Done:  E(RB3LYP) =  -1221.97890354     A.U. after    9 cycles
 SCF Done:  E(RB3LYP) =  -1221.97890351     A.U. after    8 cycles
 Optimization completed.
    -- Stationary point found.
 Normal termination of Gaussian 16 at Sun Dec 13 13:02:24 2020.

 --------------------------------------------------------------------
 #N Geom=AllCheck Guess=TCheck SCRF=Check GenChk RB3LYP/6-31G(d) Freq
 --------------------------------------------------------------------

 Structure from the checkpoint file:  "JID_10413.chk"
 --------------------------------
 CID_106325148_JID_10413_neutraal
 --------------------------------
 Charge =  0 Multiplicity = 1

 SCF Done:  E(RB3LYP) =  -1221.97890351     A.U. after    1 cycles

  Exact polarizability: 307.048 -38.026 202.885  -0.739  -1.391 128.731
 Approx polarizability: 399.539 -72.132 355.589  -4.861  -0.224 200.183

                      1                      2                      3
                      A                      A                      A
 Frequencies --      9.3368                22.8933                24.1978
 Red. masses --      4.4485                 5.0446                 3.8153
 Frc consts  --      0.0002                 0.0016                 0.0013
 IR Inten    --      0.0787                 0.2354                 0.5498

                      4                      5                      6
                      A                      A                      A
 Frequencies --     45.6544                55.2126                77.0897
 Red. masses --      5.3063                 5.4745                 5.3121
 Frc consts  --      0.0065                 0.0098                 0.0186
 IR Inten    --      1.7160                 1.5511                 1.0695

                      7                      8                      9
                      A                      A                      A
 Frequencies --     98.1696               110.3311               128.7007
 Red. masses --      4.0420                 5.2525                 4.8071
 Frc consts  --      0.0230                 0.0377                 0.0469
 IR Inten    --      0.1646                 1.1713                10.3720

                     10                     11                     12
                      A                      A                      A
 Frequencies --    161.0311               199.8395               219.4702
 Red. masses --      3.3130                 3.2829                 4.5331
 Frc consts  --      0.0506                 0.0772                 0.1286
 IR Inten    --      2.2523                 5.5439                 3.1194

                     13                     14                     15
                      A                      A                      A
 Frequencies --    234.8283               253.1660               313.1483
 Red. masses --      2.3947                 2.5200                 3.8212
 Frc consts  --      0.0778                 0.0952                 0.2208
 IR Inten    --      1.7944                 1.8379                 7.0573

                     16                     17                     18
                      A                      A                      A
 Frequencies --    318.9594               327.0760               332.4233
 Red. masses --      2.8630                 1.2598                 3.3870
 Frc consts  --      0.1716                 0.0794                 0.2205
 IR Inten    --      0.3011                10.5651                 7.5425

                     19                     20                     21
                      A                      A                      A
 Frequencies --    366.0235               383.7189               407.4076
 Red. masses --      2.5127                 2.6190                 2.8642
 Frc consts  --      0.1983                 0.2272                 0.2801
 IR Inten    --      1.7140                 3.0049                 1.0106

                     22                     23                     24
                      A                      A                      A
 Frequencies --    410.3820               417.8383               450.6833
 Red. masses --      2.4887                 3.0874                 2.4988
 Frc consts  --      0.2469                 0.3176                 0.2990
 IR Inten    --      2.1237                 1.0350                 1.6859

                     25                     26                     27
                      A                      A                      A
 Frequencies --    483.6753               509.0990               516.0319
 Red. masses --      2.4076                 2.1349                 3.7103
 Frc consts  --      0.3318                 0.3260                 0.5821
 IR Inten    --     13.6794                91.8129                58.6099

                     28                     29                     30
                      A                      A                      A
 Frequencies --    547.8507               574.7531               588.8749
 Red. masses --      3.3394                 1.8358                 2.0797
 Frc consts  --      0.5905                 0.3573                 0.4249
 IR Inten    --     89.3603               271.9554               110.3145

                     31                     32                     33
                      A                      A                      A
 Frequencies --    613.0099               648.8505               659.9910
 Red. masses --      2.0669                 2.1392                 6.4755
 Frc consts  --      0.4576                 0.5306                 1.6619
 IR Inten    --     45.9800                24.8218                 0.5865

                     34                     35                     36
                      A                      A                      A
 Frequencies --    661.9189               695.1417               717.7511
 Red. masses --      4.8578                 4.4962                 2.7116
 Frc consts  --      1.2540                 1.2801                 0.8230
 IR Inten    --      5.6422                 1.2157                38.3951

                     37                     38                     39
                      A                      A                      A
 Frequencies --    747.0360               754.6967               807.6767
 Red. masses --      4.2368                 2.6792                 3.7819
 Frc consts  --      1.3931                 0.8991                 1.4536
 IR Inten    --     21.9051                 4.4251                 6.4573

                     40                     41                     42
                      A                      A                      A
 Frequencies --    820.5240               827.7570               830.0545
 Red. masses --      1.3147                 1.7773                 1.5980
 Frc consts  --      0.5215                 0.7175                 0.6487
 IR Inten    --      2.9377                17.0364                14.5483

                     43                     44                     45
                      A                      A                      A
 Frequencies --    846.3572               874.7695               885.7252
 Red. masses --      2.6193                 2.4541                 3.6618
 Frc consts  --      1.1055                 1.1064                 1.6926
 IR Inten    --     40.9112                18.9360                12.9552

                     46                     47                     48
                      A                      A                      A
 Frequencies --    917.6834               942.5091               949.3707
 Red. masses --      2.6196                 1.3246                 1.3015
 Frc consts  --      1.2998                 0.6933                 0.6912
 IR Inten    --      2.1524                 0.6306                 0.7593

                     49                     50                     51
                      A                      A                      A
 Frequencies --    952.0171               984.5371               999.7471
 Red. masses --      2.4264                 2.0670                 2.0580
 Frc consts  --      1.2957                 1.1805                 1.2119
 IR Inten    --      6.3570                 3.1811                58.6337

                     52                     53                     54
                      A                      A                      A
 Frequencies --   1016.5167              1021.3517              1028.6808
 Red. masses --      1.8916                 1.3123                 1.5522
 Frc consts  --      1.1516                 0.8066                 0.9677
 IR Inten    --      6.8055                22.2398                 9.6078

                     55                     56                     57
                      A                      A                      A
 Frequencies --   1032.3379              1068.9322              1079.2904
 Red. masses --      2.5214                 2.0639                 2.1853
 Frc consts  --      1.5832                 1.3895                 1.4998
 IR Inten    --      1.6403                12.5146                16.9080

                     58                     59                     60
                      A                      A                      A
 Frequencies --   1095.3117              1156.1545              1164.8775
 Red. masses --      1.4793                 3.1155                 2.0541
 Frc consts  --      1.0456                 2.4537                 1.6422
 IR Inten    --      2.0245                10.8351                44.2940

                     61                     62                     63
                      A                      A                      A
 Frequencies --   1167.3913              1179.7786              1205.8732
 Red. masses --      1.2356                 2.0565                 1.2256
 Frc consts  --      0.9921                 1.6865                 1.0500
 IR Inten    --      7.6324               114.7346                 7.2042

                     64                     65                     66
                      A                      A                      A
 Frequencies --   1216.5963              1240.9601              1248.1569
 Red. masses --      1.1649                 1.2126                 1.2487
 Frc consts  --      1.0158                 1.1003                 1.1462
 IR Inten    --     72.1438                20.0498                 1.0057

                     67                     68                     69
                      A                      A                      A
 Frequencies --   1253.0060              1293.8927              1305.7288
 Red. masses --      1.6316                 1.5252                 1.8268
 Frc consts  --      1.5092                 1.5045                 1.8351
 IR Inten    --     14.9867                80.7812                53.3944

                     70                     71                     72
                      A                      A                      A
 Frequencies --   1323.9534              1328.5859              1338.2779
 Red. masses --      1.3307                 1.3836                 2.5309
 Frc consts  --      1.3743                 1.4390                 2.6707
 IR Inten    --     11.9700                15.9221               108.2241

                     73                     74                     75
                      A                      A                      A
 Frequencies --   1341.8109              1364.0116              1375.9226
 Red. masses --      1.7930                 1.6109                 1.3628
 Frc consts  --      1.9020                 1.7658                 1.5201
 IR Inten    --     29.4467                29.0140                17.1047

                     76                     77                     78
                      A                      A                      A
 Frequencies --   1379.4051              1382.3417              1389.1892
 Red. masses --      1.3320                 1.6944                 2.6900
 Frc consts  --      1.4933                 1.9076                 3.0586
 IR Inten    --     45.2931               126.0379               140.1854

                     79                     80                     81
                      A                      A                      A
 Frequencies --   1402.8862              1416.3077              1429.9067
 Red. masses --      1.3100                 1.4705                 1.4171
 Frc consts  --      1.5191                 1.7380                 1.7072
 IR Inten    --      7.8216                13.4401                35.6078

                     82                     83                     84
                      A                      A                      A
 Frequencies --   1445.1232              1482.5605              1487.1395
 Red. masses --      1.3961                 1.1002                 1.4114
 Frc consts  --      1.7178                 1.4247                 1.8391
 IR Inten    --     20.6083                 2.1925                63.7102

                     85                     86                     87
                      A                      A                      A
 Frequencies --   1490.9302              1492.0602              1494.1280
 Red. masses --      1.2149                 2.0954                 1.2811
 Frc consts  --      1.5911                 2.7485                 1.6850
 IR Inten    --     49.8395                13.8821                 1.6229

                     88                     89                     90
                      A                      A                      A
 Frequencies --   1507.2977              1517.3761              1526.8099
 Red. masses --      1.0844                 1.0967                 1.1219
 Frc consts  --      1.4515                 1.4878                 1.5409
 IR Inten    --      6.0457                 9.4753                11.9521

                     91                     92                     93
                      A                      A                      A
 Frequencies --   1571.5552              1626.0126              1672.1132
 Red. masses --      2.6327                 5.7776                 3.4902
 Frc consts  --      3.8310                 9.0000                 5.7496
 IR Inten    --     87.4465                15.9460               171.5620

                     94                     95                     96
                      A                      A                      A
 Frequencies --   1692.4657              1701.8026              1759.9672
 Red. masses --      1.6436                 3.1237                 7.1299
 Frc consts  --      2.7738                 5.3301                13.0119
 IR Inten    --    239.4878                23.0380               406.9472

                     97                     98                     99
                      A                      A                      A
 Frequencies --   2944.4330              2971.5911              3027.7090
 Red. masses --      1.0711                 1.0703                 1.0649
 Frc consts  --      5.4712                 5.5685                 5.7516
 IR Inten    --     47.1614                66.3895                32.4689

                    100                    101                    102
                      A                      A                      A
 Frequencies --   3041.7407              3056.3861              3069.2569
 Red. masses --      1.0707                 1.0837                 1.0647
 Frc consts  --      5.8364                 5.9646                 5.9095
 IR Inten    --     30.4588                19.4647                12.5432

                    103                    104                    105
                      A                      A                      A
 Frequencies --   3074.3976              3082.6699              3087.8799
 Red. masses --      1.0642                 1.0907                 1.0930
 Frc consts  --      5.9266                 6.1065                 6.1406
 IR Inten    --     40.6057                 6.4514                94.3901

                    106                    107                    108
                      A                      A                      A
 Frequencies --   3127.8271              3128.9590              3131.0073
 Red. masses --      1.0940                 1.1068                 1.1063
 Frc consts  --      6.3061                 6.3842                 6.3898
 IR Inten    --     15.5896                16.6088                 9.1167

                    109                    110                    111
                      A                      A                      A
 Frequencies --   3172.3170              3176.4890              3178.9648
 Red. masses --      1.0870                 1.0874                 1.0882
 Frc consts  --      6.4454                 6.4646                 6.4796
 IR Inten    --      5.2990                21.9087                22.4717

                    112                    113                    114
                      A                      A                      A
 Frequencies --   3191.1934              3201.2460              3210.3279
 Red. masses --      1.0943                 1.0900                 1.0904
 Frc consts  --      6.5658                 6.5814                 6.6209
 IR Inten    --     23.5701                 2.8704                16.8067

                    115                    116                    117
                      A                      A                      A
 Frequencies --   3560.7505              3581.3255              3661.6157
 Red. masses --      1.0475                 1.0752                 1.0991
 Frc consts  --      7.8253                 8.1251                 8.6821
 IR Inten    --     36.3271                19.4655                11.8278

 - Thermochemistry -
 -------------------
 Temperature   298.150 Kelvin.  Pressure   1.00000 Atm.
 Atom     1 has atomic number  6 and mass  12.00000

 Molecular mass:   291.14053 amu.
 Principal axes and moments of inertia in atomic units:
                           1         2         3
     Eigenvalues --  2765.98030********************
           X            0.99999  -0.00016   0.00316
           Y            0.00020   0.99991  -0.01309
           Z           -0.00316   0.01309   0.99991
 This molecule is an asymmetric top.
 Rotational symmetry number  1.
 Warning -- assumption of classical behavior for rotation
           may cause significant error
 Rotational temperatures (Kelvin)      0.03131     0.00493     0.00452
 Rotational constants (GHZ):           0.65248     0.10275     0.09422
 Zero-point vibrational energy     915848.2 (Joules/Mol)
                                  218.89297 (Kcal/Mol)
 Warning -- explicit consideration of  31 degrees of freedom as
           vibrations may cause significant error
 Vibrational temperatures:     13.43    32.94    34.82    65.69    79.44
          (Kelvin)            110.91   141.24   158.74   185.17   231.69
                              287.52   315.77   337.87   364.25   450.55
                              458.91   470.59   478.28   526.63   552.09
                              586.17   590.45   601.18   648.43   695.90
                              732.48   742.45   788.24   826.94   847.26
                              881.98   933.55   949.58   952.35  1000.15
                             1032.68  1074.82  1085.84  1162.07  1180.55
                             1190.96  1194.26  1217.72  1258.60  1274.36
                             1320.34  1356.06  1365.93  1369.74  1416.53
                             1438.41  1462.54  1469.50  1480.04  1485.30
                             1537.95  1552.86  1575.91  1663.45  1676.00
                             1679.62  1697.44  1734.98  1750.41  1785.46
                             1795.82  1802.80  1861.62  1878.65  1904.87
                             1911.54  1925.48  1930.57  1962.51  1979.65
                             1984.66  1988.88  1998.73  2018.44  2037.75
                             2057.32  2079.21  2133.07  2139.66  2145.12
                             2146.74  2149.72  2168.67  2183.17  2196.74
                             2261.12  2339.47  2405.80  2435.08  2448.51
                             2532.20  4236.38  4275.46  4356.20  4376.39
                             4397.46  4415.98  4423.37  4435.27  4442.77
                             4500.25  4501.87  4504.82  4564.26  4570.26
                             4573.82  4591.42  4605.88  4618.95  5123.13
                             5152.73  5268.25

 Zero-point correction=                           0.348828 (Hartree/Particle)
 Thermal correction to Energy=                    0.368486
 Thermal correction to Enthalpy=                  0.369430
 Thermal correction to Gibbs Free Energy=         0.296951
 Sum of electronic and zero-point Energies=          -1221.630075
 Sum of electronic and thermal Energies=             -1221.610418
 Sum of electronic and thermal Enthalpies=           -1221.609473
 Sum of electronic and thermal Free Energies=        -1221.681953

                     E (Thermal)             CV                S
                      KCal/Mol        Cal/Mol-Kelvin    Cal/Mol-Kelvin
 Total                  231.228             75.291            152.546
 Electronic               0.000              0.000              0.000
 Translational            0.889              2.981             42.903
 Rotational               0.889              2.981             35.186
 Vibrational            229.451             69.329             74.457
 Vibration     1          0.593              1.987              8.147
 Vibration     2          0.593              1.985              6.366
 Vibration     3          0.593              1.985              6.256
 Vibration     4          0.595              1.979              4.997
 Vibration     5          0.596              1.975              4.621
 Vibration     6          0.599              1.964              3.964
 Vibration     7          0.604              1.950              3.490
 Vibration     8          0.606              1.941              3.263
 Vibration     9          0.611              1.925              2.965
 Vibration    10          0.622              1.890              2.538
 Vibration    11          0.638              1.840              2.135
 Vibration    12          0.647              1.811              1.963
 Vibration    13          0.655              1.788              1.842
 Vibration    14          0.664              1.757              1.708
 Vibration    15          0.701              1.649              1.346
 Vibration    16          0.705              1.637              1.315
 Vibration    17          0.711              1.621              1.274
 Vibration    18          0.714              1.611              1.248
 Vibration    19          0.739              1.542              1.096
 Vibration    20          0.753              1.505              1.024
 Vibration    21          0.772              1.454              0.936
 Vibration    22          0.775              1.448              0.925
 Vibration    23          0.781              1.431              0.899
 Vibration    24          0.809              1.359              0.794
 Vibration    25          0.840              1.286              0.700
 Vibration    26          0.864              1.230              0.636
 Vibration    27          0.871              1.214              0.619
 Vibration    28          0.903              1.144              0.549
 Vibration    29          0.931              1.086              0.495
 Vibration    30          0.946              1.056              0.469
 Vibration    31          0.972              1.004              0.428

                           ! Non-Optimized Parameters !
 Normal termination of Gaussian 16 at Sun Dec 13 13:19:46 2020.

 ----------------------------------------------------------------------
 # B3LYP/6-311++G(d,p) empiricaldispersion=gd3bj scf=xqc pop=npa geom=c
 heck
 ----------------------------------------------------------------------

 ----------------------------------------
 CID_106325148_JID_10413_Energie_neutraal
 ----------------------------------------
 Structure from the checkpoint file:  "JID_10413.chk"
 Charge =  0 Multiplicity = 1

 SCF Done:  E(RB3LYP) =  -1222.24025855     A.U. after   15 cycles
 Normal termination of Gaussian 16 at Sun Dec 13 13:27:26 2020.

 ----------------------------------------------------------------------
 # B3LYP/6-311++G(d,p) empiricaldispersion=gd3bj scf=xqc pop=npa geom=c
 heck
 ----------------------------------------------------------------------

 --------------------------------------
 CID_106325148_JID_10413_Energie_kation
 --------------------------------------
 Structure from the checkpoint file:  "JID_10413.chk"
 Charge =  1 Multiplicity = 2

 SCF Done:  E(UB3LYP) =  -1221.97632505     A.U. after   33 cycles
 SCF Done:  E(UB3LYP) =  -1221.97632505     a.u. after    1 cycles
 Normal termination of Gaussian 16 at Sun Dec 13 13:50:20 2020.
 Gaussian 16:  ES64L-G16RevA.03 25-Dec-2016

 ----------------------------------------------------------------------
 # B3LYP/6-311++G(d,p) empiricaldispersion=gd3bj scf=xqc pop=npa geom=c
 heck
 ----------------------------------------------------------------------

 -------------------------------------
 CID_106325148_JID_10413_Energie_anion
 -------------------------------------
 Structure from the checkpoint file:  "JID_10413.chk"
 Charge = -1 Multiplicity = 2

                         Standard orientation:
 ---------------------------------------------------------------------
 Center     Atomic      Atomic             Coordinates (Angstroms)
 Number     Number       Type             X           Y           Z
 ---------------------------------------------------------------------
      1          6           0       -3.818041   -0.532751   -1.348491
      2          6           0       -5.161864   -1.174967   -1.007912
      3         16           0       -5.825286   -0.584442    0.594815
      4          6           0       -4.321308   -0.936699    1.582521
      5          6           0       -3.076790   -0.302340    0.964808
      6          7           0       -2.801558   -0.861377   -0.356123
      7          6           0       -1.432692   -0.713426   -0.832489
      8          6           0       -0.973425    0.680761   -1.297870
      9          7           0       -0.930777    1.685282   -0.239629
     10          6           0        0.146753    2.464400    0.140136
     11          8           0       -0.032449    3.565435    0.655376
     12          6           0        1.521691    1.932795   -0.030825
     13          6           0        1.885335    0.649190    0.151773
     14          6           0        3.233098    0.091626    0.121106
     15          6           0        3.412514   -1.283681    0.350645
     16          6           0        4.669088   -1.872275    0.331385
     17          6           0        5.812187   -1.096258    0.077300
     18          6           0        5.645841    0.283161   -0.154722
     19          6           0        4.386535    0.858452   -0.132190
     20          7           0        7.071073   -1.680778    0.000546
     21          1           0       -3.480817   -0.922951   -2.317518
     22          1           0       -3.963071    0.558006   -1.463675
     23          1           0       -5.910519   -0.919718   -1.763671
     24          1           0       -5.052854   -2.263995   -0.975856
     25          1           0       -4.187304   -2.020099    1.667297
     26          1           0       -4.505908   -0.525462    2.579252
     27          1           0       -2.211452   -0.507422    1.605264
     28          1           0       -3.217526    0.792417    0.948111
     29          1           0       -0.767000   -1.060888   -0.033774
     30          1           0       -1.302453   -1.399892   -1.681258
     31          1           0        0.025932    0.595156   -1.731213
     32          1           0       -1.635499    1.034835   -2.099192
     33          1           0       -1.799023    2.175621   -0.058942
     34          1           0        2.261763    2.713890   -0.177752
     35          1           0        1.104294   -0.075352    0.373699
     36          1           0        2.541442   -1.902913    0.551918
     37          1           0        4.773989   -2.939649    0.509680
     38          1           0        6.519395    0.898597   -0.355908
     39          1           0        4.296147    1.925449   -0.310656
     40          1           0        7.853162   -1.058530    0.158335
     41          1           0        7.176767   -2.559314    0.491204
 ---------------------------------------------------------------------

 SCF Done:  E(UB3LYP) =  -1222.24807460     A.U. after   33 cycles
 SCF Done:  E(UB3LYP) =  -1222.24807460     a.u. after    1 cycles

 The electronic state is 2-A.
 Alpha  occ. eigenvalues --  -88.76331 -18.94451 -14.22629 -14.21280 -14.20768
 Alpha  occ. eigenvalues --  -10.12819 -10.12475 -10.12380 -10.12281 -10.11871
 Alpha  occ. eigenvalues --  -10.10635 -10.10222 -10.08652 -10.05212 -10.05157
 Alpha  occ. eigenvalues --  -10.05079 -10.04476 -10.04371 -10.03142 -10.01914
 Alpha  occ. eigenvalues --   -7.84962  -5.81338  -5.81013  -5.80327  -0.89837
 Alpha  occ. eigenvalues --   -0.85389  -0.81310  -0.79457  -0.73136  -0.72514
 Alpha  occ. eigenvalues --   -0.69362  -0.65596  -0.64695  -0.62876  -0.59807
 Alpha  occ. eigenvalues --   -0.57668  -0.56345  -0.52842  -0.51304  -0.49884
 Alpha  occ. eigenvalues --   -0.47582  -0.46365  -0.43820  -0.41041  -0.40894
 Alpha  occ. eigenvalues --   -0.40676  -0.40158  -0.38699  -0.38200  -0.35553
 Alpha  occ. eigenvalues --   -0.35415  -0.34950  -0.33997  -0.33040  -0.32288
 Alpha  occ. eigenvalues --   -0.31957  -0.31294  -0.30659  -0.29897  -0.29459
 Alpha  occ. eigenvalues --   -0.28748  -0.27741  -0.27189  -0.26810  -0.26374
 Alpha  occ. eigenvalues --   -0.25502  -0.24893  -0.23208  -0.23066  -0.21685
 Alpha  occ. eigenvalues --   -0.21383  -0.15525  -0.15189  -0.14983  -0.14003
 Alpha  occ. eigenvalues --   -0.12994  -0.11629  -0.08196   0.03736
 Alpha virt. eigenvalues --    0.05203   0.05877   0.06601   0.07519   0.07657
 Alpha virt. eigenvalues --    0.08284   0.09085   0.09580   0.09855   0.10095
 Alpha virt. eigenvalues --    0.10221   0.10322   0.10988   0.11756   0.11909

  Beta  occ. eigenvalues --  -88.76330 -18.94258 -14.22628 -14.21213 -14.20751
  Beta  occ. eigenvalues --  -10.12725 -10.12466 -10.12370 -10.12280 -10.11867
  Beta  occ. eigenvalues --  -10.10633 -10.10217 -10.08381 -10.05297 -10.05155
  Beta  occ. eigenvalues --  -10.05049 -10.04371 -10.04274 -10.02880 -10.01728
  Beta  occ. eigenvalues --   -7.84961  -5.81337  -5.81013  -5.80326  -0.89529
  Beta  occ. eigenvalues --   -0.85379  -0.81100  -0.79344  -0.73126  -0.72301
  Beta  occ. eigenvalues --   -0.69351  -0.65153  -0.64630  -0.62728  -0.59451
  Beta  occ. eigenvalues --   -0.57639  -0.56326  -0.52786  -0.50748  -0.49759
  Beta  occ. eigenvalues --   -0.47563  -0.46193  -0.43573  -0.41001  -0.40807
  Beta  occ. eigenvalues --   -0.40583  -0.40062  -0.38673  -0.38181  -0.35409
  Beta  occ. eigenvalues --   -0.35309  -0.34909  -0.33871  -0.33021  -0.32250
  Beta  occ. eigenvalues --   -0.31805  -0.31190  -0.30602  -0.29792  -0.29432
  Beta  occ. eigenvalues --   -0.28649  -0.27359  -0.26788  -0.26631  -0.26004
  Beta  occ. eigenvalues --   -0.25486  -0.24511  -0.23197  -0.22907  -0.21325
  Beta  occ. eigenvalues --   -0.20787  -0.15465  -0.14861  -0.14006  -0.13556
  Beta  occ. eigenvalues --   -0.12821  -0.11266  -0.07125
  Beta virt. eigenvalues --    0.05404   0.06149   0.06549   0.07443   0.07661
  Beta virt. eigenvalues --    0.08313   0.08648   0.09110   0.09534   0.09843
  Beta virt. eigenvalues --    0.10091   0.10269   0.10472   0.10986   0.11752

 Mulliken charges and spin densities:
               1          2
     1  C   -0.027556  -0.069945
     2  C   -0.401906  -0.273635
     3  S    0.071712   0.033114
     4  C   -0.640849  -0.018138
     5  C   -0.151915  -0.064004
     6  N    0.191105   0.024924
     7  C   -0.394385  -0.029943
     8  C   -0.292880  -0.050400
     9  N   -0.134529  -0.002913
    10  C   -0.385470   0.154361
    11  O   -0.379656   0.065346
    12  C   -0.078889   0.292976
    13  C    0.121390   0.059735
    14  C    1.132847  -0.139140
    15  C   -0.147572   0.008923
    16  C   -0.133759  -0.158142
    17  C   -0.331858   0.182825
    18  C   -0.652320  -0.001238
    19  C   -0.379789   0.128992
    20  N   -0.317921  -0.006735
    21  H   -0.046254   0.209588
    22  H    0.110919  -0.033336
    23  H    0.024357   0.168977
    24  H    0.167600   0.024446
    25  H    0.175089   0.012008
    26  H    0.195561  -0.003001
    27  H    0.185904   0.015035
    28  H    0.031975   0.015203
    29  H    0.237377  -0.003238
    30  H    0.085254   0.057824
    31  H    0.145578   0.044077
    32  H    0.101893   0.071921
    33  H    0.293042   0.006759
    34  H    0.177880  -0.003976
    35  H   -0.090636  -0.020091
    36  H    0.076258  -0.005416
    37  H    0.116705   0.008181
    38  H    0.106406   0.018826
    39  H    0.076987  -0.009821
    40  H    0.081010   0.144854
    41  H    0.081294   0.144216
 Sum of Mulliken charges =  -1.00000   1.00000

 Dipole moment (field-independent basis, Debye):
    X=             -6.1462    Y=             -5.0937    Z=             -0.6762  Tot=              8.0112
 Quadrupole moment (field-independent basis, Debye-Ang):
   XX=           -225.4010   YY=           -169.4586   ZZ=           -144.0532
   XY=              4.9758   XZ=              1.4276   YZ=             -8.8339

 Summary of Natural Population Analysis:

                                       Natural Population
                Natural  -----------------------------------------------
    Atom  No    Charge         Core      Valence    Rydberg      Total
 -----------------------------------------------------------------------
      C    1   -0.09459      0.99960     2.08013    0.01486     3.09459
      C    2   -0.25478      0.99959     2.24234    0.01285     3.25478
      S    3    0.08158      4.99964     2.90084    0.01793     7.91842
      C    4   -0.25077      0.99959     2.24194    0.00924     3.25077
      C    5   -0.08874      0.99961     2.07853    0.01061     3.08874
      N    6   -0.28746      0.99970     2.77383    0.01393     3.78746
      C    7   -0.08360      0.99961     2.07185    0.01214     3.08360
      C    8   -0.10305      0.99961     2.09300    0.01043     3.10305
      N    9   -0.33454      0.99967     2.82493    0.00994     3.83454
      C   10    0.34103      0.99965     1.63679    0.02254     2.65897
      O   11   -0.31514      0.99988     3.30919    0.00608     4.31514
      C   12   -0.11690      0.99949     2.10925    0.00816     3.11690
      C   13   -0.03459      0.99952     2.02732    0.00775     3.03459
      C   14   -0.05888      0.99950     2.04980    0.00957     3.05888
      C   15   -0.06139      0.99954     2.05443    0.00741     3.06139
      C   16   -0.15062      0.99953     2.14130    0.00979     3.15062
      C   17    0.12364      0.99950     1.86608    0.01078     2.87636
      C   18   -0.14863      0.99954     2.13952    0.00957     3.14863
      C   19   -0.04040      0.99954     2.03252    0.00834     3.04040
      N   20   -0.39518      0.99972     2.88600    0.00947     3.89518
      H   21    0.09976      0.00000     0.39881    0.00143     0.40024
      H   22    0.08372      0.00000     0.41414    0.00215     0.41628
      H   23    0.10632      0.00000     0.39268    0.00100     0.39368
      H   24    0.10078      0.00000     0.39742    0.00180     0.39922
      H   25    0.10049      0.00000     0.39773    0.00178     0.39951
      H   26    0.10594      0.00000     0.39297    0.00109     0.39406
      H   27    0.10446      0.00000     0.39419    0.00136     0.39554
      H   28    0.08473      0.00000     0.41282    0.00245     0.41527
      H   29    0.09801      0.00000     0.40075    0.00124     0.40199
      H   30    0.09253      0.00000     0.40642    0.00106     0.40747
      H   31    0.11380      0.00000     0.38492    0.00128     0.38620
      H   32    0.08686      0.00000     0.41210    0.00104     0.41314
      H   33    0.18348      0.00000     0.31311    0.00341     0.31652
      H   34    0.09614      0.00000     0.40287    0.00099     0.40386
      H   35    0.08133      0.00000     0.41639    0.00227     0.41867
      H   36    0.09119      0.00000     0.40758    0.00122     0.40881
      H   37    0.09239      0.00000     0.40664    0.00097     0.40761
      H   38    0.09229      0.00000     0.40680    0.00092     0.40771
      H   39    0.09503      0.00000     0.40376    0.00121     0.40497
      H   40    0.18187      0.00000     0.31650    0.00164     0.31813
      H   41    0.18189      0.00000     0.31641    0.00171     0.31811
 =======================================================================
   * Total *    0.00000     23.99204    53.75458    0.25338    78.00000

 Normal termination of Gaussian 16 at Sun Dec 13 14:13:23 2020.
