 Gaussian 16, Revision A.03,

 -----------------------------------------------------------
 # opt freq B3LYP/6-31G(d) empiricaldispersion=gd3bj scf=xqc
 -----------------------------------------------------------

 ------------------------------
 CID_152295412_JID_678_neutraal
 ------------------------------
 Symbolic Z-matrix:
 Charge =  0 Multiplicity = 1

 SCF Done:  E(RB3LYP) =  -454.831491655     A.U. after   15 cycles
 SCF Done:  E(RB3LYP) =  -454.835337583     A.U. after   13 cycles
 SCF Done:  E(RB3LYP) =  -454.836459551     A.U. after   13 cycles
 SCF Done:  E(RB3LYP) =  -454.837164390     A.U. after   13 cycles
 SCF Done:  E(RB3LYP) =  -454.837281723     A.U. after   12 cycles
 SCF Done:  E(RB3LYP) =  -454.837342059     A.U. after   12 cycles
 SCF Done:  E(RB3LYP) =  -454.837363064     A.U. after   11 cycles
 SCF Done:  E(RB3LYP) =  -454.837370158     A.U. after    9 cycles
 SCF Done:  E(RB3LYP) =  -454.837373241     A.U. after    9 cycles
 SCF Done:  E(RB3LYP) =  -454.837374283     A.U. after    8 cycles
 SCF Done:  E(RB3LYP) =  -454.837374894     A.U. after    8 cycles
 SCF Done:  E(RB3LYP) =  -454.837374972     A.U. after    8 cycles
 Optimization completed.
    -- Stationary point found.

 1\1\GINC-NODE367\FOpt\RB3LYP\6-31G(d)\C6H12N4\VSC10255\14-Dec-2020\0\\
 # opt freq B3LYP/6-31G(d) empiricaldispersion=gd3bj scf=xqc\\CID_15229
 5412_JID_678_neutraal\\0,1\C,0.9424546453,-0.0266392519,-0.0986829813\
 C,0.4427337268,1.3919588518,0.1497699719\C,1.0023243942,2.03451994,1.4
 425273057\C,0.8024619946,3.5605385188,1.2597908909\C,0.6232838748,3.78
 5841096,-0.2722421901\C,0.8878659833,2.4182863916,-0.9325951782\N,2.30
 64892677,2.2226934571,-1.3349032021\N,3.1719882919,2.767291858,-0.6498
 424099\N,4.0645632433,3.2289360389,-0.101205902\N,-1.0332769701,1.3658

 Normal termination of Gaussian 16 at Mon Dec 14 13:05:28 2020.

 --------------------------------------------------------------------
 #N Geom=AllCheck Guess=TCheck SCRF=Check GenChk RB3LYP/6-31G(d) Freq
 --------------------------------------------------------------------

 Structure from the checkpoint file:  "JID_678.chk"
 ------------------------------
 CID_152295412_JID_678_neutraal
 ------------------------------
 Charge =  0 Multiplicity = 1

 SCF Done:  E(RB3LYP) =  -454.837374972     A.U. after    1 cycles

  Exact polarizability: 100.412   3.256  77.187   9.611   0.502  75.386
 Approx polarizability: 163.989  12.752 109.225  39.328  10.589 129.410

                      1                      2                      3
                      A                      A                      A
 Frequencies --     48.4934                93.6285               142.1932
 Red. masses --      7.0499                 2.7340                 2.3735
 Frc consts  --      0.0098                 0.0141                 0.0283
 IR Inten    --      0.1930                 1.6440                 1.2583

                      4                      5                      6
                      A                      A                      A
 Frequencies --    181.5652               219.3409               243.7239
 Red. masses --      2.7768                 1.2703                 1.8602
 Frc consts  --      0.0539                 0.0360                 0.0651
 IR Inten    --      8.5911                 4.4427                 8.9900

                      7                      8                      9
                      A                      A                      A
 Frequencies --    262.6520               325.7940               349.2378
 Red. masses --      1.5308                 2.3183                 3.3674
 Frc consts  --      0.0622                 0.1450                 0.2420
 IR Inten    --     31.7572                 2.5438                 0.2211

                     10                     11                     12
                      A                      A                      A
 Frequencies --    394.6955               435.8395               482.1174
 Red. masses --      2.7586                 3.3982                 2.7605
 Frc consts  --      0.2532                 0.3803                 0.3780
 IR Inten    --      2.4275                 9.6562                 1.5068

                     13                     14                     15
                      A                      A                      A
 Frequencies --    567.6822               588.5090               660.5886
 Red. masses --     13.6643                 3.5798                 4.9625
 Frc consts  --      2.5945                 0.7305                 1.2759
 IR Inten    --      9.9179                 1.6409                12.8250

                     16                     17                     18
                      A                      A                      A
 Frequencies --    732.1187               770.3300               790.8193
 Red. masses --      1.8484                 2.4446                 2.8421
 Frc consts  --      0.5837                 0.8547                 1.0472
 IR Inten    --      0.7432                 5.2308                 5.4776

                     19                     20                     21
                      A                      A                      A
 Frequencies --    862.1910               878.0822               898.7740
 Red. masses --      2.2802                 2.3177                 2.4442
 Frc consts  --      0.9987                 1.0529                 1.1633
 IR Inten    --     42.1837                78.9179                 0.5401

                     22                     23                     24
                      A                      A                      A
 Frequencies --    925.9115               949.7456               977.2345
 Red. masses --      1.7910                 2.2382                 1.6195
 Frc consts  --      0.9047                 1.1895                 0.9112
 IR Inten    --     27.5479                 7.4764                23.9907

                     25                     26                     27
                      A                      A                      A
 Frequencies --   1009.3189              1043.0037              1063.3122
 Red. masses --      1.8905                 2.2277                 1.8096
 Frc consts  --      1.1347                 1.4278                 1.2054
 IR Inten    --      2.8109                 3.0755                 3.2531

                     28                     29                     30
                      A                      A                      A
 Frequencies --   1068.2749              1143.6709              1189.7050
 Red. masses --      1.5113                 1.4832                 2.2675
 Frc consts  --      1.0162                 1.1430                 1.8910
 IR Inten    --      0.6871                10.5699                13.3997

                     31                     32                     33
                      A                      A                      A
 Frequencies --   1219.3013              1257.7054              1272.7621
 Red. masses --      1.3748                 1.7817                 1.3674
 Frc consts  --      1.2042                 1.6605                 1.3051
 IR Inten    --      1.6962                10.0409                 0.0686

                     34                     35                     36
                      A                      A                      A
 Frequencies --   1278.8005              1319.2365              1330.4735
 Red. masses --      1.2503                 2.3617                 1.5218
 Frc consts  --      1.2046                 2.4217                 1.5871
 IR Inten    --      2.3915                73.1708                 3.2135

                     37                     38                     39
                      A                      A                      A
 Frequencies --   1337.3347              1351.3818              1395.3759
 Red. masses --      1.4546                 1.5269                 1.8927
 Frc consts  --      1.5327                 1.6430                 2.1713
 IR Inten    --      2.9134                 2.2812                 8.2487

                     40                     41                     42
                      A                      A                      A
 Frequencies --   1399.8715              1440.0854              1517.4144
 Red. masses --      1.7418                 1.3164                 1.0604
 Frc consts  --      2.0111                 1.6084                 1.4385
 IR Inten    --     31.2232                 7.3957                 1.1471

                     43                     44                     45
                      A                      A                      A
 Frequencies --   1521.4359              1525.4020              1530.1693
 Red. masses --      1.0671                 1.0710                 1.0624
 Frc consts  --      1.4553                 1.4683                 1.4656
 IR Inten    --      0.1334                 8.2660                 4.5150

                     46                     47                     48
                      A                      A                      A
 Frequencies --   1546.3199              1699.6122              2249.6768
 Red. masses --      1.0963                 1.0899                13.8379
 Frc consts  --      1.5444                 1.8549                41.2630
 IR Inten    --      8.3381                29.6333               458.1676

                     49                     50                     51
                      A                      A                      A
 Frequencies --   3050.9846              3059.2567              3069.1665
 Red. masses --      1.0428                 1.0604                 1.0669
 Frc consts  --      5.7190                 5.8474                 5.9212
 IR Inten    --     18.3880                36.2698                20.4346

                     52                     53                     54
                      A                      A                      A
 Frequencies --   3080.9687              3098.3080              3109.2997
 Red. masses --      1.0644                 1.0985                 1.1046
 Frc consts  --      5.9531                 6.2131                 6.2918
 IR Inten    --     26.3673                23.1686                 1.9570

                     55                     56                     57
                      A                      A                      A
 Frequencies --   3118.2062              3126.7975              3145.0633
 Red. masses --      1.0969                 1.1040                 1.0879
 Frc consts  --      6.2836                 6.3596                 6.3400
 IR Inten    --     20.7728                36.2433                16.1132

                     58                     59                     60
                      A                      A                      A
 Frequencies --   3155.3399              3462.5571              3545.6694
 Red. masses --      1.1008                 1.0496                 1.0919
 Frc consts  --      6.4573                 7.4141                 8.0876
 IR Inten    --     21.6440                 2.0310                 0.6727

 - Thermochemistry -
 -------------------
 Temperature   298.150 Kelvin.  Pressure   1.00000 Atm.
 Atom     1 has atomic number  6 and mass  12.00000

 Molecular mass:   140.10620 amu.
 Principal axes and moments of inertia in atomic units:
                           1         2         3
     Eigenvalues --   869.627781531.246981795.77386
           X            0.99927   0.03564  -0.01398
           Y           -0.03610   0.99877  -0.03400
           Z            0.01275   0.03448   0.99932
 This molecule is an asymmetric top.
 Rotational symmetry number  1.
 Warning -- assumption of classical behavior for rotation
           may cause significant error
 Rotational temperatures (Kelvin)      0.09960     0.05656     0.04823
 Rotational constants (GHZ):           2.07530     1.17861     1.00499
 Zero-point vibrational energy     499515.9 (Joules/Mol)
                                  119.38716 (Kcal/Mol)
 Warning -- explicit consideration of  14 degrees of freedom as
           vibrations may cause significant error
 Vibrational temperatures:     69.77   134.71   204.58   261.23   315.58
          (Kelvin)            350.66   377.90   468.74   502.48   567.88
                              627.08   693.66   816.77   846.73   950.44
                             1053.36  1108.33  1137.81  1240.50  1263.36
                             1293.14  1332.18  1366.47  1406.02  1452.18
                             1500.65  1529.87  1537.01  1645.49  1711.72
                             1754.30  1809.56  1831.22  1839.91  1898.09
                             1914.25  1924.13  1944.34  2007.63  2014.10
                             2071.96  2183.22  2189.01  2194.71  2201.57
                             2224.81  2445.36  3236.78  4389.69  4401.59
                             4415.85  4432.83  4457.77  4473.59  4486.40
                             4498.76  4525.04  4539.83  4981.85  5101.43

 Zero-point correction=                           0.190256 (Hartree/Particle)
 Thermal correction to Energy=                    0.200348
 Thermal correction to Enthalpy=                  0.201292
 Thermal correction to Gibbs Free Energy=         0.154974
 Sum of electronic and zero-point Energies=           -454.647119
 Sum of electronic and thermal Energies=              -454.637027
 Sum of electronic and thermal Enthalpies=            -454.636083
 Sum of electronic and thermal Free Energies=         -454.682401

                     E (Thermal)             CV                S
                      KCal/Mol        Cal/Mol-Kelvin    Cal/Mol-Kelvin
 Total                  125.720             38.126             97.484
 Electronic               0.000              0.000              0.000
 Translational            0.889              2.981             40.723
 Rotational               0.889              2.981             29.260
 Vibrational            123.943             32.164             27.501
 Vibration     1          0.595              1.978              4.878
 Vibration     2          0.603              1.954              3.583
 Vibration     3          0.616              1.911              2.774
 Vibration     4          0.630              1.865              2.312
 Vibration     5          0.647              1.812              1.965
 Vibration     6          0.659              1.773              1.776
 Vibration     7          0.670              1.741              1.644
 Vibration     8          0.710              1.624              1.281
 Vibration     9          0.727              1.577              1.170
 Vibration    10          0.762              1.482              0.982
 Vibration    11          0.796              1.392              0.840
 Vibration    12          0.838              1.290              0.704
 Vibration    13          0.924              1.101              0.509
 Vibration    14          0.946              1.056              0.470

 Optimization completed.
    -- Stationary point found.

 1\1\GINC-NODE367\Freq\RB3LYP\6-31G(d)\C6H12N4\VSC10255\14-Dec-2020\0\\
 #N Geom=AllCheck Guess=TCheck SCRF=Check GenChk RB3LYP/6-31G(d) Freq\\
 CID_152295412_JID_678_neutraal\\0,1\C,0.9424546453,-0.0266392519,-0.09
 86829813\C,0.4427337268,1.3919588518,0.1497699719\C,1.0023243942,2.034
 51994,1.4425273057\C,0.8024619946,3.5605385188,1.2597908909\C,0.623283
 8748,3.785841096,-0.2722421901\C,0.8878659833,2.4182863916,-0.93259517
 82\N,2.3064892677,2.2226934571,-1.3349032021\N,3.1719882919,2.76729185
 8,-0.6498424099\N,4.0645632433,3.2289360389,-0.101205902\N,-1.03327697

 Normal termination of Gaussian 16 at Mon Dec 14 13:09:28 2020.

 ----------------------------------------------------------------------
 # B3LYP/6-311++G(d,p) empiricaldispersion=gd3bj scf=xqc pop=npa geom=c
 heck
 ----------------------------------------------------------------------

 --------------------------------------
 CID_152295412_JID_678_Energie_neutraal
 --------------------------------------
 Structure from the checkpoint file:  "JID_678.chk"
 Charge =  0 Multiplicity = 1

 SCF Done:  E(RB3LYP) =  -454.970424410     A.U. after   15 cycles
 Normal termination of Gaussian 16 at Mon Dec 14 13:10:52 2020.

 ----------------------------------------------------------------------
 # B3LYP/6-311++G(d,p) empiricaldispersion=gd3bj scf=xqc pop=npa geom=c
 heck
 ----------------------------------------------------------------------

 ------------------------------------
 CID_152295412_JID_678_Energie_kation
 ------------------------------------
 Structure from the checkpoint file:  "JID_678.chk"
 Charge =  1 Multiplicity = 2

 SCF Done:  E(UB3LYP) =  -454.647001758     A.U. after   22 cycles
 Normal termination of Gaussian 16 at Mon Dec 14 13:13:35 2020.
 Gaussian 16:  ES64L-G16RevA.03 25-Dec-2016

 -----------------------------------
 CID_152295412_JID_678_Energie_anion
 -----------------------------------
 Structure from the checkpoint file:  "JID_678.chk"
 Charge = -1 Multiplicity = 2

                         Standard orientation:
 ---------------------------------------------------------------------
 Center     Atomic      Atomic             Coordinates (Angstroms)
 Number     Number       Type             X           Y           Z
 ---------------------------------------------------------------------
      1          6           0       -1.314830   -1.821499    0.426662
      2          6           0       -1.108857   -0.349602    0.087597
      3          6           0       -0.559695    0.492348    1.265217
      4          6           0        0.034738    1.766887    0.613858
      5          6           0        0.272441    1.407873   -0.884340
      6          6           0       -0.034558   -0.097506   -1.010280
      7          7           0        1.162777   -0.960615   -0.825803
      8          7           0        2.039701   -0.560350   -0.060442
      9          7           0        2.925281   -0.294262    0.614653
     10          7           0       -2.379603    0.172191   -0.454613
     11          1           0       -1.700412   -2.362547   -0.443154
     12          1           0       -2.040360   -1.924925    1.243330
     13          1           0       -0.378735   -2.288208    0.740507
     14          1           0       -1.344578    0.710681    1.997333
     15          1           0        0.222506   -0.064430    1.794701
     16          1           0        0.963098    2.065938    1.107982
     17          1           0       -0.652220    2.615082    0.700070
     18          1           0        1.285476    1.642802   -1.224179
     19          1           0       -0.409421    1.963516   -1.535743
     20          1           0       -0.428981   -0.376867   -1.987421
     21          1           0       -3.131983   -0.061072    0.192458
     22          1           0       -2.356913    1.190275   -0.494733
 ---------------------------------------------------------------------

 SCF Done:  E(UB3LYP) =  -454.959373006     A.U. after   30 cycles

 The electronic state is 2-A.
 Alpha  occ. eigenvalues --  -14.34164 -14.24055 -14.22881 -14.17330 -10.09521
 Alpha  occ. eigenvalues --  -10.09193 -10.05964 -10.05585 -10.04877 -10.04292
 Alpha  occ. eigenvalues --   -1.00734  -0.85159  -0.78430  -0.69624  -0.62499
 Alpha  occ. eigenvalues --   -0.61473  -0.55261  -0.48862  -0.45560  -0.40437
 Alpha  occ. eigenvalues --   -0.39385  -0.38097  -0.36363  -0.34796  -0.33667
 Alpha  occ. eigenvalues --   -0.32715  -0.31023  -0.30026  -0.27848  -0.25750
 Alpha  occ. eigenvalues --   -0.24461  -0.23401  -0.22588  -0.22453  -0.21755
 Alpha  occ. eigenvalues --   -0.17170  -0.13554  -0.12104   0.05077
 Alpha virt. eigenvalues --    0.07593   0.08463   0.09464   0.10030   0.10872
 Alpha virt. eigenvalues --    0.11409   0.11744   0.12149   0.12926   0.13988
 Alpha virt. eigenvalues --    0.14132   0.15388   0.15597   0.16672   0.17245

  Beta  occ. eigenvalues --  -14.33978 -14.23781 -14.22918 -14.17272 -10.09463
  Beta  occ. eigenvalues --  -10.09194 -10.05944 -10.05567 -10.04853 -10.04264
  Beta  occ. eigenvalues --   -1.00356  -0.84965  -0.78358  -0.69534  -0.62428
  Beta  occ. eigenvalues --   -0.61376  -0.55178  -0.48752  -0.45465  -0.40016
  Beta  occ. eigenvalues --   -0.39296  -0.37853  -0.36180  -0.34442  -0.33610
  Beta  occ. eigenvalues --   -0.32279  -0.30786  -0.29979  -0.27791  -0.25656
  Beta  occ. eigenvalues --   -0.24337  -0.23354  -0.22538  -0.22418  -0.21708
  Beta  occ. eigenvalues --   -0.16691  -0.13489  -0.12032
  Beta virt. eigenvalues --    0.08051   0.09017   0.09436   0.10245   0.10495
  Beta virt. eigenvalues --    0.11450   0.11744   0.12020   0.12569   0.13333
  Beta virt. eigenvalues --    0.14266   0.14498   0.15625   0.16126   0.16771

 Mulliken charges and spin densities:
               1          2
     1  C    0.461879  -0.977023
     2  C   -0.725505   0.619241
     3  C   -0.167683  -0.425021
     4  C    0.498652  -0.678022
     5  C   -0.638384  -0.084392
     6  C    1.567570  -1.246588
     7  N   -0.039413  -0.009489
     8  N    0.176106   0.164481
     9  N   -0.434110   0.094531
    10  N   -0.278877   0.005310
    11  H   -0.007766   0.165735
    12  H   -0.382080   0.527669
    13  H   -0.000347   0.140228
    14  H   -0.420932   0.610891
    15  H    0.170801  -0.047626
    16  H    0.210303  -0.081683
    17  H   -0.478743   0.654469
    18  H    0.102851   0.039133
    19  H   -0.142804   0.305827
    20  H   -0.082428   0.353029
    21  H   -0.291360   0.529873
    22  H   -0.097730   0.339426
 Sum of Mulliken charges =  -1.00000   1.00000

 Dipole moment (field-independent basis, Debye):
    X=              4.5816    Y=             -0.6830    Z=             -0.8588  Tot=              4.7112
 Quadrupole moment (field-independent basis, Debye-Ang):
   XX=           -116.2215   YY=            -92.0881   ZZ=            -89.0457
   XY=              7.7027   XZ=              2.2041   YZ=             -1.9248

 Summary of Natural Population Analysis:

                                       Natural Population
                Natural  -----------------------------------------------
    Atom  No    Charge         Core      Valence    Rydberg      Total
 -----------------------------------------------------------------------
      C    1   -0.28696      0.99961     2.27994    0.00742     3.28696
      C    2    0.05079      0.99954     1.93389    0.01578     2.94921
      C    3   -0.20211      0.99958     2.19253    0.01000     3.20211
      C    4   -0.19997      0.99965     2.19162    0.00871     3.19997
      C    5   -0.20455      0.99962     2.19660    0.00833     3.20455
      C    6   -0.01072      0.99949     1.99546    0.01577     3.01072
      N    7   -0.19408      0.99969     2.67965    0.01474     3.69408
      N    8    0.12611      0.99970     2.35801    0.01618     3.37389
      N    9   -0.03855      0.99982     2.52601    0.01272     3.53855
      N   10   -0.42905      0.99975     2.91776    0.01154     3.92905
      H   11    0.10363      0.00000     0.39533    0.00104     0.39637
      H   12    0.09957      0.00000     0.39925    0.00118     0.40043
      H   13    0.10543      0.00000     0.39348    0.00109     0.39457
      H   14    0.10685      0.00000     0.39088    0.00226     0.39315
      H   15    0.09881      0.00000     0.39985    0.00134     0.40119
      H   16    0.09964      0.00000     0.39938    0.00098     0.40036
      H   17    0.10136      0.00000     0.39692    0.00172     0.39864
      H   18    0.10228      0.00000     0.39689    0.00083     0.39772
      H   19    0.10618      0.00000     0.39265    0.00117     0.39382
      H   20    0.10743      0.00000     0.39106    0.00151     0.39257
      H   21    0.17971      0.00000     0.31479    0.00550     0.32029
      H   22    0.17821      0.00000     0.31653    0.00526     0.32179
 =======================================================================
   * Total *   -0.00000      9.99644    27.85848    0.14508    38.00000

 Normal termination of Gaussian 16 at Mon Dec 14 13:17:16 2020.
