 Gaussian 16, Revision A.03,

 -----------------------------------------------------------
 # opt freq B3LYP/6-31G(d) empiricaldispersion=gd3bj scf=xqc
 -----------------------------------------------------------

 ------------------------------
 CID_130477543_JID_215_neutraal
 ------------------------------
 Symbolic Z-matrix:
 Charge =  0 Multiplicity = 1

 SCF Done:  E(RB3LYP) =  -407.938113401     A.U. after   13 cycles
 SCF Done:  E(RB3LYP) =  -407.941274603     A.U. after   11 cycles
 SCF Done:  E(RB3LYP) =  -407.941550272     A.U. after   11 cycles
 SCF Done:  E(RB3LYP) =  -407.941615703     A.U. after   10 cycles
 SCF Done:  E(RB3LYP) =  -407.941635889     A.U. after   10 cycles
 SCF Done:  E(RB3LYP) =  -407.941642501     A.U. after    9 cycles
 SCF Done:  E(RB3LYP) =  -407.941643791     A.U. after    8 cycles
 SCF Done:  E(RB3LYP) =  -407.941644144     A.U. after    7 cycles
 SCF Done:  E(RB3LYP) =  -407.941644296     A.U. after    7 cycles
 SCF Done:  E(RB3LYP) =  -407.941644374     A.U. after    7 cycles
 SCF Done:  E(RB3LYP) =  -407.941644437     A.U. after    7 cycles
 SCF Done:  E(RB3LYP) =  -407.941644482     A.U. after    7 cycles
 SCF Done:  E(RB3LYP) =  -407.941644513     A.U. after    7 cycles
 SCF Done:  E(RB3LYP) =  -407.941644534     A.U. after    7 cycles
 SCF Done:  E(RB3LYP) =  -407.941644546     A.U. after    6 cycles
 Optimization completed.
    -- Stationary point found.

 1\1\GINC-NODE125\FOpt\RB3LYP\6-31G(d)\C9H17N1\VSC10255\08-Dec-2020\0\\
 # opt freq B3LYP/6-31G(d) empiricaldispersion=gd3bj scf=xqc\\CID_13047
 7543_JID_215_neutraal\\0,1\C,1.082796214,0.0677005506,0.0015590227\C,0
 .5500029886,-0.0001233761,-1.3998321196\C,-0.2056656723,-0.9856380674,
 -1.8889176393\C,-0.7273585015,-1.0381027552,-3.2957778248\N,-0.2865027
 355,-2.2737378639,-3.9496317171\C,-0.8208492734,-2.4703195774,-5.30758
 87471\C,-0.3640882514,-1.4598640368,-6.3302870229\C,0.5145500879,-1.64
 24480714,-7.3280932288\C,0.8944956053,-0.5039854059,-8.2426402065\C,1.

 Normal termination of Gaussian 16 at Tue Dec  8 10:22:04 2020.

 --------------------------------------------------------------------
 #N Geom=AllCheck Guess=TCheck SCRF=Check GenChk RB3LYP/6-31G(d) Freq
 --------------------------------------------------------------------

 Structure from the checkpoint file:  "JID_215.chk"
 ------------------------------
 CID_130477543_JID_215_neutraal
 ------------------------------
 Charge =  0 Multiplicity = 1

 SCF Done:  E(RB3LYP) =  -407.941644546     A.U. after    1 cycles

  Exact polarizability: 138.223  -0.494  99.068   4.283   1.369  83.590
 Approx polarizability: 161.704  -0.494 147.558  10.015   5.019 122.589

                      1                      2                      3
                      A                      A                      A
 Frequencies --     16.3388                41.9406                73.4858
 Red. masses --      3.0965                 2.7341                 1.8931
 Frc consts  --      0.0005                 0.0028                 0.0060
 IR Inten    --      0.1855                 0.3094                 0.3142

                      4                      5                      6
                      A                      A                      A
 Frequencies --     82.0780               139.3367               153.1520
 Red. masses --      2.9584                 1.9096                 1.1911
 Frc consts  --      0.0117                 0.0218                 0.0165
 IR Inten    --      0.1178                 0.1255                 0.2568

                      7                      8                      9
                      A                      A                      A
 Frequencies --    167.2352               206.3443               216.7656
 Red. masses --      1.6383                 1.3036                 1.4918
 Frc consts  --      0.0270                 0.0327                 0.0413
 IR Inten    --      0.8420                 1.3266                 1.6290

                     10                     11                     12
                      A                      A                      A
 Frequencies --    248.3415               284.3933               337.2342
 Red. masses --      2.8738                 2.2818                 2.2892
 Frc consts  --      0.1044                 0.1087                 0.1534
 IR Inten    --      1.3881                 1.9714                 1.8312

                     13                     14                     15
                      A                      A                      A
 Frequencies --    369.0109               403.5248               433.5000
 Red. masses --      2.4723                 2.4624                 2.5714
 Frc consts  --      0.1983                 0.2362                 0.2847
 IR Inten    --      2.3584                 1.0491                 4.3996

                     16                     17                     18
                      A                      A                      A
 Frequencies --    494.3752               526.7917               580.6799
 Red. masses --      2.6833                 2.4493                 2.5061
 Frc consts  --      0.3864                 0.4005                 0.4979
 IR Inten    --      0.3789                 4.0996                 3.5578

                     19                     20                     21
                      A                      A                      A
 Frequencies --    762.2834               781.1572               829.2816
 Red. masses --      1.6810                 1.7511                 1.5396
 Frc consts  --      0.5755                 0.6296                 0.6238
 IR Inten    --     35.5888                 2.7070                72.9328

                     22                     23                     24
                      A                      A                      A
 Frequencies --    877.8995               916.9225               934.6296
 Red. masses --      1.5534                 1.8235                 2.0501
 Frc consts  --      0.7054                 0.9033                 1.0551
 IR Inten    --     10.0395                 0.6660                 8.4605

                     25                     26                     27
                      A                      A                      A
 Frequencies --    974.2073               980.4560              1015.0808
 Red. masses --      1.4079                 1.4738                 1.0771
 Frc consts  --      0.7873                 0.8347                 0.6539
 IR Inten    --      1.8032                16.2084                28.0154

                     28                     29                     30
                      A                      A                      A
 Frequencies --   1029.5351              1036.4249              1079.6004
 Red. masses --      1.3086                 2.0182                 1.5392
 Frc consts  --      0.8172                 1.2773                 1.0570
 IR Inten    --      7.1860                13.8761                 0.4580

                     31                     32                     33
                      A                      A                      A
 Frequencies --   1094.9377              1106.8367              1118.9533
 Red. masses --      3.3720                 1.8241                 1.6648
 Frc consts  --      2.3819                 1.3166                 1.2281
 IR Inten    --      8.8352                 2.3849                 0.2569

                     34                     35                     36
                      A                      A                      A
 Frequencies --   1128.5023              1144.4133              1168.7101
 Red. masses --      3.1316                 2.2735                 1.9761
 Frc consts  --      2.3497                 1.7543                 1.5903
 IR Inten    --     52.3189                 7.1766                 4.7269

                     37                     38                     39
                      A                      A                      A
 Frequencies --   1216.9826              1260.9870              1307.8939
 Red. masses --      1.5805                 1.6969                 1.2775
 Frc consts  --      1.3792                 1.5898                 1.2876
 IR Inten    --      3.1094                 2.0760                18.5964

                     40                     41                     42
                      A                      A                      A
 Frequencies --   1334.9242              1353.3939              1361.4237
 Red. masses --      1.2459                 1.2636                 1.2623
 Frc consts  --      1.3081                 1.3637                 1.3785
 IR Inten    --      1.8720                 5.6941                18.1516

                     43                     44                     45
                      A                      A                      A
 Frequencies --   1411.4012              1413.7515              1439.6742
 Red. masses --      1.3826                 1.2884                 1.3487
 Frc consts  --      1.6227                 1.5172                 1.6470
 IR Inten    --      6.1601                 5.7998                 7.7969

                     46                     47                     48
                      A                      A                      A
 Frequencies --   1442.1961              1449.9807              1499.2475
 Red. masses --      1.2672                 1.2510                 1.0933
 Frc consts  --      1.5529                 1.5496                 1.4478
 IR Inten    --      1.1413                 1.2164                 6.3074

                     49                     50                     51
                      A                      A                      A
 Frequencies --   1502.1911              1510.4302              1510.9746
 Red. masses --      1.0471                 1.0551                 1.1574
 Frc consts  --      1.3922                 1.4182                 1.5569
 IR Inten    --      0.3480                 9.6741                22.6319

                     52                     53                     54
                      A                      A                      A
 Frequencies --   1520.8673              1522.1723              1522.9000
 Red. masses --      1.0486                 1.0530                 1.0657
 Frc consts  --      1.4291                 1.4375                 1.4562
 IR Inten    --     14.7113                 8.0055                 7.9785

                     55                     56                     57
                      A                      A                      A
 Frequencies --   1530.6003              1534.6490              1750.5437
 Red. masses --      1.0857                 1.0854                 6.2179
 Frc consts  --      1.4986                 1.5061                11.2263
 IR Inten    --      4.4512                 2.9441                 9.2827

                     58                     59                     60
                      A                      A                      A
 Frequencies --   1762.9208              2961.7297              3023.4748
 Red. masses --      5.8752                 1.0685                 1.0903
 Frc consts  --     10.7581                 5.5224                 5.8721
 IR Inten    --      3.4460                48.6360                31.9671

                     61                     62                     63
                      A                      A                      A
 Frequencies --   3024.8124              3031.2273              3033.5379
 Red. masses --      1.0390                 1.0376                 1.0421
 Frc consts  --      5.6011                 5.6171                 5.6504
 IR Inten    --     26.7249                43.0463                59.6322

                     64                     65                     66
                      A                      A                      A
 Frequencies --   3040.5944              3069.0521              3074.3798
 Red. masses --      1.0666                 1.0998                 1.0994
 Frc consts  --      5.8101                 6.1034                 6.1222
 IR Inten    --     40.7868                 9.9001                41.7413

                     67                     68                     69
                      A                      A                      A
 Frequencies --   3076.9016              3099.4454              3115.6239
 Red. masses --      1.1000                 1.0955                 1.0973
 Frc consts  --      6.1360                 6.2007                 6.2758
 IR Inten    --     27.3897                26.9410                 6.7847

                     70                     71                     72
                      A                      A                      A
 Frequencies --   3123.9634              3136.9804              3144.7432
 Red. masses --      1.0992                 1.0918                 1.0882
 Frc consts  --      6.3205                 6.3304                 6.3407
 IR Inten    --     18.2731                30.2088                26.9876

                     73                     74                     75
                      A                      A                      A
 Frequencies --   3149.5680              3155.8747              3478.8401
 Red. masses --      1.0945                 1.0883                 1.0738
 Frc consts  --      6.3968                 6.3862                 7.6564
 IR Inten    --     32.8984                33.3731                 1.0142

 - Thermochemistry -
 -------------------
 Temperature   298.150 Kelvin.  Pressure   1.00000 Atm.
 Atom     1 has atomic number  6 and mass  12.00000

 Molecular mass:   139.13610 amu.
 Principal axes and moments of inertia in atomic units:
                           1         2         3
     Eigenvalues --   689.577264218.268074463.51943
           X            1.00000  -0.00004   0.00064
           Y            0.00005   0.99984  -0.01774
           Z           -0.00063   0.01774   0.99984
 This molecule is an asymmetric top.
 Rotational symmetry number  1.
 Warning -- assumption of classical behavior for rotation
           may cause significant error
 Rotational temperatures (Kelvin)      0.12560     0.02053     0.01940
 Rotational constants (GHZ):           2.61717     0.42784     0.40433
 Zero-point vibrational energy     643921.2 (Joules/Mol)
                                  153.90086 (Kcal/Mol)
 Warning -- explicit consideration of  18 degrees of freedom as
           vibrations may cause significant error
 Vibrational temperatures:     23.51    60.34   105.73   118.09   200.47
          (Kelvin)            220.35   240.61   296.88   311.88   357.31
                              409.18   485.20   530.92   580.58   623.71
                              711.30   757.94   835.47  1096.76  1123.91
                             1193.15  1263.10  1319.25  1344.72  1401.67
                             1410.66  1460.47  1481.27  1491.18  1553.30
                             1575.37  1592.49  1609.92  1623.66  1646.56
                             1681.51  1750.97  1814.28  1881.77  1920.66
                             1947.23  1958.79  2030.69  2034.07  2071.37
                             2075.00  2086.20  2157.08  2161.32  2173.17
                             2173.96  2188.19  2190.07  2191.11  2202.19
                             2208.02  2518.64  2536.45  4261.27  4350.11
                             4352.03  4361.26  4364.58  4374.74  4415.68
                             4423.35  4426.98  4459.41  4482.69  4494.69
                             4513.42  4524.58  4531.53  4540.60  5005.27

 Zero-point correction=                           0.245257 (Hartree/Particle)
 Thermal correction to Energy=                    0.258125
 Thermal correction to Enthalpy=                  0.259070
 Thermal correction to Gibbs Free Energy=         0.204389
 Sum of electronic and zero-point Energies=           -407.696388
 Sum of electronic and thermal Energies=              -407.683519
 Sum of electronic and thermal Enthalpies=            -407.682575
 Sum of electronic and thermal Free Energies=         -407.737256

                     E (Thermal)             CV                S
                      KCal/Mol        Cal/Mol-Kelvin    Cal/Mol-Kelvin
 Total                  161.976             45.408            115.086
 Electronic               0.000              0.000              0.000
 Translational            0.889              2.981             40.703
 Rotational               0.889              2.981             30.941
 Vibrational            160.199             39.446             43.442
 Vibration     1          0.593              1.986              7.036
 Vibration     2          0.595              1.980              5.165
 Vibration     3          0.599              1.967              4.058
 Vibration     4          0.600              1.961              3.841
 Vibration     5          0.615              1.914              2.813
 Vibration     6          0.619              1.899              2.633
 Vibration     7          0.624              1.883              2.466
 Vibration     8          0.641              1.831              2.076
 Vibration     9          0.646              1.816              1.986
 Vibration    10          0.662              1.766              1.742
 Vibration    11          0.683              1.703              1.507
 Vibration    12          0.718              1.601              1.225
 Vibration    13          0.741              1.536              1.084
 Vibration    14          0.769              1.463              0.950
 Vibration    15          0.794              1.397              0.847
 Vibration    16          0.850              1.262              0.672
 Vibration    17          0.882              1.191              0.594
 Vibration    18          0.937              1.073              0.484

                           ! Non-Optimized Parameters !

 1\1\GINC-NODE125\Freq\RB3LYP\6-31G(d)\C9H17N1\VSC10255\08-Dec-2020\0\\
 #N Geom=AllCheck Guess=TCheck SCRF=Check GenChk RB3LYP/6-31G(d) Freq\\
 CID_130477543_JID_215_neutraal\\0,1\C,1.082796214,0.0677005506,0.00155
 90227\C,0.5500029886,-0.0001233761,-1.3998321196\C,-0.2056656723,-0.98
 56380674,-1.8889176393\C,-0.7273585015,-1.0381027552,-3.2957778248\N,-
 0.2865027355,-2.2737378639,-3.9496317171\C,-0.8208492734,-2.4703195774
 ,-5.3075887471\C,-0.3640882514,-1.4598640368,-6.3302870229\C,0.5145500
 879,-1.6424480714,-7.3280932288\C,0.8944956053,-0.5039854059,-8.242640

 Normal termination of Gaussian 16 at Tue Dec  8 10:26:17 2020.

 ----------------------------------------------------------------------
 # B3LYP/6-311++G(d,p) empiricaldispersion=gd3bj scf=xqc pop=npa geom=c
 heck
 ----------------------------------------------------------------------

 --------------------------------------
 CID_130477543_JID_215_Energie_neutraal
 --------------------------------------
 Structure from the checkpoint file:  "JID_215.chk"
 Charge =  0 Multiplicity = 1

 SCF Done:  E(RB3LYP) =  -408.061787557     A.U. after   14 cycles
 Normal termination of Gaussian 16 at Tue Dec  8 10:28:21 2020.

 ----------------------------------------------------------------------
 # B3LYP/6-311++G(d,p) empiricaldispersion=gd3bj scf=xqc pop=npa geom=c
 heck
 ----------------------------------------------------------------------

 ------------------------------------
 CID_130477543_JID_215_Energie_kation
 ------------------------------------
 Structure from the checkpoint file:  "JID_215.chk"
 Charge =  1 Multiplicity = 2

 SCF Done:  E(UB3LYP) =  -407.771000829     A.U. after   20 cycles
 Normal termination of Gaussian 16 at Tue Dec  8 10:32:57 2020.
 Gaussian 16:  ES64L-G16RevA.03 25-Dec-2016

 -----------------------------------
 CID_130477543_JID_215_Energie_anion
 -----------------------------------
 Structure from the checkpoint file:  "JID_215.chk"
 Charge = -1 Multiplicity = 2

                         Standard orientation:
 ---------------------------------------------------------------------
 Center     Atomic      Atomic             Coordinates (Angstroms)
 Number     Number       Type             X           Y           Z
 ---------------------------------------------------------------------
      1          6           0       -4.726297    0.866131    0.590816
      2          6           0       -3.357406    0.732088   -0.009630
      3          6           0       -2.685714   -0.413216   -0.145971
      4          6           0       -1.314532   -0.527670   -0.746747
      5          7           0       -0.397628   -1.155326    0.209290
      6          6           0        0.956725   -1.400341   -0.314077
      7          6           0        1.747477   -0.161848   -0.655266
      8          6           0        2.783017    0.361730    0.018886
      9          6           0        3.438552    1.640689   -0.440888
     10          6           0        3.394833   -0.235786    1.261270
     11          1           0       -5.113632   -0.102480    0.923800
     12          1           0       -5.438798    1.286942   -0.131547
     13          1           0       -4.717564    1.544976    1.454228
     14          1           0       -2.892953    1.655348   -0.361873
     15          1           0       -3.120554   -1.346414    0.213080
     16          1           0       -1.347610   -1.182351   -1.630913
     17          1           0       -0.986720    0.465265   -1.102648
     18          1           0       -0.326064   -0.549298    1.026060
     19          1           0        1.484882   -2.014992    0.421079
     20          1           0        0.841354   -2.022527   -1.212113
     21          1           0        1.403190    0.380127   -1.536468
     22          1           0        3.391387    2.411351    0.341265
     23          1           0        4.504576    1.482310   -0.655946
     24          1           0        2.965140    2.040591   -1.342741
     25          1           0        2.897192   -1.148244    1.595851
     26          1           0        4.455072   -0.470933    1.095330
     27          1           0        3.364570    0.486944    2.088167
 ---------------------------------------------------------------------

 SCF Done:  E(UB3LYP) =  -408.044722079     A.U. after   32 cycles

 The electronic state is 2-A.
 Alpha  occ. eigenvalues --  -14.19840 -10.09616 -10.09473 -10.08019 -10.07581
 Alpha  occ. eigenvalues --  -10.07101 -10.06935 -10.06278 -10.05984 -10.05800
 Alpha  occ. eigenvalues --   -0.80700  -0.71250  -0.69750  -0.63683  -0.59966
 Alpha  occ. eigenvalues --   -0.59208  -0.54667  -0.51705  -0.45589  -0.41992
 Alpha  occ. eigenvalues --   -0.39962  -0.36495  -0.35684  -0.34709  -0.33524
 Alpha  occ. eigenvalues --   -0.32754  -0.31678  -0.31511  -0.29087  -0.28374
 Alpha  occ. eigenvalues --   -0.27647  -0.27142  -0.26814  -0.25713  -0.24551
 Alpha  occ. eigenvalues --   -0.23778  -0.15793  -0.14993  -0.12444   0.04580
 Alpha virt. eigenvalues --    0.06097   0.07566   0.07936   0.08220   0.08878
 Alpha virt. eigenvalues --    0.09323   0.10086   0.10305   0.10406   0.10641
 Alpha virt. eigenvalues --    0.11585   0.11797   0.12224   0.12912   0.13132

  Beta  occ. eigenvalues --  -14.19831 -10.09606 -10.09464 -10.08016 -10.07568
  Beta  occ. eigenvalues --  -10.07066 -10.06933 -10.06231 -10.05941 -10.05792
  Beta  occ. eigenvalues --   -0.80684  -0.71223  -0.69724  -0.63650  -0.59923
  Beta  occ. eigenvalues --   -0.59128  -0.54616  -0.51659  -0.45541  -0.41938
  Beta  occ. eigenvalues --   -0.39932  -0.36465  -0.35653  -0.34665  -0.33489
  Beta  occ. eigenvalues --   -0.32713  -0.31638  -0.31461  -0.29054  -0.28325
  Beta  occ. eigenvalues --   -0.27607  -0.27101  -0.26781  -0.25684  -0.24508
  Beta  occ. eigenvalues --   -0.23744  -0.15777  -0.14970  -0.12427
  Beta virt. eigenvalues --    0.06693   0.07090   0.08114   0.08163   0.08756
  Beta virt. eigenvalues --    0.09259   0.09709   0.10344   0.10643   0.10809
  Beta virt. eigenvalues --    0.11002   0.11899   0.12097   0.12569   0.13175

 Mulliken charges and spin densities:
               1          2
     1  C    1.622538  -2.313145
     2  C   -1.174979   1.290926
     3  C    0.332062  -0.271659
     4  C   -0.104954  -0.498229
     5  N    0.035148   0.017844
     6  C   -0.401700  -0.460407
     7  C    1.482686  -1.384965
     8  C   -1.476932   2.121304
     9  C    0.876909  -1.491799
    10  C    0.474465  -1.103780
    11  H   -0.247564   0.380685
    12  H   -0.226465   0.364909
    13  H   -0.261898   0.408733
    14  H   -0.556467   0.709123
    15  H   -0.000153   0.135757
    16  H    0.014352   0.111857
    17  H    0.092564   0.027372
    18  H    0.203629  -0.009194
    19  H    0.084727   0.035849
    20  H    0.014249   0.139128
    21  H    0.002250   0.139909
    22  H   -0.245039   0.393868
    23  H   -0.168952   0.303264
    24  H   -0.509528   0.662864
    25  H   -0.293385   0.435321
    26  H   -0.272756   0.410597
    27  H   -0.294807   0.443867
 Sum of Mulliken charges =  -1.00000   1.00000

 Dipole moment (field-independent basis, Debye):
    X=             -0.8731    Y=             -4.1931    Z=             -1.7683  Tot=              4.6337
 Quadrupole moment (field-independent basis, Debye-Ang):
   XX=           -164.2195   YY=           -103.1428   ZZ=            -97.1349
   XY=              1.7527   XZ=             -1.0388   YZ=              0.6145

 Summary of Natural Population Analysis:

                                       Natural Population
                Natural  -----------------------------------------------
    Atom  No    Charge         Core      Valence    Rydberg      Total
 -----------------------------------------------------------------------
      C    1   -0.29796      0.99965     2.29319    0.00511     3.29796
      C    2   -0.08606      0.99952     2.07648    0.01006     3.08606
      C    3   -0.09767      0.99950     2.08835    0.00981     3.09767
      C    4   -0.10117      0.99960     2.09115    0.01042     3.10117
      N    5   -0.33512      0.99975     2.82383    0.01154     3.83512
      C    6   -0.09937      0.99961     2.08877    0.01099     3.09937
      C    7   -0.11819      0.99944     2.10883    0.00992     3.11819
      C    8    0.00111      0.99950     1.98871    0.01067     2.99889
      C    9   -0.29306      0.99963     2.28816    0.00528     3.29306
      C   10   -0.30178      0.99962     2.29596    0.00620     3.30178
      H   11    0.09802      0.00000     0.40054    0.00144     0.40198
      H   12    0.10214      0.00000     0.39602    0.00184     0.39786
      H   13    0.10323      0.00000     0.39479    0.00198     0.39677
      H   14    0.09182      0.00000     0.40662    0.00156     0.40818
      H   15    0.09145      0.00000     0.40706    0.00149     0.40855
      H   16    0.09086      0.00000     0.40758    0.00156     0.40914
      H   17    0.08465      0.00000     0.41321    0.00214     0.41535
      H   18    0.17138      0.00000     0.32508    0.00354     0.32862
      H   19    0.09534      0.00000     0.40328    0.00137     0.40466
      H   20    0.09094      0.00000     0.40763    0.00143     0.40906
      H   21    0.09225      0.00000     0.40636    0.00139     0.40775
      H   22    0.10377      0.00000     0.39422    0.00201     0.39623
      H   23    0.10093      0.00000     0.39742    0.00164     0.39907
      H   24    0.10206      0.00000     0.39650    0.00144     0.39794
      H   25    0.10047      0.00000     0.39834    0.00119     0.39953
      H   26    0.10391      0.00000     0.39464    0.00146     0.39609
      H   27    0.10605      0.00000     0.39219    0.00175     0.39395
 =======================================================================
   * Total *    0.00000      9.99583    28.88493    0.11925    39.00000

 Normal termination of Gaussian 16 at Tue Dec  8 10:43:05 2020.
