 Gaussian 16, Revision A.03,

 -----------------------------------------------------------
 # opt freq B3LYP/6-31G(d) empiricaldispersion=gd3bj scf=xqc
 -----------------------------------------------------------

 -------------------------------
 CID_113772499_JID_7247_neutraal
 -------------------------------
 Symbolic Z-matrix:
 Charge =  0 Multiplicity = 1

 SCF Done:  E(RB3LYP) =  -724.003530547     A.U. after   14 cycles
 SCF Done:  E(RB3LYP) =  -724.013293272     A.U. after   12 cycles
 SCF Done:  E(RB3LYP) =  -724.015574202     A.U. after   12 cycles
 SCF Done:  E(RB3LYP) =  -724.016260306     A.U. after   12 cycles
 SCF Done:  E(RB3LYP) =  -724.016361496     A.U. after   11 cycles
 SCF Done:  E(RB3LYP) =  -724.016382332     A.U. after   10 cycles
 SCF Done:  E(RB3LYP) =  -724.016387186     A.U. after    9 cycles
 SCF Done:  E(RB3LYP) =  -724.016388745     A.U. after    7 cycles
 SCF Done:  E(RB3LYP) =  -724.016389561     A.U. after    8 cycles
 SCF Done:  E(RB3LYP) =  -724.016389924     A.U. after    7 cycles
 SCF Done:  E(RB3LYP) =  -724.016567919     A.U. after   11 cycles
 SCF Done:  E(RB3LYP) =  -724.016585518     A.U. after   11 cycles
 SCF Done:  E(RB3LYP) =  -724.016585676     A.U. after    7 cycles
 SCF Done:  E(RB3LYP) =  -724.016585705     A.U. after    6 cycles
 SCF Done:  E(RB3LYP) =  -724.016585727     A.U. after    6 cycles
 Optimization completed.
    -- Stationary point found.
 Normal termination of Gaussian 16 at Fri Dec 11 12:18:03 2020.

 --------------------------------------------------------------------
 #N Geom=AllCheck Guess=TCheck SCRF=Check GenChk RB3LYP/6-31G(d) Freq
 --------------------------------------------------------------------

 Structure from the checkpoint file:  "JID_7247.chk"
 -------------------------------
 CID_113772499_JID_7247_neutraal
 -------------------------------
 Charge =  0 Multiplicity = 1

 SCF Done:  E(RB3LYP) =  -724.016585727     A.U. after    1 cycles

  Exact polarizability: 186.540   8.132 166.753 -15.561   8.785 114.294
 Approx polarizability: 243.212  15.899 272.246 -29.335  20.356 189.754

                      1                      2                      3
                      A                      A                      A
 Frequencies --     25.9834                33.8329                42.5462
 Red. masses --      4.2871                 4.1615                 4.7239
 Frc consts  --      0.0017                 0.0028                 0.0050
 IR Inten    --      0.2701                 0.8954                 0.5226

                      4                      5                      6
                      A                      A                      A
 Frequencies --     97.3936               100.7351               108.1312
 Red. masses --      3.0058                 1.7144                 2.0654
 Frc consts  --      0.0168                 0.0102                 0.0142
 IR Inten    --      2.2987                 1.3890                 4.5898

                      7                      8                      9
                      A                      A                      A
 Frequencies --    142.6618               188.1493               200.6223
 Red. masses --      2.9679                 3.1872                 2.1946
 Frc consts  --      0.0356                 0.0665                 0.0520
 IR Inten    --      5.1134                 4.7081                 8.9054

                     10                     11                     12
                      A                      A                      A
 Frequencies --    227.2126               272.1636               288.4386
 Red. masses --      1.7459                 2.9378                 2.4865
 Frc consts  --      0.0531                 0.1282                 0.1219
 IR Inten    --     45.9211                 1.6089                10.0236

                     13                     14                     15
                      A                      A                      A
 Frequencies --    296.1298               308.9222               391.9070
 Red. masses --      3.2508                 2.4665                 5.6069
 Frc consts  --      0.1680                 0.1387                 0.5074
 IR Inten    --      1.4602                 4.4986                 5.4891

                     16                     17                     18
                      A                      A                      A
 Frequencies --    403.3753               455.5309               476.9266
 Red. masses --      2.9251                 3.3205                 3.3647
 Frc consts  --      0.2804                 0.4060                 0.4509
 IR Inten    --      2.4013                 2.6100                 1.6214

                     19                     20                     21
                      A                      A                      A
 Frequencies --    525.7891               532.3642               589.3335
 Red. masses --      2.9483                 4.1805                 3.9346
 Frc consts  --      0.4802                 0.6981                 0.8051
 IR Inten    --     16.8229                 0.9585                 3.6361

                     22                     23                     24
                      A                      A                      A
 Frequencies --    599.4100               623.4745               642.4174
 Red. masses --      5.8123                 5.4543                 4.6118
 Frc consts  --      1.2304                 1.2492                 1.1214
 IR Inten    --     12.8670                11.7382                 2.3630

                     25                     26                     27
                      A                      A                      A
 Frequencies --    697.3281               722.7562               728.5485
 Red. masses --      2.8876                 1.5334                 2.2777
 Frc consts  --      0.8273                 0.4719                 0.7123
 IR Inten    --     10.5026                30.5698                 8.0484

                     28                     29                     30
                      A                      A                      A
 Frequencies --    739.2334               766.9166               780.6290
 Red. masses --      3.3693                 2.0171                 1.9605
 Frc consts  --      1.0848                 0.6990                 0.7039
 IR Inten    --     23.2316                28.2449                21.9844

                     31                     32                     33
                      A                      A                      A
 Frequencies --    795.7103               829.9287               845.7854
 Red. masses --      3.2010                 1.5678                 2.4578
 Frc consts  --      1.1941                 0.6362                 1.0359
 IR Inten    --      1.4966                44.5800                86.7308

                     34                     35                     36
                      A                      A                      A
 Frequencies --    859.5468               884.5817               886.7728
 Red. masses --      2.0139                 1.4164                 2.9486
 Frc consts  --      0.8767                 0.6530                 1.3661
 IR Inten    --    113.3978                 0.5761                 1.3305

                     37                     38                     39
                      A                      A                      A
 Frequencies --    935.2075               978.9106               981.8214
 Red. masses --      1.3791                 1.9300                 1.3026
 Frc consts  --      0.7107                 1.0896                 0.7398
 IR Inten    --      0.4787                 1.3257                 0.1055

                     40                     41                     42
                      A                      A                      A
 Frequencies --   1016.7715              1025.4362              1034.9299
 Red. masses --      4.9259                 2.7233                 2.0588
 Frc consts  --      3.0004                 1.6872                 1.2992
 IR Inten    --     32.6631                 3.4257                 1.8054

                     43                     44                     45
                      A                      A                      A
 Frequencies --   1059.8435              1086.5208              1111.5220
 Red. masses --      1.9462                 1.6087                 2.2784
 Frc consts  --      1.2880                 1.1189                 1.6585
 IR Inten    --     17.0975                 3.4331                 9.2155

                     46                     47                     48
                      A                      A                      A
 Frequencies --   1125.5187              1138.8989              1144.7547
 Red. masses --      1.6504                 1.4614                 1.6233
 Frc consts  --      1.2318                 1.1168                 1.2533
 IR Inten    --     11.4901                13.0173                 2.8156

                     49                     50                     51
                      A                      A                      A
 Frequencies --   1157.0406              1165.9744              1186.5487
 Red. masses --      1.2999                 1.8835                 1.1886
 Frc consts  --      1.0253                 1.5086                 0.9860
 IR Inten    --     18.2895                 2.4381                 0.5682

                     52                     53                     54
                      A                      A                      A
 Frequencies --   1213.1982              1222.6865              1229.6019
 Red. masses --      1.4562                 2.1088                 2.3523
 Frc consts  --      1.2628                 1.8574                 2.0954
 IR Inten    --     14.4388                 9.3728                20.8341

                     55                     56                     57
                      A                      A                      A
 Frequencies --   1239.9077              1280.5999              1308.4139
 Red. masses --      1.3874                 1.6268                 2.0371
 Frc consts  --      1.2567                 1.5718                 2.0548
 IR Inten    --      5.8503                51.2448                24.1297

                     58                     59                     60
                      A                      A                      A
 Frequencies --   1322.5447              1330.7454              1365.5895
 Red. masses --      1.5051                 1.9323                 3.1144
 Frc consts  --      1.5510                 2.0161                 3.4219
 IR Inten    --      6.9115                 1.3049                38.2109

                     61                     62                     63
                      A                      A                      A
 Frequencies --   1383.0554              1397.4553              1424.8355
 Red. masses --      2.2097                 3.1361                 1.9606
 Frc consts  --      2.4904                 3.6084                 2.3452
 IR Inten    --      0.1818                 3.4037                83.7051

                     64                     65                     66
                      A                      A                      A
 Frequencies --   1467.0055              1485.8840              1488.9604
 Red. masses --      1.6959                 1.4850                 1.4105
 Frc consts  --      2.1503                 1.9317                 1.8425
 IR Inten    --     31.8296                43.3645                 5.0535

                     67                     68                     69
                      A                      A                      A
 Frequencies --   1506.2553              1510.9170              1512.2621
 Red. masses --      2.3128                 1.1698                 2.2129
 Frc consts  --      3.0916                 1.5734                 2.9817
 IR Inten    --      2.6739                 1.5573                17.7725

                     70                     71                     72
                      A                      A                      A
 Frequencies --   1520.6444              1541.6765              1544.0706
 Red. masses --      1.5493                 1.0987                 1.1346
 Frc consts  --      2.1108                 1.5386                 1.5938
 IR Inten    --     20.6426                14.9757                 6.9409

                     73                     74                     75
                      A                      A                      A
 Frequencies --   1574.5985              1653.9136              1654.6902
 Red. masses --      6.9451                 6.0947                 2.7551
 Frc consts  --     10.1453                 9.8226                 4.4445
 IR Inten    --    207.1974                 1.7997                 8.7108

                     76                     77                     78
                      A                      A                      A
 Frequencies --   1663.3220              1688.9445              2977.7863
 Red. masses --      6.7596                 1.4319                 1.0727
 Frc consts  --     11.0185                 2.4066                 5.6043
 IR Inten    --      1.7841                56.0582                55.2825

                     79                     80                     81
                      A                      A                      A
 Frequencies --   3043.4513              3059.5086              3069.9498
 Red. masses --      1.0433                 1.0830                 1.0613
 Frc consts  --      5.6936                 5.9730                 5.8934
 IR Inten    --     93.6452                30.6487                47.4268

                     82                     83                     84
                      A                      A                      A
 Frequencies --   3092.6591              3116.7384              3124.4377
 Red. masses --      1.0900                 1.0935                 1.1059
 Frc consts  --      6.1424                 6.2588                 6.3609
 IR Inten    --     13.0078                24.4356                26.5219

                     85                     86                     87
                      A                      A                      A
 Frequencies --   3161.8061              3177.7013              3187.3854
 Red. masses --      1.1037                 1.0852                 1.0888
 Frc consts  --      6.5011                 6.4564                 6.5171
 IR Inten    --      9.0186                 0.1708                 6.2595

                     88                     89                     90
                      A                      A                      A
 Frequencies --   3196.6168              3205.6535              3265.3152
 Red. masses --      1.0936                 1.0967                 1.0971
 Frc consts  --      6.5840                 6.6401                 6.8917
 IR Inten    --     40.3958                30.0035                 4.0709

                     91                     92                     93
                      A                      A                      A
 Frequencies --   3487.4434              3520.1257              3589.0163
 Red. masses --      1.0500                 1.0734                 1.0937
 Frc consts  --      7.5243                 7.8368                 8.3004
 IR Inten    --      2.8813                 6.9347                 4.3182

 - Thermochemistry -
 -------------------
 Temperature   298.150 Kelvin.  Pressure   1.00000 Atm.
 Atom     1 has atomic number  6 and mass  12.00000

 Molecular mass:   228.13750 amu.
 Principal axes and moments of inertia in atomic units:
                           1         2         3
     Eigenvalues --  1852.326737737.051378765.42325
           X            0.99999  -0.00420  -0.00137
           Y            0.00421   0.99995   0.00914
           Z            0.00134  -0.00915   0.99996
 This molecule is an asymmetric top.
 Rotational symmetry number  1.
 Warning -- assumption of classical behavior for rotation
           may cause significant error
 Rotational temperatures (Kelvin)      0.04676     0.01119     0.00988
 Rotational constants (GHZ):           0.97431     0.23326     0.20589
 Zero-point vibrational energy     730130.3 (Joules/Mol)
                                  174.50534 (Kcal/Mol)
 Warning -- explicit consideration of  22 degrees of freedom as
           vibrations may cause significant error
 Vibrational temperatures:     37.38    48.68    61.21   140.13   144.94
          (Kelvin)            155.58   205.26   270.70   288.65   326.91
                              391.58   415.00   426.06   444.47   563.87
                              580.37   655.41   686.19   756.49   765.95
                              847.92   862.42   897.04   924.30  1003.30
                             1039.88  1048.22  1063.59  1103.42  1123.15
                             1144.85  1194.08  1216.90  1236.70  1272.72
                             1275.87  1345.56  1408.43  1412.62  1462.91
                             1475.37  1489.03  1524.88  1563.26  1599.23
                             1619.37  1638.62  1647.05  1664.72  1677.58
                             1707.18  1745.52  1759.17  1769.12  1783.95
                             1842.50  1882.52  1902.85  1914.65  1964.78
                             1989.91  2010.63  2050.02  2110.69  2137.86
                             2142.28  2167.17  2173.87  2175.81  2187.87
                             2218.13  2221.57  2265.50  2379.61  2380.73
                             2393.15  2430.01  4284.37  4378.85  4401.95
                             4416.97  4449.65  4484.29  4495.37  4549.13
                             4572.00  4585.94  4599.22  4612.22  4698.06
                             5017.65  5064.68  5163.79

 Zero-point correction=                           0.278092 (Hartree/Particle)
 Thermal correction to Energy=                    0.293506
 Thermal correction to Enthalpy=                  0.294450
 Thermal correction to Gibbs Free Energy=         0.233699
 Sum of electronic and zero-point Energies=           -723.738494
 Sum of electronic and thermal Energies=              -723.723079
 Sum of electronic and thermal Enthalpies=            -723.722135
 Sum of electronic and thermal Free Energies=         -723.782887

                     E (Thermal)             CV                S
                      KCal/Mol        Cal/Mol-Kelvin    Cal/Mol-Kelvin
 Total                  184.178             59.129            127.863
 Electronic               0.000              0.000              0.000
 Translational            0.889              2.981             42.177
 Rotational               0.889              2.981             33.196
 Vibrational            182.400             53.167             52.490
 Vibration     1          0.593              1.985              6.115
 Vibration     2          0.594              1.983              5.591
 Vibration     3          0.595              1.980              5.137
 Vibration     4          0.603              1.951              3.506
 Vibration     5          0.604              1.949              3.440
 Vibration     6          0.606              1.943              3.302
 Vibration     7          0.616              1.911              2.768
 Vibration     8          0.633              1.856              2.246
 Vibration     9          0.638              1.839              2.127
 Vibration    10          0.651              1.800              1.901
 Vibration    11          0.675              1.725              1.582
 Vibration    12          0.685              1.695              1.483
 Vibration    13          0.690              1.681              1.439
 Vibration    14          0.698              1.657              1.368
 Vibration    15          0.759              1.487              0.993
 Vibration    16          0.769              1.463              0.950
 Vibration    17          0.814              1.349              0.779
 Vibration    18          0.833              1.301              0.718
 Vibration    19          0.881              1.193              0.597
 Vibration    20          0.887              1.178              0.582
 Vibration    21          0.947              1.055              0.468
 Vibration    22          0.957              1.033              0.451

 Optimization completed.
    -- Stationary point found.
 Normal termination of Gaussian 16 at Fri Dec 11 12:29:03 2020.

 ----------------------------------------------------------------------
 # B3LYP/6-311++G(d,p) empiricaldispersion=gd3bj scf=xqc pop=npa geom=c
 heck
 ----------------------------------------------------------------------

 ---------------------------------------
 CID_113772499_JID_7247_Energie_neutraal
 ---------------------------------------
 Structure from the checkpoint file:  "JID_7247.chk"
 Charge =  0 Multiplicity = 1

 SCF Done:  E(RB3LYP) =  -724.214316226     A.U. after   14 cycles
 Normal termination of Gaussian 16 at Fri Dec 11 12:34:26 2020.

 ----------------------------------------------------------------------
 # B3LYP/6-311++G(d,p) empiricaldispersion=gd3bj scf=xqc pop=npa geom=c
 heck
 ----------------------------------------------------------------------

 -------------------------------------
 CID_113772499_JID_7247_Energie_kation
 -------------------------------------
 Structure from the checkpoint file:  "JID_7247.chk"
 Charge =  1 Multiplicity = 2

 SCF Done:  E(UB3LYP) =  -723.953547611     A.U. after   23 cycles
 Normal termination of Gaussian 16 at Fri Dec 11 12:49:34 2020.
 Gaussian 16:  ES64L-G16RevA.03 25-Dec-2016

 ----------------------------------------------------------------------
 # B3LYP/6-311++G(d,p) empiricaldispersion=gd3bj scf=xqc pop=npa geom=c
 heck
 ----------------------------------------------------------------------

 ------------------------------------
 CID_113772499_JID_7247_Energie_anion
 ------------------------------------
 Structure from the checkpoint file:  "JID_7247.chk"
 Charge = -1 Multiplicity = 2

                         Standard orientation:
 ---------------------------------------------------------------------
 Center     Atomic      Atomic             Coordinates (Angstroms)
 Number     Number       Type             X           Y           Z
 ---------------------------------------------------------------------
      1          6           0       -4.582585    2.135864   -0.079466
      2          7           0       -3.664275    1.030343   -0.214531
      3          6           0       -3.969083   -0.301503   -0.307379
      4          6           0       -2.772573   -0.989995   -0.238727
      5          6           0       -1.790568    0.024263   -0.072128
      6          7           0       -2.337254    1.240653   -0.043228
      7          7           0       -0.404931   -0.190882   -0.018099
      8          6           0        0.074253   -0.871435    1.193594
      9          6           0        1.568784   -1.163993    1.104982
     10          6           0        2.078999   -1.898538   -0.204028
     11          6           0        2.935661   -0.664682   -0.451906
     12          6           0        3.854197   -0.087820   -1.315637
     13          6           0        4.294537    1.202660   -0.977743
     14          6           0        3.829548    1.864730    0.166648
     15          6           0        2.903073    1.267292    1.037428
     16          6           0        2.482159   -0.009170    0.694291
     17          7           0       -2.500912   -2.372467   -0.288067
     18          1           0       -4.818572    2.343976    0.972034
     19          1           0       -5.508130    1.903483   -0.613617
     20          1           0       -4.123420    3.022566   -0.520993
     21          1           0       -4.986123   -0.643131   -0.438159
     22          1           0        0.084364    0.692100   -0.145261
     23          1           0       -0.129001   -0.279823    2.102629
     24          1           0       -0.481822   -1.809965    1.293121
     25          1           0        1.884654   -1.668122    2.026667
     26          1           0        1.289367   -2.063846   -0.942722
     27          1           0        2.619592   -2.834880   -0.027382
     28          1           0        4.220193   -0.584491   -2.210391
     29          1           0        5.011769    1.706018   -1.620782
     30          1           0        4.197111    2.864369    0.382710
     31          1           0        2.551270    1.791087    1.922481
     32          1           0       -1.644168   -2.540917   -0.811139
     33          1           0       -3.253897   -2.897995   -0.721294
 ---------------------------------------------------------------------

 SCF Done:  E(UB3LYP) =  -724.201674845     A.U. after   33 cycles
 SCF Done:  E(UB3LYP) =  -724.201674845     a.u. after    1 cycles

 The electronic state is 2-A.
 Alpha  occ. eigenvalues --  -14.27977 -14.21967 -14.21485 -14.21398 -10.11317
 Alpha  occ. eigenvalues --  -10.11230 -10.10300 -10.09588 -10.09444 -10.09432
 Alpha  occ. eigenvalues --  -10.09045 -10.08940 -10.08778 -10.08729 -10.08458
 Alpha  occ. eigenvalues --  -10.08361 -10.08094  -0.94501  -0.83251  -0.80243
 Alpha  occ. eigenvalues --   -0.78925  -0.73235  -0.71771  -0.66810  -0.66299
 Alpha  occ. eigenvalues --   -0.62742  -0.59111  -0.57485  -0.53321  -0.50225
 Alpha  occ. eigenvalues --   -0.49235  -0.48086  -0.46410  -0.43061  -0.42235
 Alpha  occ. eigenvalues --   -0.39616  -0.39157  -0.38311  -0.37646  -0.36786
 Alpha  occ. eigenvalues --   -0.36100  -0.35535  -0.34226  -0.33271  -0.31704
 Alpha  occ. eigenvalues --   -0.31247  -0.30496  -0.30072  -0.29055  -0.27162
 Alpha  occ. eigenvalues --   -0.26764  -0.24974  -0.23356  -0.22727  -0.21986
 Alpha  occ. eigenvalues --   -0.19635  -0.18553  -0.16852  -0.15567  -0.12643
 Alpha  occ. eigenvalues --   -0.09581   0.04095
 Alpha virt. eigenvalues --    0.05405   0.06161   0.06416   0.07235   0.07311
 Alpha virt. eigenvalues --    0.07892   0.08565   0.08815   0.08956   0.09251
 Alpha virt. eigenvalues --    0.10778   0.11035   0.11301   0.11532   0.11896

  Beta  occ. eigenvalues --  -14.27972 -14.21959 -14.21481 -14.21357 -10.11284
  Beta  occ. eigenvalues --  -10.11228 -10.10289 -10.09586 -10.09439 -10.09407
  Beta  occ. eigenvalues --  -10.09048 -10.08917 -10.08726 -10.08683 -10.08463
  Beta  occ. eigenvalues --  -10.08346 -10.08072  -0.94490  -0.83237  -0.80187
  Beta  occ. eigenvalues --   -0.78871  -0.73200  -0.71730  -0.66777  -0.66211
  Beta  occ. eigenvalues --   -0.62702  -0.59062  -0.57440  -0.53258  -0.50164
  Beta  occ. eigenvalues --   -0.49192  -0.48063  -0.46371  -0.43012  -0.42197
  Beta  occ. eigenvalues --   -0.39573  -0.39107  -0.38271  -0.37616  -0.36744
  Beta  occ. eigenvalues --   -0.36048  -0.35501  -0.34198  -0.33243  -0.31677
  Beta  occ. eigenvalues --   -0.31210  -0.30465  -0.30042  -0.29023  -0.27038
  Beta  occ. eigenvalues --   -0.26703  -0.24954  -0.23321  -0.22691  -0.21956
  Beta  occ. eigenvalues --   -0.19617  -0.18528  -0.16584  -0.15448  -0.12623
  Beta  occ. eigenvalues --   -0.09559
  Beta virt. eigenvalues --    0.05865   0.06367   0.06615   0.07080   0.07384
  Beta virt. eigenvalues --    0.08004   0.08021   0.08890   0.09144   0.09286
  Beta virt. eigenvalues --    0.09660   0.11206   0.11289   0.11455   0.11643

 Mulliken charges and spin densities:
               1          2
     1  C    0.568759  -0.893322
     2  N    0.159991  -0.058915
     3  C   -0.293743   0.004359
     4  C   -0.203228   0.297263
     5  C    1.635689  -2.010697
     6  N   -0.467708   0.286713
     7  N    0.018384  -0.001475
     8  C    0.224156  -0.790506
     9  C   -0.222815   0.455810
    10  C    0.307365  -1.022026
    11  C    0.200130  -0.285780
    12  C   -0.685202   0.317446
    13  C   -0.023566  -0.270219
    14  C   -0.084936  -0.139594
    15  C   -0.779520   0.750801
    16  C    0.604385  -0.158318
    17  N   -0.433545   0.057077
    18  H   -0.060081   0.226256
    19  H   -0.410237   0.559777
    20  H   -0.056470   0.213817
    21  H   -1.108718   1.292716
    22  H    0.370595  -0.115009
    23  H    0.097684   0.033635
    24  H    0.160704   0.021951
    25  H   -0.290229   0.538540
    26  H    0.124387   0.034746
    27  H   -0.226914   0.396810
    28  H   -0.027920   0.195781
    29  H    0.067814   0.071517
    30  H    0.068596   0.088550
    31  H    0.004941   0.160652
    32  H    0.068607   0.180573
    33  H   -0.307354   0.561071
 Sum of Mulliken charges =  -1.00000   1.00000

 Dipole moment (field-independent basis, Debye):
    X=              7.6449    Y=              3.1558    Z=              0.4949  Tot=              8.2854
 Quadrupole moment (field-independent basis, Debye-Ang):
   XX=           -211.0308   YY=           -146.0588   ZZ=           -128.3964
   XY=              0.0733   XZ=            -10.3211   YZ=              2.1162

 Summary of Natural Population Analysis:

                                       Natural Population
                Natural  -----------------------------------------------
    Atom  No    Charge         Core      Valence    Rydberg      Total
 -----------------------------------------------------------------------
      C    1   -0.17102      0.99964     2.16297    0.00842     3.17102
      N    2   -0.11024      0.99968     2.59849    0.01207     3.61024
      C    3   -0.02912      0.99950     2.01761    0.01200     3.02912
      C    4    0.02377      0.99942     1.96481    0.01199     2.97623
      C    5    0.15205      0.99951     1.83191    0.01653     2.84795
      N    6   -0.17296      0.99969     2.66259    0.01068     3.67296
      N    7   -0.33711      0.99970     2.82736    0.01006     3.83711
      C    8   -0.08410      0.99959     2.07411    0.01040     3.08410
      C    9   -0.10977      0.99959     2.09838    0.01180     3.10977
      C   10   -0.18809      0.99961     2.18022    0.00826     3.18809
      C   11   -0.01080      0.99944     2.00036    0.01099     3.01080
      C   12   -0.09688      0.99950     2.08876    0.00861     3.09688
      C   13   -0.10089      0.99958     2.09159    0.00972     3.10089
      C   14   -0.10665      0.99958     2.09737    0.00970     3.10665
      C   15   -0.09708      0.99950     2.08890    0.00868     3.09708
      C   16   -0.01505      0.99944     2.00369    0.01192     3.01505
      N   17   -0.40459      0.99973     2.89398    0.01088     3.90459
      H   18    0.09305      0.00000     0.40568    0.00127     0.40695
      H   19    0.10126      0.00000     0.39702    0.00172     0.39874
      H   20    0.10317      0.00000     0.39541    0.00143     0.39683
      H   21    0.10550      0.00000     0.39159    0.00291     0.39450
      H   22    0.18605      0.00000     0.31099    0.00296     0.31395
      H   23    0.08490      0.00000     0.41368    0.00142     0.41510
      H   24    0.10371      0.00000     0.39453    0.00176     0.39629
      H   25    0.10609      0.00000     0.39231    0.00161     0.39391
      H   26    0.10776      0.00000     0.39057    0.00167     0.39224
      H   27    0.10208      0.00000     0.39650    0.00142     0.39792
      H   28    0.10027      0.00000     0.39885    0.00087     0.39973
      H   29    0.09682      0.00000     0.40244    0.00074     0.40318
      H   30    0.09762      0.00000     0.40162    0.00076     0.40238
      H   31    0.10176      0.00000     0.39732    0.00092     0.39824
      H   32    0.18331      0.00000     0.31439    0.00230     0.31669
      H   33    0.18517      0.00000     0.31158    0.00325     0.31483
 =======================================================================
   * Total *   -0.00000     16.99271    43.79759    0.20970    61.00000

 Normal termination of Gaussian 16 at Fri Dec 11 13:07:15 2020.
