 Gaussian 16, Revision A.03,

 -----------------------------------------------------------
 # opt freq B3LYP/6-31G(d) empiricaldispersion=gd3bj scf=xqc
 -----------------------------------------------------------

 -------------------------------
 CID_108220968_JID_7862_neutraal
 -------------------------------
 Symbolic Z-matrix:
 Charge =  0 Multiplicity = 1

 SCF Done:  E(RB3LYP) =  -1034.83635640     A.U. after   14 cycles
 SCF Done:  E(RB3LYP) =  -1034.84000599     A.U. after   12 cycles
 SCF Done:  E(RB3LYP) =  -1034.84037997     A.U. after   12 cycles
 SCF Done:  E(RB3LYP) =  -1034.84057797     A.U. after   12 cycles
 SCF Done:  E(RB3LYP) =  -1034.84067497     A.U. after   12 cycles
 SCF Done:  E(RB3LYP) =  -1034.84072187     A.U. after   11 cycles
 SCF Done:  E(RB3LYP) =  -1034.84083998     A.U. after   12 cycles
 SCF Done:  E(RB3LYP) =  -1034.84095835     A.U. after   12 cycles
 SCF Done:  E(RB3LYP) =  -1034.84114774     A.U. after   12 cycles
 SCF Done:  E(RB3LYP) =  -1034.82116321     A.U. after   16 cycles
 SCF Done:  E(RB3LYP) =  -1034.84555901     A.U. after    7 cycles
 SCF Done:  E(RB3LYP) =  -1034.84553857     A.U. after   10 cycles
 SCF Done:  E(RB3LYP) =  -1034.84555901     A.U. after   10 cycles
 SCF Done:  E(RB3LYP) =  -1034.84555915     A.U. after    7 cycles
 SCF Done:  E(RB3LYP) =  -1034.84555915     A.U. after    6 cycles
 Optimization completed on the basis of negligible forces.
    -- Stationary point found.
 Normal termination of Gaussian 16 at Mon Dec 14 20:01:55 2020.

 --------------------------------------------------------------------
 #N Geom=AllCheck Guess=TCheck SCRF=Check GenChk RB3LYP/6-31G(d) Freq
 --------------------------------------------------------------------

 Structure from the checkpoint file:  "JID_7862.chk"
 -------------------------------
 CID_108220968_JID_7862_neutraal
 -------------------------------
 Charge =  0 Multiplicity = 1

 SCF Done:  E(RB3LYP) =  -1034.84555915     A.U. after    1 cycles

  Exact polarizability: 238.537 -14.473 150.978 -11.586  -4.160 141.670
 Approx polarizability: 335.189 -29.045 247.719 -29.632 -11.988 248.403

                      1                      2                      3
                      A                      A                      A
 Frequencies --     29.2601                36.1292                42.8307
 Red. masses --      1.0134                 4.6081                 4.3797
 Frc consts  --      0.0005                 0.0035                 0.0047
 IR Inten    --      0.2654                 0.3828                 0.8406

                      4                      5                      6
                      A                      A                      A
 Frequencies --     52.8730                72.8885                96.9602
 Red. masses --      3.8250                 3.4934                 3.5981
 Frc consts  --      0.0063                 0.0109                 0.0199
 IR Inten    --      0.3159                 1.1296                 0.4268

                      7                      8                      9
                      A                      A                      A
 Frequencies --    121.3880               145.0577               196.5104
 Red. masses --      3.4856                 2.0879                 4.5238
 Frc consts  --      0.0303                 0.0259                 0.1029
 IR Inten    --      1.3036                 0.7829                 0.3013

                     10                     11                     12
                      A                      A                      A
 Frequencies --    225.3441               247.0857               260.5690
 Red. masses --      4.4209                 1.4636                 3.3776
 Frc consts  --      0.1323                 0.0526                 0.1351
 IR Inten    --      0.4881                 0.1767                 1.1096

                     13                     14                     15
                      A                      A                      A
 Frequencies --    282.7316               307.7276               323.9314
 Red. masses --      3.7494                 2.3093                 3.7801
 Frc consts  --      0.1766                 0.1288                 0.2337
 IR Inten    --      0.3915                 0.6983                 0.9892

                     16                     17                     18
                      A                      A                      A
 Frequencies --    353.2967               405.8934               413.0646
 Red. masses --      4.5383                 5.7623                 3.2119
 Frc consts  --      0.3338                 0.5593                 0.3229
 IR Inten    --      0.8966                 0.4359                 0.5952

                     19                     20                     21
                      A                      A                      A
 Frequencies --    429.1714               455.4394               474.9746
 Red. masses --      6.6618                 2.8496                 3.3934
 Frc consts  --      0.7229                 0.3482                 0.4511
 IR Inten    --      0.2790                 3.1516                 4.4067

                     22                     23                     24
                      A                      A                      A
 Frequencies --    520.4599               568.9796               628.2542
 Red. masses --      4.2543                 3.6828                 5.1750
 Frc consts  --      0.6790                 0.7025                 1.2035
 IR Inten    --      8.2451                 7.1652                 0.7282

                     25                     26                     27
                      A                      A                      A
 Frequencies --    633.3427               647.3774               705.7895
 Red. masses --      5.8801                 5.5468                 2.5644
 Frc consts  --      1.3897                 1.3696                 0.7526
 IR Inten    --      0.1958                 0.8759                15.1741

                     28                     29                     30
                      A                      A                      A
 Frequencies --    710.9807               730.3843               758.8049
 Red. masses --      6.0553                 4.2574                 1.5413
 Frc consts  --      1.8034                 1.3381                 0.5229
 IR Inten    --      8.8290                 5.4549                37.2534

                     31                     32                     33
                      A                      A                      A
 Frequencies --    776.6843               832.4800               834.0846
 Red. masses --      4.4812                 1.3361                 1.2893
 Frc consts  --      1.5927                 0.5455                 0.5285
 IR Inten    --      0.3368                68.0690                13.8841

                     34                     35                     36
                      A                      A                      A
 Frequencies --    858.0357               906.1715               919.0033
 Red. masses --      1.2526                 1.3787                 1.3488
 Frc consts  --      0.5433                 0.6670                 0.6712
 IR Inten    --      2.0608                 2.2959                 2.2497

                     37                     38                     39
                      A                      A                      A
 Frequencies --    953.8559               963.1663               971.0322
 Red. masses --      2.6512                 1.3527                 1.3493
 Frc consts  --      1.4212                 0.7393                 0.7496
 IR Inten    --      3.6866                 0.5183                 0.1842

                     40                     41                     42
                      A                      A                      A
 Frequencies --    987.6933               994.2960              1004.6123
 Red. masses --      2.0440                 1.2499                 1.4435
 Frc consts  --      1.1748                 0.7280                 0.8583
 IR Inten    --      2.2749                 0.1687                 2.2994

                     43                     44                     45
                      A                      A                      A
 Frequencies --   1019.7559              1043.8327              1054.3346
 Red. masses --      6.3000                 1.5816                 2.9823
 Frc consts  --      3.8599                 1.0153                 1.9533
 IR Inten    --      3.3209                 0.3472                 7.9804

                     46                     47                     48
                      A                      A                      A
 Frequencies --   1068.3321              1077.6735              1109.7321
 Red. masses --      3.4419                 1.8312                 1.6414
 Frc consts  --      2.3145                 1.2530                 1.1910
 IR Inten    --      1.3213                18.2203                 3.1736

                     49                     50                     51
                      A                      A                      A
 Frequencies --   1113.7676              1143.3118              1157.7369
 Red. masses --      2.7009                 2.9125                 1.5855
 Frc consts  --      1.9740                 2.2431                 1.2521
 IR Inten    --      7.0369                19.8637                15.6183

                     52                     53                     54
                      A                      A                      A
 Frequencies --   1179.0893              1191.5596              1193.9917
 Red. masses --      1.5541                 1.6024                 1.0968
 Frc consts  --      1.2730                 1.3405                 0.9212
 IR Inten    --      2.8214                 4.9696                 0.0481

                     55                     56                     57
                      A                      A                      A
 Frequencies --   1201.7360              1214.6949              1265.8907
 Red. masses --      1.5658                 1.1438                 2.1111
 Frc consts  --      1.3323                 0.9943                 1.9932
 IR Inten    --      0.9217                 1.1104                 1.2130

                     58                     59                     60
                      A                      A                      A
 Frequencies --   1281.2953              1319.5338              1334.1589
 Red. masses --      1.6949                 1.7166                 2.4760
 Frc consts  --      1.6394                 1.7610                 2.5967
 IR Inten    --      8.5318                 0.5488                 1.4100

                     61                     62                     63
                      A                      A                      A
 Frequencies --   1350.5778              1362.8612              1402.4666
 Red. masses --      3.3335                 1.9349                 1.4257
 Frc consts  --      3.5825                 2.1174                 1.6522
 IR Inten    --      0.7042                 0.7311                19.7781

                     64                     65                     66
                      A                      A                      A
 Frequencies --   1442.2039              1452.3317              1479.7402
 Red. masses --      1.2568                 2.9297                 1.1866
 Frc consts  --      1.5402                 3.6409                 1.5308
 IR Inten    --      0.2602                 3.5990                 0.4952

                     67                     68                     69
                      A                      A                      A
 Frequencies --   1488.5024              1512.0682              1518.3086
 Red. masses --      2.1535                 1.1215                 1.0770
 Frc consts  --      2.8112                 1.5108                 1.4628
 IR Inten    --      7.1575                18.0909                 5.2039

                     70                     71                     72
                      A                      A                      A
 Frequencies --   1518.6959              1520.5230              1527.1796
 Red. masses --      1.1384                 1.2112                 2.0269
 Frc consts  --      1.5470                 1.6499                 2.7852
 IR Inten    --      6.3270                 7.2369                21.1118

                     73                     74                     75
                      A                      A                      A
 Frequencies --   1529.3611              1542.6409              1553.4506
 Red. masses --      2.0486                 1.0520                 1.0814
 Frc consts  --      2.8231                 1.4750                 1.5376
 IR Inten    --     15.6963                 2.7780                 4.6659

                     76                     77                     78
                      A                      A                      A
 Frequencies --   1620.4303              1635.7922              1645.9079
 Red. masses --      5.7132                 5.5023                 5.3635
 Frc consts  --      8.8387                 8.6746                 8.5607
 IR Inten    --      2.9847                 1.6376                20.1260

                     79                     80                     81
                      A                      A                      A
 Frequencies --   1662.3020              2960.4584              2994.7894
 Red. masses --      5.7563                 1.0586                 1.0666
 Frc consts  --      9.3716                 5.4662                 5.6361
 IR Inten    --      5.8755                63.0805                39.5227

                     82                     83                     84
                      A                      A                      A
 Frequencies --   3043.0136              3044.6890              3066.9224
 Red. masses --      1.0410                 1.0937                 1.0763
 Frc consts  --      5.6794                 5.9734                 5.9648
 IR Inten    --     31.2740                43.9760                56.4020

                     85                     86                     87
                      A                      A                      A
 Frequencies --   3101.0042              3119.3510              3128.7015
 Red. masses --      1.0953                 1.1008                 1.1029
 Frc consts  --      6.2059                 6.3111                 6.3607
 IR Inten    --     19.0259                26.9579                14.9144

                     88                     89                     90
                      A                      A                      A
 Frequencies --   3182.3188              3183.9353              3186.4817
 Red. masses --      1.0886                 1.0899                 1.0851
 Frc consts  --      6.4952                 6.5100                 6.4912
 IR Inten    --     17.1271                12.3476                 0.9933

                     91                     92                     93
                      A                      A                      A
 Frequencies --   3193.9929              3204.9296              3209.9508
 Red. masses --      1.0883                 1.0918                 1.0935
 Frc consts  --      6.5411                 6.6072                 6.6386
 IR Inten    --      7.1377                13.2463                 8.7679

                     94                     95                     96
                      A                      A                      A
 Frequencies --   3211.9248              3217.1760              3514.1432
 Red. masses --      1.0941                 1.0970                 1.0736
 Frc consts  --      6.6500                 6.6896                 7.8111
 IR Inten    --     18.4412                12.7137                10.8687

 - Thermochemistry -
 -------------------
 Temperature   298.150 Kelvin.  Pressure   1.00000 Atm.
 Atom     1 has atomic number  6 and mass  12.00000

 Molecular mass:   243.10817 amu.
 Principal axes and moments of inertia in atomic units:
                           1         2         3
     Eigenvalues --  2499.021266096.444916915.77280
           X            0.99990  -0.00939  -0.01032
           Y            0.00984   0.99898   0.04416
           Z            0.00989  -0.04426   0.99897
 This molecule is an asymmetric top.
 Rotational symmetry number  1.
 Warning -- assumption of classical behavior for rotation
           may cause significant error
 Rotational temperatures (Kelvin)      0.03466     0.01421     0.01252
 Rotational constants (GHZ):           0.72218     0.29603     0.26096
 Zero-point vibrational energy     748731.7 (Joules/Mol)
                                  178.95118 (Kcal/Mol)
 Warning -- explicit consideration of  23 degrees of freedom as
           vibrations may cause significant error
 Vibrational temperatures:     42.10    51.98    61.62    76.07   104.87
          (Kelvin)            139.50   174.65   208.71   282.73   324.22
                              355.50   374.90   406.79   442.75   466.06
                              508.32   583.99   594.31   617.48   655.28
                              683.38   748.83   818.63   903.92   911.24
                              931.43  1015.47  1022.94  1050.86  1091.75
                             1117.48  1197.75  1200.06  1234.52  1303.78
                             1322.24  1372.39  1385.78  1397.10  1421.07
                             1430.57  1445.41  1467.20  1501.84  1516.95
                             1537.09  1550.53  1596.66  1602.46  1644.97
                             1665.73  1696.45  1714.39  1717.89  1729.03
                             1747.68  1821.33  1843.50  1898.51  1919.56
                             1943.18  1960.85  2017.84  2075.01  2089.58
                             2129.02  2141.62  2175.53  2184.51  2185.06
                             2187.69  2197.27  2200.41  2219.52  2235.07
                             2331.44  2353.54  2368.09  2391.68  4259.44
                             4308.83  4378.22  4380.63  4412.62  4461.65
                             4488.05  4501.50  4578.65  4580.97  4584.64
                             4595.44  4611.18  4618.40  4621.24  4628.80
                             5056.07

 Zero-point correction=                           0.285177 (Hartree/Particle)
 Thermal correction to Energy=                    0.301658
 Thermal correction to Enthalpy=                  0.302603
 Thermal correction to Gibbs Free Energy=         0.239324
 Sum of electronic and zero-point Energies=          -1034.560382
 Sum of electronic and thermal Energies=             -1034.543901
 Sum of electronic and thermal Enthalpies=           -1034.542957
 Sum of electronic and thermal Free Energies=        -1034.606235

                     E (Thermal)             CV                S
                      KCal/Mol        Cal/Mol-Kelvin    Cal/Mol-Kelvin
 Total                  189.293             62.114            133.181
 Electronic               0.000              0.000              0.000
 Translational            0.889              2.981             42.366
 Rotational               0.889              2.981             33.021
 Vibrational            187.516             56.153             57.794
 Vibration     1          0.593              1.984              5.879
 Vibration     2          0.594              1.982              5.461
 Vibration     3          0.595              1.980              5.124
 Vibration     4          0.596              1.976              4.707
 Vibration     5          0.599              1.967              4.074
 Vibration     6          0.603              1.951              3.515
 Vibration     7          0.609              1.931              3.078
 Vibration     8          0.616              1.908              2.736
 Vibration     9          0.636              1.845              2.166
 Vibration    10          0.650              1.802              1.916
 Vibration    11          0.661              1.768              1.751
 Vibration    12          0.669              1.745              1.658
 Vibration    13          0.682              1.706              1.517
 Vibration    14          0.698              1.659              1.375
 Vibration    15          0.708              1.628              1.290
 Vibration    16          0.729              1.568              1.151
 Vibration    17          0.771              1.457              0.941
 Vibration    18          0.777              1.442              0.916
 Vibration    19          0.791              1.407              0.861
 Vibration    20          0.814              1.349              0.779
 Vibration    21          0.832              1.306              0.724
 Vibration    22          0.875              1.205              0.609
 Vibration    23          0.925              1.098              0.506

 Optimization completed on the basis of negligible forces.
    -- Stationary point found.
 Normal termination of Gaussian 16 at Mon Dec 14 20:14:22 2020.

 ----------------------------------------------------------------------
 # B3LYP/6-311++G(d,p) empiricaldispersion=gd3bj scf=xqc pop=npa geom=c
 heck
 ----------------------------------------------------------------------

 ---------------------------------------
 CID_108220968_JID_7862_Energie_neutraal
 ---------------------------------------
 Structure from the checkpoint file:  "JID_7862.chk"
 Charge =  0 Multiplicity = 1

 SCF Done:  E(RB3LYP) =  -1035.03889541     A.U. after   16 cycles
 Normal termination of Gaussian 16 at Mon Dec 14 20:20:59 2020.

 ----------------------------------------------------------------------
 # B3LYP/6-311++G(d,p) empiricaldispersion=gd3bj scf=xqc pop=npa geom=c
 heck
 ----------------------------------------------------------------------

 -------------------------------------
 CID_108220968_JID_7862_Energie_kation
 -------------------------------------
 Structure from the checkpoint file:  "JID_7862.chk"
 Charge =  1 Multiplicity = 2

 SCF Done:  E(UB3LYP) =  -1034.76410828     A.U. after   26 cycles
 Normal termination of Gaussian 16 at Mon Dec 14 20:35:57 2020.
 Gaussian 16:  ES64L-G16RevA.03 25-Dec-2016

 ----------------------------------------------------------------------
 # B3LYP/6-311++G(d,p) empiricaldispersion=gd3bj scf=xqc pop=npa geom=c
 heck
 ----------------------------------------------------------------------

 ------------------------------------
 CID_108220968_JID_7862_Energie_anion
 ------------------------------------
 Structure from the checkpoint file:  "JID_7862.chk"
 Charge = -1 Multiplicity = 2

                         Standard orientation:
 ---------------------------------------------------------------------
 Center     Atomic      Atomic             Coordinates (Angstroms)
 Number     Number       Type             X           Y           Z
 ---------------------------------------------------------------------
      1          6           0       -4.720746   -0.760005    1.043992
      2          6           0       -3.450461   -0.177282    0.475488
      3          6           0       -2.448635   -1.005213   -0.038268
      4          6           0       -1.274342   -0.503601   -0.607469
      5          6           0       -1.086469    0.891833   -0.622738
      6          6           0       -2.079757    1.735127   -0.110100
      7          6           0       -3.251209    1.206990    0.424603
      8         16           0        0.386424    1.659089   -1.307064
      9          6           0        1.646076    1.034628   -0.195240
     10          6           0        2.861797    0.597548   -0.731436
     11          6           0        3.861440    0.110608    0.112200
     12          6           0        3.648854    0.040815    1.488998
     13          6           0        2.435116    0.481117    2.024046
     14          6           0        1.439721    0.987706    1.190069
     15          6           0       -0.250235   -1.484432   -1.130417
     16          7           0        0.457717   -2.138011   -0.026015
     17          6           0        1.550122   -2.976499   -0.502024
     18          1           0       -4.549951   -1.756563    1.463467
     19          1           0       -5.134665   -0.123544    1.833065
     20          1           0       -5.491331   -0.859628    0.268149
     21          1           0       -2.574403   -2.084537    0.002422
     22          1           0       -1.919318    2.808543   -0.122755
     23          1           0       -4.010770    1.876602    0.820635
     24          1           0        3.013111    0.620396   -1.806349
     25          1           0        4.800034   -0.233835   -0.312748
     26          1           0        4.421905   -0.353294    2.141924
     27          1           0        2.263555    0.435373    3.095892
     28          1           0        0.495439    1.326719    1.603689
     29          1           0       -0.765536   -2.269569   -1.700157
     30          1           0        0.429538   -0.977331   -1.833928
     31          1           0        0.838957   -1.415631    0.581017
     32          1           0        2.271425   -2.446663   -1.151094
     33          1           0        2.095952   -3.383209    0.355201
     34          1           0        1.141620   -3.819214   -1.073514
 ---------------------------------------------------------------------

 SCF Done:  E(UB3LYP) =  -1035.02686510     A.U. after   33 cycles
 SCF Done:  E(UB3LYP) =  -1035.02686517     a.u. after    2 cycles

 The electronic state is 2-A.
 Alpha  occ. eigenvalues --  -88.74580 -14.19457 -10.09815 -10.09508 -10.09233
 Alpha  occ. eigenvalues --  -10.08560 -10.08086 -10.07686 -10.07668 -10.07519
 Alpha  occ. eigenvalues --  -10.07511 -10.07463 -10.07436 -10.07216 -10.07120
 Alpha  occ. eigenvalues --  -10.06870 -10.06816  -7.83168  -5.79557  -5.79185
 Alpha  occ. eigenvalues --   -5.78566  -0.80562  -0.76709  -0.75797  -0.70088
 Alpha  occ. eigenvalues --   -0.66732  -0.65884  -0.64923  -0.61315  -0.59272
 Alpha  occ. eigenvalues --   -0.56298  -0.53606  -0.50867  -0.50070  -0.49093
 Alpha  occ. eigenvalues --   -0.46379  -0.41811  -0.39850  -0.38544  -0.36931
 Alpha  occ. eigenvalues --   -0.35620  -0.35268  -0.34647  -0.34191  -0.33430
 Alpha  occ. eigenvalues --   -0.32571  -0.32452  -0.31380  -0.29928  -0.29215
 Alpha  occ. eigenvalues --   -0.28263  -0.27994  -0.27577  -0.26650  -0.25475
 Alpha  occ. eigenvalues --   -0.24991  -0.24125  -0.23617  -0.22300  -0.17834
 Alpha  occ. eigenvalues --   -0.16158  -0.15393  -0.15151  -0.12919  -0.11196
 Alpha  occ. eigenvalues --    0.04473
 Alpha virt. eigenvalues --    0.06058   0.06675   0.07267   0.07474   0.07800
 Alpha virt. eigenvalues --    0.07951   0.08296   0.08657   0.08946   0.09464
 Alpha virt. eigenvalues --    0.10245   0.10485   0.10607   0.11453   0.11890

  Beta  occ. eigenvalues --  -88.74584 -14.19451 -10.09691 -10.09416 -10.09231
  Beta  occ. eigenvalues --  -10.08550 -10.08048 -10.07658 -10.07546 -10.07500
  Beta  occ. eigenvalues --  -10.07497 -10.07444 -10.07401 -10.07205 -10.07126
  Beta  occ. eigenvalues --  -10.06827 -10.06763  -7.83170  -5.79564  -5.79187
  Beta  occ. eigenvalues --   -5.78571  -0.80538  -0.76572  -0.75666  -0.69911
  Beta  occ. eigenvalues --   -0.66598  -0.65756  -0.64826  -0.61190  -0.59244
  Beta  occ. eigenvalues --   -0.56202  -0.53584  -0.50816  -0.49993  -0.48910
  Beta  occ. eigenvalues --   -0.46245  -0.41708  -0.39799  -0.38467  -0.36869
  Beta  occ. eigenvalues --   -0.35530  -0.35171  -0.34600  -0.34135  -0.33395
  Beta  occ. eigenvalues --   -0.32496  -0.32305  -0.31257  -0.29886  -0.29150
  Beta  occ. eigenvalues --   -0.28158  -0.27874  -0.27507  -0.26517  -0.25296
  Beta  occ. eigenvalues --   -0.24921  -0.24046  -0.23543  -0.22191  -0.17550
  Beta  occ. eigenvalues --   -0.15941  -0.15099  -0.14734  -0.12815  -0.11003
  Beta virt. eigenvalues --    0.06489   0.06957   0.07499   0.07602   0.07724
  Beta virt. eigenvalues --    0.07939   0.08286   0.08700   0.08895   0.09291
  Beta virt. eigenvalues --    0.09717   0.10463   0.10658   0.10831   0.11502

 Mulliken charges and spin densities:
               1          2
     1  C    1.380949  -1.912145
     2  C    0.045331   0.527843
     3  C   -1.111804   0.700128
     4  C    1.034819  -0.094398
     5  C    1.069851  -0.423676
     6  C   -0.079744  -0.209772
     7  C   -1.007892   0.288779
     8  S    0.109632  -0.554072
     9  C    0.489535  -0.067223
    10  C   -0.801772   0.688469
    11  C    0.330413  -0.646856
    12  C    0.801149  -1.017751
    13  C   -0.179949  -0.052406
    14  C   -0.678319   0.236174
    15  C   -1.555660   0.407681
    16  N   -0.063449   0.012606
    17  C   -0.173607  -0.210737
    18  H   -0.004549   0.139658
    19  H   -0.022223   0.154215
    20  H   -0.207997   0.386983
    21  H    0.105079   0.057364
    22  H    0.022271   0.140633
    23  H   -0.167118   0.305208
    24  H   -0.036060   0.211316
    25  H   -0.633001   0.814042
    26  H   -0.404954   0.560829
    27  H   -0.115885   0.288580
    28  H    0.262152  -0.039913
    29  H    0.057424   0.088236
    30  H    0.078482   0.032016
    31  H    0.310127  -0.045563
    32  H    0.142413  -0.019871
    33  H   -0.090526   0.222822
    34  H    0.094880   0.030800
 Sum of Mulliken charges =  -1.00000   1.00000

 Dipole moment (field-independent basis, Debye):
    X=             -2.1185    Y=              0.6255    Z=             -0.9156  Tot=              2.3911
 Quadrupole moment (field-independent basis, Debye-Ang):
   XX=           -207.6996   YY=           -141.4578   ZZ=           -136.6367
   XY=              2.7334   XZ=             -6.5432   YZ=              5.5257

 Summary of Natural Population Analysis:

                                       Natural Population
                Natural  -----------------------------------------------
    Atom  No    Charge         Core      Valence    Rydberg      Total
 -----------------------------------------------------------------------
      C    1   -0.29390      0.99964     2.28875    0.00551     3.29390
      C    2    0.00890      0.99952     1.98319    0.00840     2.99110
      C    3   -0.09548      0.99947     2.08654    0.00948     3.09548
      C    4   -0.00994      0.99943     2.00029    0.01022     3.00994
      C    5   -0.08039      0.99934     2.06805    0.01300     3.08039
      C    6   -0.09464      0.99950     2.08363    0.01151     3.09464
      C    7   -0.10709      0.99951     2.09843    0.00915     3.10709
      S    8    0.12426      4.99949     2.85751    0.01874     7.87574
      C    9   -0.07478      0.99939     2.06187    0.01352     3.07478
      C   10   -0.10745      0.99949     2.09614    0.01183     3.10745
      C   11   -0.09810      0.99956     2.08759    0.01095     3.09810
      C   12   -0.09178      0.99956     2.08108    0.01113     3.09178
      C   13   -0.10079      0.99956     2.09096    0.01027     3.10079
      C   14   -0.11437      0.99949     2.10502    0.00987     3.11437
      C   15   -0.09657      0.99959     2.08694    0.01004     3.09657
      N   16   -0.33816      0.99975     2.82822    0.01019     3.83816
      C   17   -0.17931      0.99967     2.17103    0.00861     3.17931
      H   18    0.10079      0.00000     0.39837    0.00085     0.39921
      H   19    0.10020      0.00000     0.39902    0.00077     0.39980
      H   20    0.10762      0.00000     0.39014    0.00224     0.39238
      H   21    0.09973      0.00000     0.39912    0.00115     0.40027
      H   22    0.10243      0.00000     0.39642    0.00114     0.39757
      H   23    0.09760      0.00000     0.40150    0.00090     0.40240
      H   24    0.10324      0.00000     0.39554    0.00123     0.39676
      H   25    0.10252      0.00000     0.39558    0.00189     0.39748
      H   26    0.10136      0.00000     0.39716    0.00148     0.39864
      H   27    0.10053      0.00000     0.39865    0.00082     0.39947
      H   28    0.10764      0.00000     0.39099    0.00137     0.39236
      H   29    0.09167      0.00000     0.40712    0.00121     0.40833
      H   30    0.09122      0.00000     0.40703    0.00175     0.40878
      H   31    0.17986      0.00000     0.31555    0.00459     0.32014
      H   32    0.08170      0.00000     0.41708    0.00122     0.41830
      H   33    0.09629      0.00000     0.40281    0.00091     0.40371
      H   34    0.08518      0.00000     0.41393    0.00090     0.41482
 =======================================================================
   * Total *    0.00000     20.99195    43.80123    0.20682    65.00000

 Normal termination of Gaussian 16 at Mon Dec 14 21:13:40 2020.
