 Gaussian 16, Revision A.03,

 -----------------------------------------------------------
 # opt freq B3LYP/6-31G(d) empiricaldispersion=gd3bj scf=xqc
 -----------------------------------------------------------

 ------------------------------
 CID_63315623_JID_3080_neutraal
 ------------------------------
 Symbolic Z-matrix:
 Charge =  0 Multiplicity = 1

 SCF Done:  E(RB3LYP) =  -929.206023439     A.U. after   15 cycles
 SCF Done:  E(RB3LYP) =  -929.173947573     A.U. after   15 cycles
 SCF Done:  E(RB3LYP) =  -929.211355681     A.U. after   13 cycles
 SCF Done:  E(RB3LYP) =  -929.213183646     A.U. after   13 cycles
 SCF Done:  E(RB3LYP) =  -929.213729095     A.U. after   13 cycles
 SCF Done:  E(RB3LYP) =  -929.213855253     A.U. after   12 cycles
 SCF Done:  E(RB3LYP) =  -929.214497373     A.U. after   12 cycles
 SCF Done:  E(RB3LYP) =  -929.213701625     A.U. after   12 cycles
 SCF Done:  E(RB3LYP) =  -929.214634665     A.U. after   11 cycles
 SCF Done:  E(RB3LYP) =  -929.214690910     A.U. after   11 cycles
 SCF Done:  E(RB3LYP) =  -929.214738090     A.U. after    8 cycles
 SCF Done:  E(RB3LYP) =  -929.214738840     A.U. after    8 cycles
 SCF Done:  E(RB3LYP) =  -929.214739117     A.U. after    8 cycles
 SCF Done:  E(RB3LYP) =  -929.214739195     A.U. after    7 cycles
 SCF Done:  E(RB3LYP) =  -929.214739229     A.U. after    7 cycles
 SCF Done:  E(RB3LYP) =  -929.214739235     A.U. after    7 cycles
 Optimization completed.
    -- Stationary point found.
 Normal termination of Gaussian 16 at Wed Dec  9 22:27:44 2020.

 --------------------------------------------------------------------
 #N Geom=AllCheck Guess=TCheck SCRF=Check GenChk RB3LYP/6-31G(d) Freq
 --------------------------------------------------------------------

 Structure from the checkpoint file:  "JID_3080.chk"
 ------------------------------
 CID_63315623_JID_3080_neutraal
 ------------------------------
 Charge =  0 Multiplicity = 1

 SCF Done:  E(RB3LYP) =  -929.214739235     A.U. after    1 cycles

  Exact polarizability: 155.411  -4.793  96.253   2.899   3.083  98.585
 Approx polarizability: 237.087 -14.867 142.267   6.720   9.919 170.558

                      1                      2                      3
                      A                      A                      A
 Frequencies --     49.7851                81.1891               102.2649
 Red. masses --      3.3272                 4.0481                 3.9768
 Frc consts  --      0.0049                 0.0157                 0.0245
 IR Inten    --      6.4863                 6.2770                 0.1445

                      4                      5                      6
                      A                      A                      A
 Frequencies --    105.8205               131.2134               150.2467
 Red. masses --      4.3269                 4.8856                 3.3838
 Frc consts  --      0.0285                 0.0496                 0.0450
 IR Inten    --      1.5042                 0.3689                 8.4047

                      7                      8                      9
                      A                      A                      A
 Frequencies --    180.6077               200.3363               212.4521
 Red. masses --      1.3119                 1.4051                 2.6933
 Frc consts  --      0.0252                 0.0332                 0.0716
 IR Inten    --     11.2048                 6.4119                 3.8067

                     10                     11                     12
                      A                      A                      A
 Frequencies --    233.6516               255.9650               276.6905
 Red. masses --      2.5586                 2.9763                 2.3454
 Frc consts  --      0.0823                 0.1149                 0.1058
 IR Inten    --     25.7835                 6.2210                11.6325

                     13                     14                     15
                      A                      A                      A
 Frequencies --    291.1210               342.9326               353.4530
 Red. masses --      4.3184                 5.7202                 2.6378
 Frc consts  --      0.2156                 0.3963                 0.1942
 IR Inten    --      0.2164                 6.9760                 1.1318

                     16                     17                     18
                      A                      A                      A
 Frequencies --    444.2914               476.8112               490.2131
 Red. masses --      6.5320                 6.4738                 4.8681
 Frc consts  --      0.7597                 0.8672                 0.6893
 IR Inten    --      6.8654                 1.0559                 2.5396

                     19                     20                     21
                      A                      A                      A
 Frequencies --    547.4582               636.8643               677.7970
 Red. masses --      3.1722                 4.7937                 1.6391
 Frc consts  --      0.5602                 1.1456                 0.4437
 IR Inten    --      2.4788                 0.6390                50.7491

                     22                     23                     24
                      A                      A                      A
 Frequencies --    688.1450               694.8776               721.9658
 Red. masses --      2.5039                 9.8121                 5.0816
 Frc consts  --      0.6986                 2.7915                 1.5606
 IR Inten    --     31.2432                 1.8049                15.8139

                     25                     26                     27
                      A                      A                      A
 Frequencies --    728.5911               764.1286               840.2641
 Red. masses --      1.1945                 4.0202                 2.5297
 Frc consts  --      0.3736                 1.3830                 1.0523
 IR Inten    --     38.9705                24.4510                 2.4418

                     28                     29                     30
                      A                      A                      A
 Frequencies --    875.8081               934.5877               987.1504
 Red. masses --      1.3214                 1.9710                 2.6934
 Frc consts  --      0.5972                 1.0143                 1.5464
 IR Inten    --     78.8686                 3.7118                16.3141

                     31                     32                     33
                      A                      A                      A
 Frequencies --    993.9991              1007.6241              1044.0236
 Red. masses --      2.0019                 3.2447                 2.9483
 Frc consts  --      1.1653                 1.9410                 1.8934
 IR Inten    --      8.5264                21.6557                 0.1759

                     34                     35                     36
                      A                      A                      A
 Frequencies --   1057.4708              1097.9666              1139.0857
 Red. masses --      2.3595                 5.7838                 2.0320
 Frc consts  --      1.5545                 4.1081                 1.5534
 IR Inten    --     10.7090                 4.5526                11.5719

                     37                     38                     39
                      A                      A                      A
 Frequencies --   1162.4129              1174.4616              1197.4378
 Red. masses --      1.3640                 1.4847                 1.1022
 Frc consts  --      1.0859                 1.2066                 0.9312
 IR Inten    --      3.6917                 0.6419                 2.6289

                     40                     41                     42
                      A                      A                      A
 Frequencies --   1250.0243              1269.2177              1335.7116
 Red. masses --      1.1517                 3.2393                 1.2447
 Frc consts  --      1.0603                 3.0745                 1.3084
 IR Inten    --      1.1022                 3.7328                17.6547

                     43                     44                     45
                      A                      A                      A
 Frequencies --   1339.8148              1370.3052              1375.5199
 Red. masses --      1.2522                 4.5952                 1.3954
 Frc consts  --      1.3244                 5.0839                 1.5555
 IR Inten    --     12.7037                 5.5345                 6.5253

                     46                     47                     48
                      A                      A                      A
 Frequencies --   1422.2144              1442.1872              1452.8219
 Red. masses --      1.6720                 4.9727                 1.6951
 Frc consts  --      1.9926                 6.0938                 2.1080
 IR Inten    --      9.1266                15.2721                21.4369

                     49                     50                     51
                      A                      A                      A
 Frequencies --   1493.4469              1500.4858              1509.5730
 Red. masses --      1.0886                 1.0900                 1.5763
 Frc consts  --      1.4306                 1.4460                 2.1164
 IR Inten    --      9.2310                 8.6233                46.0926

                     52                     53                     54
                      A                      A                      A
 Frequencies --   1517.8930              1519.6601              1540.5329
 Red. masses --      1.1696                 1.2895                 1.3116
 Frc consts  --      1.5877                 1.7546                 1.8339
 IR Inten    --      6.4391                20.1608                 2.6874

                     55                     56                     57
                      A                      A                      A
 Frequencies --   1565.5062              1698.9663              2235.3126
 Red. masses --      3.1176                 1.0885                 5.8122
 Frc consts  --      4.5017                 1.8511                17.1108
 IR Inten    --     10.2169                27.7219                 1.8831

                     58                     59                     60
                      A                      A                      A
 Frequencies --   2969.8987              3034.0072              3061.6615
 Red. masses --      1.0734                 1.0647                 1.0351
 Frc consts  --      5.5783                 5.7745                 5.7168
 IR Inten    --     68.1678                19.2301                25.0332

                     61                     62                     63
                      A                      A                      A
 Frequencies --   3076.7676              3087.6931              3132.0265
 Red. masses --      1.0680                 1.0865                 1.1065
 Frc consts  --      5.9566                 6.1032                 6.3955
 IR Inten    --     13.5031                15.5997                14.5258

                     64                     65                     66
                      A                      A                      A
 Frequencies --   3133.1038              3133.8769              3162.3882
 Red. masses --      1.0901                 1.1036                 1.1035
 Frc consts  --      6.3048                 6.3857                 6.5023
 IR Inten    --      5.9186                 8.1564                 3.2422

                     67                     68                     69
                      A                      A                      A
 Frequencies --   3435.3579              3472.4256              3556.4254
 Red. masses --      1.1669                 1.0499                 1.0926
 Frc consts  --      8.1140                 7.4589                 8.1423
 IR Inten    --    107.1284                 0.9167                 0.0792

 - Thermochemistry -
 -------------------
 Temperature   298.150 Kelvin.  Pressure   1.00000 Atm.
 Atom     1 has atomic number  6 and mass  12.00000

 Molecular mass:   196.07827 amu.
 Principal axes and moments of inertia in atomic units:
                           1         2         3
     Eigenvalues --  1584.037053133.968473555.92556
           X            0.99977   0.01703  -0.01337
           Y           -0.01732   0.99961  -0.02181
           Z            0.01299   0.02204   0.99967
 This molecule is an asymmetric top.
 Rotational symmetry number  1.
 Warning -- assumption of classical behavior for rotation
           may cause significant error
 Rotational temperatures (Kelvin)      0.05468     0.02764     0.02436
 Rotational constants (GHZ):           1.13933     0.57586     0.50753
 Zero-point vibrational energy     529024.5 (Joules/Mol)
                                  126.43989 (Kcal/Mol)
 Warning -- explicit consideration of  19 degrees of freedom as
           vibrations may cause significant error
 Vibrational temperatures:     71.63   116.81   147.14   152.25   188.79
          (Kelvin)            216.17   259.85   288.24   305.67   336.17
                              368.28   398.10   418.86   493.40   508.54
                              639.24   686.03   705.31   787.67   916.31
                              975.20   990.09   999.77  1038.75  1048.28
                             1099.41  1208.95  1260.09  1344.66  1420.29
                             1430.14  1449.75  1502.12  1521.46  1579.73
                             1638.89  1672.45  1689.79  1722.85  1798.51
                             1826.12  1921.79  1927.69  1971.56  1979.07
                             2046.25  2074.99  2090.29  2148.74  2158.86
                             2171.94  2183.91  2186.45  2216.48  2252.41
                             2444.43  3216.12  4273.02  4365.26  4405.05
                             4426.78  4442.50  4506.29  4507.84  4508.95
                             4549.97  4942.71  4996.05  5116.90

 Zero-point correction=                           0.201495 (Hartree/Particle)
 Thermal correction to Energy=                    0.215284
 Thermal correction to Enthalpy=                  0.216228
 Thermal correction to Gibbs Free Energy=         0.161240
 Sum of electronic and zero-point Energies=           -929.013244
 Sum of electronic and thermal Energies=              -928.999456
 Sum of electronic and thermal Enthalpies=            -928.998511
 Sum of electronic and thermal Free Energies=         -929.053499

                     E (Thermal)             CV                S
                      KCal/Mol        Cal/Mol-Kelvin    Cal/Mol-Kelvin
 Total                  135.093             50.336            115.731
 Electronic               0.000              0.000              0.000
 Translational            0.889              2.981             41.725
 Rotational               0.889              2.981             31.246
 Vibrational            133.315             44.375             42.760
 Vibration     1          0.595              1.978              4.826
 Vibration     2          0.600              1.962              3.862
 Vibration     3          0.604              1.947              3.411
 Vibration     4          0.605              1.945              3.344
 Vibration     5          0.612              1.922              2.928
 Vibration     6          0.618              1.902              2.669
 Vibration     7          0.630              1.866              2.322
 Vibration     8          0.638              1.839              2.130
 Vibration     9          0.643              1.822              2.023
 Vibration    10          0.654              1.789              1.851
 Vibration    11          0.666              1.753              1.689
 Vibration    12          0.678              1.717              1.554
 Vibration    13          0.687              1.690              1.467
 Vibration    14          0.722              1.590              1.198
 Vibration    15          0.730              1.568              1.151
 Vibration    16          0.804              1.373              0.813
 Vibration    17          0.833              1.301              0.719
 Vibration    18          0.846              1.272              0.683
 Vibration    19          0.903              1.145              0.549

                           ! Non-Optimized Parameters !
 Normal termination of Gaussian 16 at Wed Dec  9 22:34:27 2020.

 ----------------------------------------------------------------------
 # B3LYP/6-311++G(d,p) empiricaldispersion=gd3bj scf=xqc pop=npa geom=c
 heck
 ----------------------------------------------------------------------

 --------------------------------------
 CID_63315623_JID_3080_Energie_neutraal
 --------------------------------------
 Structure from the checkpoint file:  "JID_3080.chk"
 Charge =  0 Multiplicity = 1

 SCF Done:  E(RB3LYP) =  -929.395323081     A.U. after   15 cycles
 Normal termination of Gaussian 16 at Wed Dec  9 22:37:25 2020.

 ----------------------------------------------------------------------
 # B3LYP/6-311++G(d,p) empiricaldispersion=gd3bj scf=xqc pop=npa geom=c
 heck
 ----------------------------------------------------------------------

 ------------------------------------
 CID_63315623_JID_3080_Energie_kation
 ------------------------------------
 Structure from the checkpoint file:  "JID_3080.chk"
 Charge =  1 Multiplicity = 2

 SCF Done:  E(UB3LYP) =  -929.083158520     A.U. after   30 cycles
 Normal termination of Gaussian 16 at Wed Dec  9 22:46:56 2020.
 Gaussian 16:  ES64L-G16RevA.03 25-Dec-2016

 ----------------------------------------------------------------------
 # B3LYP/6-311++G(d,p) empiricaldispersion=gd3bj scf=xqc pop=npa geom=c
 heck
 ----------------------------------------------------------------------

 -----------------------------------
 CID_63315623_JID_3080_Energie_anion
 -----------------------------------
 Structure from the checkpoint file:  "JID_3080.chk"
 Charge = -1 Multiplicity = 2

                         Standard orientation:
 ---------------------------------------------------------------------
 Center     Atomic      Atomic             Coordinates (Angstroms)
 Number     Number       Type             X           Y           Z
 ---------------------------------------------------------------------
      1          6           0       -0.581744   -0.468400    1.904096
      2          7           0       -0.583234   -0.756373    0.484105
      3          6           0       -1.627360   -0.645299   -0.393614
      4          7           0       -1.210616   -0.869538   -1.625145
      5          7           0        0.143744   -1.092412   -1.577566
      6          6           0        0.514524   -1.001266   -0.315585
      7         16           0        2.159785   -1.196974    0.268019
      8          6           0        2.659505    0.551423    0.615214
      9          6           0        2.293124    1.568029   -0.480809
     10          6           0        0.887320    1.967530   -0.444662
     11          6           0       -0.275558    2.290761   -0.387835
     12          6           0       -3.039016   -0.323625   -0.019772
     13          7           0       -3.187523    1.061240    0.469785
     14          1           0       -1.516555   -0.815739    2.351694
     15          1           0        0.251626   -0.998381    2.369058
     16          1           0       -0.464417    0.607685    2.071576
     17          1           0        2.253197    0.870082    1.578931
     18          1           0        3.747473    0.482630    0.712541
     19          1           0        2.930346    2.452714   -0.342380
     20          1           0        2.537122    1.148905   -1.464484
     21          1           0       -1.334255    2.447146   -0.352298
     22          1           0       -3.615744   -0.422272   -0.942231
     23          1           0       -3.420284   -1.081456    0.686771
     24          1           0       -4.177826    1.299215    0.487059
     25          1           0       -2.868619    1.125723    1.435011
 ---------------------------------------------------------------------

 SCF Done:  E(UB3LYP) =  -929.393292507     A.U. after   30 cycles

 The electronic state is 2-A.
 Alpha  occ. eigenvalues --  -88.75879 -14.27476 -14.21757 -14.21420 -14.19918
 Alpha  occ. eigenvalues --  -10.14464 -10.12756 -10.11497 -10.11323 -10.10816
 Alpha  occ. eigenvalues --  -10.10812 -10.06896 -10.05463  -7.84456  -5.80871
 Alpha  occ. eigenvalues --   -5.80487  -5.79811  -0.95840  -0.82436  -0.79008
 Alpha  occ. eigenvalues --   -0.73985  -0.70831  -0.65836  -0.63247  -0.61308
 Alpha  occ. eigenvalues --   -0.58618  -0.54350  -0.49884  -0.46566  -0.42584
 Alpha  occ. eigenvalues --   -0.40703  -0.39737  -0.39262  -0.38120  -0.36469
 Alpha  occ. eigenvalues --   -0.35534  -0.34510  -0.33210  -0.31408  -0.30984
 Alpha  occ. eigenvalues --   -0.30308  -0.29522  -0.27725  -0.24515  -0.21073
 Alpha  occ. eigenvalues --   -0.18783  -0.17397  -0.16966  -0.16363  -0.15389
 Alpha  occ. eigenvalues --   -0.15326  -0.13978   0.03743
 Alpha virt. eigenvalues --    0.05838   0.07690   0.08288   0.08706   0.09506
 Alpha virt. eigenvalues --    0.10005   0.10635   0.11316   0.11538   0.11873
 Alpha virt. eigenvalues --    0.12522   0.13291   0.13680   0.13943   0.14413

  Beta  occ. eigenvalues --  -88.75876 -14.27433 -14.21742 -14.21426 -14.19847
  Beta  occ. eigenvalues --  -10.14436 -10.12723 -10.11428 -10.11262 -10.10799
  Beta  occ. eigenvalues --  -10.10793 -10.06898 -10.05445  -7.84454  -5.80860
  Beta  occ. eigenvalues --   -5.80485  -5.79810  -0.95792  -0.82374  -0.78885
  Beta  occ. eigenvalues --   -0.73914  -0.70778  -0.65774  -0.63158  -0.61258
  Beta  occ. eigenvalues --   -0.58520  -0.54256  -0.49833  -0.46492  -0.42550
  Beta  occ. eigenvalues --   -0.40626  -0.39638  -0.39170  -0.38077  -0.36394
  Beta  occ. eigenvalues --   -0.35426  -0.34434  -0.33143  -0.31346  -0.30891
  Beta  occ. eigenvalues --   -0.30257  -0.29464  -0.27667  -0.24425  -0.21049
  Beta  occ. eigenvalues --   -0.18652  -0.17319  -0.16943  -0.16302  -0.15341
  Beta  occ. eigenvalues --   -0.15238  -0.13905
  Beta virt. eigenvalues --    0.06307   0.07194   0.08493   0.08550   0.09208
  Beta virt. eigenvalues --    0.10078   0.10525   0.10960   0.11374   0.11744
  Beta virt. eigenvalues --    0.12387   0.12919   0.13631   0.13726   0.14165

 Mulliken charges and spin densities:
               1          2
     1  C    0.982641  -1.430813
     2  N   -0.079786   0.198074
     3  C   -0.176542   0.464094
     4  N   -0.069474   0.004975
     5  N    0.002843   0.006520
     6  C    0.024957   0.211848
     7  S   -0.137749  -0.259496
     8  C    0.370292  -0.714287
     9  C   -1.051126   0.299281
    10  C    0.732746  -0.387209
    11  C   -0.334334  -0.004478
    12  C    0.574232  -1.243037
    13  N   -0.374334  -0.050366
    14  H   -0.447304   0.613100
    15  H   -0.175536   0.344111
    16  H   -0.219260   0.419259
    17  H   -0.041623   0.216050
    18  H   -0.381269   0.603836
    19  H   -0.030833   0.214143
    20  H    0.211625  -0.031772
    21  H    0.175338   0.104664
    22  H    0.080065   0.109576
    23  H   -0.268317   0.434320
    24  H   -0.213139   0.477071
    25  H   -0.154114   0.400537
 Sum of Mulliken charges =  -1.00000   1.00000

 Dipole moment (field-independent basis, Debye):
    X=              3.7262    Y=             -0.9549    Z=             -1.7640  Tot=              4.2318
 Quadrupole moment (field-independent basis, Debye-Ang):
   XX=           -142.2579   YY=           -116.0644   ZZ=           -129.2179
   XY=              4.4790   XZ=              5.9907   YZ=             -6.4729

 Summary of Natural Population Analysis:

                                       Natural Population
                Natural  -----------------------------------------------
    Atom  No    Charge         Core      Valence    Rydberg      Total
 -----------------------------------------------------------------------
      C    1   -0.18251      0.99963     2.17387    0.00901     3.18251
      N    2   -0.21196      0.99955     2.69956    0.01285     3.71196
      C    3    0.19640      0.99958     1.78557    0.01844     2.80360
      N    4   -0.16412      0.99969     2.65208    0.01235     3.66412
      N    5   -0.15613      0.99966     2.64341    0.01306     3.65613
      C    6    0.09371      0.99954     1.88347    0.02328     2.90629
      S    7    0.11711      4.99952     2.86397    0.01939     7.88289
      C    8   -0.23558      0.99958     2.22468    0.01132     3.23558
      C    9   -0.23725      0.99956     2.22775    0.00994     3.23725
      C   10   -0.01864      0.99938     2.01068    0.00858     3.01864
      C   11   -0.11345      0.99925     2.11000    0.00421     3.11345
      C   12   -0.11367      0.99958     2.10134    0.01275     3.11367
      N   13   -0.42338      0.99977     2.91125    0.01236     3.92338
      H   14    0.10536      0.00000     0.39285    0.00179     0.39464
      H   15    0.10847      0.00000     0.39012    0.00140     0.39153
      H   16    0.10739      0.00000     0.39032    0.00229     0.39261
      H   17    0.10388      0.00000     0.39413    0.00199     0.39612
      H   18    0.10719      0.00000     0.39112    0.00169     0.39281
      H   19    0.11359      0.00000     0.38514    0.00127     0.38641
      H   20    0.11753      0.00000     0.38114    0.00133     0.38247
      H   21    0.12652      0.00000     0.37177    0.00172     0.37348
      H   22    0.10756      0.00000     0.39097    0.00147     0.39244
      H   23    0.09171      0.00000     0.40625    0.00205     0.40829
      H   24    0.18091      0.00000     0.31553    0.00357     0.31909
      H   25    0.17936      0.00000     0.31425    0.00640     0.32064
 =======================================================================
   * Total *   -0.00000     16.99429    34.81123    0.19449    52.00000

 Normal termination of Gaussian 16 at Wed Dec  9 22:56:12 2020.
