 Gaussian 16, Revision A.03,

 -----------------------------------------------------------
 # opt freq B3LYP/6-31G(d) empiricaldispersion=gd3bj scf=xqc
 -----------------------------------------------------------

 -------------------------------
 CID_137083811_JID_2975_neutraal
 -------------------------------
 Symbolic Z-matrix:
 Charge =  0 Multiplicity = 1

 SCF Done:  E(RB3LYP) =  -589.253947799     A.U. after   15 cycles
 SCF Done:  E(RB3LYP) =  -589.260554793     A.U. after   12 cycles
 SCF Done:  E(RB3LYP) =  -589.260920114     A.U. after   12 cycles
 SCF Done:  E(RB3LYP) =  -589.261451041     A.U. after   13 cycles
 SCF Done:  E(RB3LYP) =  -589.262309293     A.U. after   12 cycles
 SCF Done:  E(RB3LYP) =  -589.262534655     A.U. after   12 cycles
 SCF Done:  E(RB3LYP) =  -589.262563406     A.U. after   10 cycles
 SCF Done:  E(RB3LYP) =  -589.262590941     A.U. after   11 cycles
 SCF Done:  E(RB3LYP) =  -589.262607260     A.U. after   12 cycles
 SCF Done:  E(RB3LYP) =  -589.262620711     A.U. after   10 cycles
 SCF Done:  E(RB3LYP) =  -589.264157668     A.U. after   11 cycles
 SCF Done:  E(RB3LYP) =  -589.264158865     A.U. after    9 cycles
 SCF Done:  E(RB3LYP) =  -589.264158626     A.U. after    9 cycles
 SCF Done:  E(RB3LYP) =  -589.264159188     A.U. after    8 cycles
 SCF Done:  E(RB3LYP) =  -589.264159224     A.U. after    7 cycles
 SCF Done:  E(RB3LYP) =  -589.264159240     A.U. after    7 cycles
 Optimization completed.
    -- Stationary point found.
 Normal termination of Gaussian 16 at Wed Dec  9 18:43:22 2020.

 --------------------------------------------------------------------
 #N Geom=AllCheck Guess=TCheck SCRF=Check GenChk RB3LYP/6-31G(d) Freq
 --------------------------------------------------------------------

 Structure from the checkpoint file:  "JID_2975.chk"
 -------------------------------
 CID_137083811_JID_2975_neutraal
 -------------------------------
 Charge =  0 Multiplicity = 1

 SCF Done:  E(RB3LYP) =  -589.264159240     A.U. after    1 cycles

  Exact polarizability: 122.995  12.344 103.720   2.840  -0.383  73.599
 Approx polarizability: 161.303  21.360 142.787  10.958   2.233 112.209

                      1                      2                      3
                      A                      A                      A
 Frequencies --     28.0440                55.6930                87.8580
 Red. masses --      5.3420                 3.4813                 1.0463
 Frc consts  --      0.0025                 0.0064                 0.0048
 IR Inten    --      1.9904                 2.2103                 0.6662

                      4                      5                      6
                      A                      A                      A
 Frequencies --    101.7778               111.5327               140.1440
 Red. masses --      3.0796                 2.6987                 1.2044
 Frc consts  --      0.0188                 0.0198                 0.0139
 IR Inten    --      0.3436                 0.3128                 0.2420

                      7                      8                      9
                      A                      A                      A
 Frequencies --    183.5646               226.1555               242.6615
 Red. masses --      3.1200                 3.2183                 2.9645
 Frc consts  --      0.0619                 0.0970                 0.1028
 IR Inten    --      8.0144                 3.1936                 4.7592

                     10                     11                     12
                      A                      A                      A
 Frequencies --    247.2520               266.7847               327.9330
 Red. masses --      2.2537                 1.4036                 3.3229
 Frc consts  --      0.0812                 0.0589                 0.2105
 IR Inten    --      3.8982                 3.1208                 8.0301

                     13                     14                     15
                      A                      A                      A
 Frequencies --    353.4845               387.0064               417.7763
 Red. masses --      3.2175                 4.1273                 6.0571
 Frc consts  --      0.2369                 0.3642                 0.6229
 IR Inten    --      4.6977                 4.4665                 5.7380

                     16                     17                     18
                      A                      A                      A
 Frequencies --    483.9828               549.9053               596.9005
 Red. masses --      2.4210                 3.7024                 4.6618
 Frc consts  --      0.3341                 0.6596                 0.9786
 IR Inten    --     13.3044                13.7627                25.6710

                     19                     20                     21
                      A                      A                      A
 Frequencies --    621.2695               682.9270               754.6655
 Red. masses --      2.9461                 4.7303                 3.0673
 Frc consts  --      0.6700                 1.2998                 1.0292
 IR Inten    --     44.6786                16.8211                86.1416

                     22                     23                     24
                      A                      A                      A
 Frequencies --    795.7010               849.0170               900.3603
 Red. masses --      4.0089                 3.5348                 2.8415
 Frc consts  --      1.4955                 1.5012                 1.3572
 IR Inten    --     42.6139                 8.3970                14.9365

                     25                     26                     27
                      A                      A                      A
 Frequencies --    907.7097               979.7470              1019.9487
 Red. masses --      3.4476                 2.6467                 2.3669
 Frc consts  --      1.6737                 1.4968                 1.4507
 IR Inten    --      1.1064                41.1839                17.4782

                     28                     29                     30
                      A                      A                      A
 Frequencies --   1065.5273              1089.4906              1104.0516
 Red. masses --      5.8802                 3.7308                 2.8468
 Frc consts  --      3.9335                 2.6091                 2.0445
 IR Inten    --     84.0561                 4.6323                 6.3692

                     31                     32                     33
                      A                      A                      A
 Frequencies --   1139.9839              1152.4952              1169.2179
 Red. masses --      1.3673                 2.5578                 1.3279
 Frc consts  --      1.0469                 2.0017                 1.0695
 IR Inten    --      1.0654                18.9143                 1.6113

                     34                     35                     36
                      A                      A                      A
 Frequencies --   1174.4554              1186.4223              1213.0143
 Red. masses --      1.5689                 1.2774                 1.5525
 Frc consts  --      1.2750                 1.0594                 1.3459
 IR Inten    --      3.1108                 1.5520                19.8527

                     37                     38                     39
                      A                      A                      A
 Frequencies --   1223.0041              1252.1825              1286.2288
 Red. masses --      1.5887                 1.8883                 1.6962
 Frc consts  --      1.4001                 1.7444                 1.6534
 IR Inten    --      1.6022                14.4526                61.2268

                     40                     41                     42
                      A                      A                      A
 Frequencies --   1313.4035              1327.9215              1369.1182
 Red. masses --      3.2859                 2.2273                 1.4621
 Frc consts  --      3.3397                 2.3140                 1.6147
 IR Inten    --    280.6007                52.0869                 3.8845

                     43                     44                     45
                      A                      A                      A
 Frequencies --   1389.8251              1424.8633              1475.5191
 Red. masses --      1.5830                 1.6915                 1.1746
 Frc consts  --      1.8016                 2.0234                 1.5067
 IR Inten    --      8.5805                19.1399                31.8331

                     46                     47                     48
                      A                      A                      A
 Frequencies --   1476.5566              1493.6077              1502.9517
 Red. masses --      1.1818                 1.2222                 1.0959
 Frc consts  --      1.5181                 1.6065                 1.4586
 IR Inten    --      9.0681                 8.8716                 2.2942

                     49                     50                     51
                      A                      A                      A
 Frequencies --   1512.7293              1517.2793              1517.9190
 Red. masses --      1.0479                 1.0478                 1.0432
 Frc consts  --      1.4129                 1.4212                 1.4162
 IR Inten    --      7.9035                 6.9535                 0.8971

                     52                     53                     54
                      A                      A                      A
 Frequencies --   1523.2146              1530.6069              1535.1741
 Red. masses --      1.0469                 1.0482                 1.0581
 Frc consts  --      1.4311                 1.4468                 1.4692
 IR Inten    --      8.6156                11.0593                 9.9776

                     55                     56                     57
                      A                      A                      A
 Frequencies --   1788.7392              1820.7599              2998.4918
 Red. masses --      9.4948                10.9916                 1.0819
 Frc consts  --     17.8991                21.4693                 5.7311
 IR Inten    --    350.3757               208.0983                19.4044

                     58                     59                     60
                      A                      A                      A
 Frequencies --   3002.3934              3005.2633              3067.2702
 Red. masses --      1.0409                 1.0522                 1.0928
 Frc consts  --      5.5282                 5.5991                 6.0575
 IR Inten    --     85.5921                59.6502                62.7938

                     61                     62                     63
                      A                      A                      A
 Frequencies --   3079.8056              3080.4636              3100.4200
 Red. masses --      1.0294                 1.1019                 1.0601
 Frc consts  --      5.7528                 6.1608                 6.0041
 IR Inten    --     28.6421                32.8353                 5.9046

                     64                     65                     66
                      A                      A                      A
 Frequencies --   3106.1585              3144.0991              3156.3250
 Red. masses --      1.0868                 1.1050                 1.1077
 Frc consts  --      6.1781                 6.4361                 6.5018
 IR Inten    --     33.6471                 5.9421                18.2571

                     67                     68                     69
                      A                      A                      A
 Frequencies --   3162.5984              3188.5787              3542.2164
 Red. masses --      1.1006                 1.1075                 1.0765
 Frc consts  --      6.4859                 6.6340                 7.9583
 IR Inten    --      7.3314                14.2842                13.8119

 - Thermochemistry -
 -------------------
 Temperature   298.150 Kelvin.  Pressure   1.00000 Atm.
 Atom     1 has atomic number  6 and mass  12.00000

 Molecular mass:   171.10078 amu.
 Principal axes and moments of inertia in atomic units:
                           1         2         3
     Eigenvalues --  1218.330963003.544753898.82392
           X            0.99985   0.01314  -0.01166
           Y           -0.01317   0.99991  -0.00212
           Z            0.01163   0.00228   0.99993
 This molecule is an asymmetric top.
 Rotational symmetry number  1.
 Warning -- assumption of classical behavior for rotation
           may cause significant error
 Rotational temperatures (Kelvin)      0.07109     0.02884     0.02222
 Rotational constants (GHZ):           1.48132     0.60087     0.46289
 Zero-point vibrational energy     553453.2 (Joules/Mol)
                                  132.27849 (Kcal/Mol)
 Warning -- explicit consideration of  18 degrees of freedom as
           vibrations may cause significant error
 Vibrational temperatures:     40.35    80.13   126.41   146.44   160.47
          (Kelvin)            201.64   264.11   325.39   349.14   355.74
                              383.84   471.82   508.59   556.82   601.09
                              696.34   791.19   858.81   893.87   982.58
                             1085.80  1144.84  1221.55  1295.42  1305.99
                             1409.64  1467.48  1533.06  1567.53  1588.48
                             1640.18  1658.18  1682.24  1689.78  1707.00
                             1745.26  1759.63  1801.61  1850.60  1889.69
                             1910.58  1969.86  1999.65  2050.06  2122.94
                             2124.44  2148.97  2162.41  2176.48  2183.03
                             2183.95  2191.57  2202.20  2208.77  2573.60
                             2619.67  4314.16  4319.77  4323.90  4413.12
                             4431.15  4432.10  4460.81  4469.07  4523.66
                             4541.25  4550.27  4587.65  5096.46

 Zero-point correction=                           0.210799 (Hartree/Particle)
 Thermal correction to Energy=                    0.223716
 Thermal correction to Enthalpy=                  0.224660
 Thermal correction to Gibbs Free Energy=         0.170443
 Sum of electronic and zero-point Energies=           -589.053360
 Sum of electronic and thermal Energies=              -589.040443
 Sum of electronic and thermal Enthalpies=            -589.039499
 Sum of electronic and thermal Free Energies=         -589.093716

                     E (Thermal)             CV                S
                      KCal/Mol        Cal/Mol-Kelvin    Cal/Mol-Kelvin
 Total                  140.384             45.874            114.111
 Electronic               0.000              0.000              0.000
 Translational            0.889              2.981             41.319
 Rotational               0.889              2.981             31.035
 Vibrational            138.607             39.912             41.757
 Vibration     1          0.593              1.984              5.963
 Vibration     2          0.596              1.975              4.604
 Vibration     3          0.601              1.958              3.707
 Vibration     4          0.604              1.948              3.420
 Vibration     5          0.607              1.940              3.242
 Vibration     6          0.615              1.913              2.802
 Vibration     7          0.631              1.862              2.292
 Vibration     8          0.650              1.801              1.909
 Vibration     9          0.659              1.775              1.783
 Vibration    10          0.661              1.767              1.750
 Vibration    11          0.672              1.734              1.617
 Vibration    12          0.711              1.620              1.270
 Vibration    13          0.730              1.568              1.151
 Vibration    14          0.755              1.498              1.012
 Vibration    15          0.781              1.432              0.900
 Vibration    16          0.840              1.286              0.699
 Vibration    17          0.905              1.140              0.544
 Vibration    18          0.955              1.038              0.455

 Optimization completed.
    -- Stationary point found.
 Normal termination of Gaussian 16 at Wed Dec  9 18:48:36 2020.

 ----------------------------------------------------------------------
 # B3LYP/6-311++G(d,p) empiricaldispersion=gd3bj scf=xqc pop=npa geom=c
 heck
 ----------------------------------------------------------------------

 ---------------------------------------
 CID_137083811_JID_2975_Energie_neutraal
 ---------------------------------------
 Structure from the checkpoint file:  "JID_2975.chk"
 Charge =  0 Multiplicity = 1

 SCF Done:  E(RB3LYP) =  -589.437478234     A.U. after   14 cycles
 Normal termination of Gaussian 16 at Wed Dec  9 18:50:25 2020.

 ----------------------------------------------------------------------
 # B3LYP/6-311++G(d,p) empiricaldispersion=gd3bj scf=xqc pop=npa geom=c
 heck
 ----------------------------------------------------------------------

 -------------------------------------
 CID_137083811_JID_2975_Energie_kation
 -------------------------------------
 Structure from the checkpoint file:  "JID_2975.chk"
 Charge =  1 Multiplicity = 2

 SCF Done:  E(UB3LYP) =  -589.153055028     A.U. after   22 cycles
 Normal termination of Gaussian 16 at Wed Dec  9 18:54:08 2020.
 Gaussian 16:  ES64L-G16RevA.03 25-Dec-2016

 ----------------------------------------------------------------------
 # B3LYP/6-311++G(d,p) empiricaldispersion=gd3bj scf=xqc pop=npa geom=c
 heck
 ----------------------------------------------------------------------

 ------------------------------------
 CID_137083811_JID_2975_Energie_anion
 ------------------------------------
 Structure from the checkpoint file:  "JID_2975.chk"
 Charge = -1 Multiplicity = 2

                         Standard orientation:
 ---------------------------------------------------------------------
 Center     Atomic      Atomic             Coordinates (Angstroms)
 Number     Number       Type             X           Y           Z
 ---------------------------------------------------------------------
      1          6           0       -3.599550   -1.563449    0.120639
      2          7           0       -3.126683   -0.257535   -0.290739
      3          6           0       -1.925366    0.073404   -0.043307
      4          6           0       -0.767563   -0.702426    0.571269
      5          6           0        0.357383    0.334645    0.623121
      6          7           0        0.016091    1.294021   -0.453937
      7          7           0       -1.438585    1.343401   -0.370499
      8          6           0        0.548920    2.627841   -0.184256
      9          6           0        1.774283   -0.161714    0.368540
     10          8           0        2.764832    0.438896    0.727702
     11          8           0        1.810332   -1.311150   -0.328078
     12          6           0        3.126695   -1.779847   -0.666115
     13          1           0       -3.990573   -2.100060   -0.753210
     14          1           0       -4.437623   -1.447110    0.820169
     15          1           0       -2.845517   -2.206346    0.600987
     16          1           0       -1.001372   -1.106607    1.558918
     17          1           0       -0.505426   -1.536660   -0.084460
     18          1           0        0.365009    0.841023    1.601498
     19          1           0       -1.835681    1.711953   -1.230560
     20          1           0        0.162153    3.043955    0.759787
     21          1           0        1.637378    2.557980   -0.133998
     22          1           0        0.277557    3.297537   -1.006235
     23          1           0        3.638750   -1.047345   -1.294954
     24          1           0        3.715827   -1.946748    0.238938
     25          1           0        2.973641   -2.713465   -1.206985
 ---------------------------------------------------------------------

 SCF Done:  E(UB3LYP) =  -589.422583258     A.U. after   32 cycles

 The electronic state is 2-A.
 Alpha  occ. eigenvalues --  -19.07776 -19.02250 -14.25987 -14.25482 -14.19135
 Alpha  occ. eigenvalues --  -10.21152 -10.14708 -10.13054 -10.12281 -10.10032
 Alpha  occ. eigenvalues --  -10.09011 -10.08977  -1.01911  -0.93177  -0.92233
 Alpha  occ. eigenvalues --   -0.82220  -0.73939  -0.70272  -0.63575  -0.60193
 Alpha  occ. eigenvalues --   -0.57807  -0.54267  -0.48918  -0.47083  -0.43262
 Alpha  occ. eigenvalues --   -0.40765  -0.39621  -0.38696  -0.37640  -0.36189
 Alpha  occ. eigenvalues --   -0.35207  -0.34168  -0.33538  -0.32025  -0.31514
 Alpha  occ. eigenvalues --   -0.30483  -0.29460  -0.28627  -0.27491  -0.26774
 Alpha  occ. eigenvalues --   -0.25806  -0.21750  -0.19711  -0.18095  -0.15555
 Alpha  occ. eigenvalues --   -0.11571   0.04510
 Alpha virt. eigenvalues --    0.06652   0.06675   0.07976   0.08121   0.09181
 Alpha virt. eigenvalues --    0.09745   0.10162   0.10279   0.10459   0.10785
 Alpha virt. eigenvalues --    0.11970   0.12604   0.13106   0.13480   0.14709

  Beta  occ. eigenvalues --  -19.07761 -19.02235 -14.25976 -14.25473 -14.19127
  Beta  occ. eigenvalues --  -10.21145 -10.14708 -10.13046 -10.12224 -10.10017
  Beta  occ. eigenvalues --  -10.08985 -10.08946  -1.01886  -0.93152  -0.92217
  Beta  occ. eigenvalues --   -0.82205  -0.73919  -0.70245  -0.63504  -0.60153
  Beta  occ. eigenvalues --   -0.57751  -0.54216  -0.48873  -0.47025  -0.43236
  Beta  occ. eigenvalues --   -0.40721  -0.39581  -0.38650  -0.37604  -0.36158
  Beta  occ. eigenvalues --   -0.35175  -0.34139  -0.33510  -0.31977  -0.31477
  Beta  occ. eigenvalues --   -0.30448  -0.29429  -0.28583  -0.27449  -0.26727
  Beta  occ. eigenvalues --   -0.25777  -0.21704  -0.19684  -0.18066  -0.15520
  Beta  occ. eigenvalues --   -0.11538
  Beta virt. eigenvalues --    0.06704   0.07345   0.07810   0.08149   0.08583
  Beta virt. eigenvalues --    0.09541   0.10300   0.10633   0.10668   0.10989
  Beta virt. eigenvalues --    0.11264   0.12436   0.12853   0.13312   0.13701

 Mulliken charges and spin densities:
               1          2
     1  C    0.731707  -1.121669
     2  N   -0.250945   0.095323
     3  C   -0.201938   0.131683
     4  C    0.068609  -0.744787
     5  C    1.337666  -1.447336
     6  N    0.259342   0.025962
     7  N   -0.356797   0.143753
     8  C    0.232907  -0.499188
     9  C   -1.166110   1.005835
    10  O   -0.270559   0.033427
    11  O   -0.157441   0.093100
    12  C    1.317400  -1.553060
    13  H   -0.089671   0.229039
    14  H   -0.165517   0.308870
    15  H   -0.431903   0.571418
    16  H   -0.423644   0.600788
    17  H    0.199911   0.046271
    18  H   -0.004926   0.228168
    19  H    0.103169   0.179418
    20  H    0.014496   0.108616
    21  H    0.040265   0.126937
    22  H   -0.168544   0.302233
    23  H   -0.368190   0.540466
    24  H   -0.446708   0.631666
    25  H   -0.802579   0.963067
 Sum of Mulliken charges =  -1.00000   1.00000

 Dipole moment (field-independent basis, Debye):
    X=             -1.8831    Y=              5.1001    Z=              0.2114  Tot=              5.4408
 Quadrupole moment (field-independent basis, Debye-Ang):
   XX=           -144.8958   YY=           -121.6958   ZZ=           -104.7267
   XY=              6.8944   XZ=              4.5891   YZ=             -0.8274

 Summary of Natural Population Analysis:

                                       Natural Population
                Natural  -----------------------------------------------
    Atom  No    Charge         Core      Valence    Rydberg      Total
 -----------------------------------------------------------------------
      C    1   -0.18668      0.99964     2.17894    0.00811     3.18668
      N    2   -0.27103      0.99962     2.75854    0.01287     3.77103
      C    3    0.23194      0.99958     1.75267    0.01582     2.76806
      C    4   -0.23139      0.99957     2.22308    0.00875     3.23139
      C    5   -0.05059      0.99956     2.03537    0.01566     3.05059
      N    6   -0.18437      0.99972     2.67253    0.01212     3.68437
      N    7   -0.23667      0.99967     2.72504    0.01196     3.73667
      C    8   -0.17924      0.99964     2.17188    0.00771     3.17924
      C    9    0.41301      0.99964     1.56127    0.02607     2.58699
      O   10   -0.30331      0.99987     3.29773    0.00571     4.30331
      O   11   -0.27269      0.99986     3.26246    0.01037     4.27269
      C   12   -0.10214      0.99959     2.09350    0.00905     3.10214
      H   13    0.09382      0.00000     0.40487    0.00132     0.40618
      H   14    0.09307      0.00000     0.40557    0.00136     0.40693
      H   15    0.08511      0.00000     0.41303    0.00186     0.41489
      H   16    0.11740      0.00000     0.38079    0.00181     0.38260
      H   17    0.12503      0.00000     0.37239    0.00257     0.37497
      H   18    0.09803      0.00000     0.40005    0.00192     0.40197
      H   19    0.19067      0.00000     0.30616    0.00316     0.30933
      H   20    0.08561      0.00000     0.41239    0.00200     0.41439
      H   21    0.10713      0.00000     0.39156    0.00132     0.39287
      H   22    0.09476      0.00000     0.40396    0.00128     0.40524
      H   23    0.09155      0.00000     0.40669    0.00177     0.40845
      H   24    0.09414      0.00000     0.40364    0.00222     0.40586
      H   25    0.09685      0.00000     0.40019    0.00295     0.40315
 =======================================================================
   * Total *    0.00000     11.99596    33.83432    0.16972    46.00000

 Normal termination of Gaussian 16 at Wed Dec  9 18:59:31 2020.
