 Gaussian 16, Revision A.03,

 -----------------------------------------------------------
 # opt freq B3LYP/6-31G(d) empiricaldispersion=gd3bj scf=xqc
 -----------------------------------------------------------

 ------------------------------
 CID_62538531_JID_7722_neutraal
 ------------------------------
 Symbolic Z-matrix:
 Charge =  0 Multiplicity = 1

 SCF Done:  E(RB3LYP) =  -743.945403145     A.U. after   15 cycles
 SCF Done:  E(RB3LYP) =  -743.951983695     A.U. after   13 cycles
 SCF Done:  E(RB3LYP) =  -743.951317237     A.U. after   14 cycles
 SCF Done:  E(RB3LYP) =  -743.952868370     A.U. after   12 cycles
 SCF Done:  E(RB3LYP) =  -743.954321988     A.U. after   12 cycles
 SCF Done:  E(RB3LYP) =  -743.954963058     A.U. after   12 cycles
 SCF Done:  E(RB3LYP) =  -743.955838509     A.U. after   13 cycles
 SCF Done:  E(RB3LYP) =  -743.956708908     A.U. after   12 cycles
 SCF Done:  E(RB3LYP) =  -743.958111817     A.U. after   15 cycles
 SCF Done:  E(RB3LYP) =  -743.958602792     A.U. after   14 cycles
 SCF Done:  E(RB3LYP) =  -743.960214169     A.U. after    7 cycles
 SCF Done:  E(RB3LYP) =  -743.960214275     A.U. after    7 cycles
 SCF Done:  E(RB3LYP) =  -743.960214392     A.U. after    8 cycles
 SCF Done:  E(RB3LYP) =  -743.960214481     A.U. after    7 cycles
 SCF Done:  E(RB3LYP) =  -743.960214540     A.U. after    7 cycles
 Optimization completed.
    -- Stationary point found.
 Normal termination of Gaussian 16 at Fri Dec 11 13:24:21 2020.

 --------------------------------------------------------------------
 #N Geom=AllCheck Guess=TCheck SCRF=Check GenChk RB3LYP/6-31G(d) Freq
 --------------------------------------------------------------------

 Structure from the checkpoint file:  "JID_7722.chk"
 ------------------------------
 CID_62538531_JID_7722_neutraal
 ------------------------------
 Charge =  0 Multiplicity = 1

 SCF Done:  E(RB3LYP) =  -743.960214540     A.U. after    1 cycles

  Exact polarizability: 157.989   6.263 165.231  27.940  -2.590 110.590
 Approx polarizability: 235.594  12.446 282.225  56.539  -8.103 173.948

                      1                      2                      3
                      A                      A                      A
 Frequencies --     25.0170                36.7562                42.6231
 Red. masses --      5.5040                 1.0327                 4.2480
 Frc consts  --      0.0020                 0.0008                 0.0045
 IR Inten    --      0.1147                 0.2207                 0.1187

                      4                      5                      6
                      A                      A                      A
 Frequencies --     70.1804                72.6174               102.5475
 Red. masses --      5.7474                 4.0030                 6.2242
 Frc consts  --      0.0167                 0.0124                 0.0386
 IR Inten    --      2.3994                 0.5684                 1.8598

                      7                      8                      9
                      A                      A                      A
 Frequencies --    112.1671               142.7144               184.8989
 Red. masses --      5.0478                 2.9313                 1.0463
 Frc consts  --      0.0374                 0.0352                 0.0211
 IR Inten    --      0.7692                 0.7824                 0.6675

                     10                     11                     12
                      A                      A                      A
 Frequencies --    209.0810               247.9713               296.8849
 Red. masses --      4.1403                 3.9375                 2.6841
 Frc consts  --      0.1066                 0.1427                 0.1394
 IR Inten    --      2.3097                 0.5645                 0.6950

                     13                     14                     15
                      A                      A                      A
 Frequencies --    319.1327               338.0201               399.0118
 Red. masses --      3.6065                 3.0471                 6.4032
 Frc consts  --      0.2164                 0.2051                 0.6007
 IR Inten    --      1.3875                 3.8328                 8.5537

                     16                     17                     18
                      A                      A                      A
 Frequencies --    435.9030               442.7281               463.4431
 Red. masses --      3.1768                 3.8806                 2.9779
 Frc consts  --      0.3556                 0.4481                 0.3768
 IR Inten    --      0.8434                 0.8352                 3.7982

                     19                     20                     21
                      A                      A                      A
 Frequencies --    467.7012               495.5624               512.7080
 Red. masses --      3.3468                 3.1154                 2.3199
 Frc consts  --      0.4313                 0.4508                 0.3593
 IR Inten    --      6.3160                40.3207                19.7301

                     22                     23                     24
                      A                      A                      A
 Frequencies --    525.7670               559.4444               586.5294
 Red. masses --      1.6231                 3.3564                 2.0765
 Frc consts  --      0.2643                 0.6189                 0.4209
 IR Inten    --     16.9647                 1.1133                64.2064

                     25                     26                     27
                      A                      A                      A
 Frequencies --    665.6772               696.9676               708.6906
 Red. masses --      3.8229                 3.6285                 3.6505
 Frc consts  --      0.9981                 1.0385                 1.0802
 IR Inten    --      7.6639                17.8220                46.1220

                     28                     29                     30
                      A                      A                      A
 Frequencies --    726.4224               738.6313               794.8236
 Red. masses --      3.7692                 3.9876                 2.9813
 Frc consts  --      1.1719                 1.2818                 1.1097
 IR Inten    --      4.3948                 4.4798                14.9196

                     31                     32                     33
                      A                      A                      A
 Frequencies --    818.3916               828.5791               855.0483
 Red. masses --      1.4731                 1.2793                 3.7769
 Frc consts  --      0.5813                 0.5175                 1.6269
 IR Inten    --     20.7036                29.5378                12.6121

                     34                     35                     36
                      A                      A                      A
 Frequencies --    891.6664               898.1442               931.2129
 Red. masses --      1.3709                 3.0260                 1.5282
 Frc consts  --      0.6422                 1.4382                 0.7808
 IR Inten    --      0.6270                 5.5134                 3.4118

                     37                     38                     39
                      A                      A                      A
 Frequencies --    940.1698               949.0688               955.8882
 Red. masses --      5.2295                 2.0258                 1.5890
 Frc consts  --      2.7235                 1.0751                 0.8555
 IR Inten    --     27.3356                 1.0597                 0.0202

                     40                     41                     42
                      A                      A                      A
 Frequencies --    976.2379              1027.7379              1045.4750
 Red. masses --      1.9922                 1.7520                 1.3772
 Frc consts  --      1.1186                 1.0903                 0.8869
 IR Inten    --      1.5379                 5.8272                 1.0057

                     43                     44                     45
                      A                      A                      A
 Frequencies --   1056.9413              1073.8219              1078.0623
 Red. masses --      1.9584                 1.5131                 1.5438
 Frc consts  --      1.2890                 1.0280                 1.0571
 IR Inten    --     15.2806                 1.1898                18.3332

                     46                     47                     48
                      A                      A                      A
 Frequencies --   1079.5011              1133.1251              1144.4325
 Red. masses --      1.7910                 2.4480                 3.1165
 Frc consts  --      1.2297                 1.8519                 2.4049
 IR Inten    --      3.8768                 4.1537                16.9442

                     49                     50                     51
                      A                      A                      A
 Frequencies --   1193.4761              1197.5701              1251.7436
 Red. masses --      1.4741                 1.2793                 1.9331
 Frc consts  --      1.2371                 1.0810                 1.7845
 IR Inten    --      3.2179                55.1490                 2.4338

                     52                     53                     54
                      A                      A                      A
 Frequencies --   1262.9508              1275.6106              1297.9907
 Red. masses --      2.1183                 3.7164                 2.0528
 Frc consts  --      1.9907                 3.5630                 2.0377
 IR Inten    --      1.0106                 1.2524                15.5341

                     55                     56                     57
                      A                      A                      A
 Frequencies --   1314.4936              1334.3431              1346.1749
 Red. masses --      1.8241                 1.6225                 3.7267
 Frc consts  --      1.8570                 1.7021                 3.9790
 IR Inten    --      5.7463                40.2911                66.5591

                     58                     59                     60
                      A                      A                      A
 Frequencies --   1370.1487              1375.2480              1431.0527
 Red. masses --      3.3502                 2.4922                 2.1527
 Frc consts  --      3.7056                 2.7772                 2.5974
 IR Inten    --     10.2281                69.4141                18.2260

                     61                     62                     63
                      A                      A                      A
 Frequencies --   1442.5540              1446.5955              1458.6779
 Red. masses --      1.2579                 1.2759                 2.4771
 Frc consts  --      1.5422                 1.5731                 3.1053
 IR Inten    --      0.4341                 0.9600                 2.4113

                     64                     65                     66
                      A                      A                      A
 Frequencies --   1467.4346              1493.7180              1503.6499
 Red. masses --      2.0517                 3.6661                 1.1391
 Frc consts  --      2.6030                 4.8194                 1.5174
 IR Inten    --     13.9812                34.3244                19.4993

                     67                     68                     69
                      A                      A                      A
 Frequencies --   1518.1152              1520.1326              1525.2244
 Red. masses --      1.0495                 1.0865                 1.0546
 Frc consts  --      1.4250                 1.4793                 1.4455
 IR Inten    --      5.2081                 3.1271                 1.5430

                     70                     71                     72
                      A                      A                      A
 Frequencies --   1532.7250              1558.0363              1631.6891
 Red. masses --      1.1265                 2.8034                 4.7359
 Frc consts  --      1.5592                 4.0095                 7.4289
 IR Inten    --     12.1655                25.5721                53.5267

                     73                     74                     75
                      A                      A                      A
 Frequencies --   1634.2940              1676.8198              1804.6774
 Red. masses --      5.4965                 5.8126                 8.8873
 Frc consts  --      8.6496                 9.6292                17.0537
 IR Inten    --     15.2499                 5.2762               322.3009

                     76                     77                     78
                      A                      A                      A
 Frequencies --   3041.8706              3046.3726              3083.5407
 Red. masses --      1.0402                 1.0379                 1.0623
 Frc consts  --      5.6706                 5.6750                 5.9510
 IR Inten    --     36.2883                23.6289                 9.3970

                     79                     80                     81
                      A                      A                      A
 Frequencies --   3098.5174              3101.2113              3125.3200
 Red. masses --      1.0960                 1.1006                 1.1028
 Frc consts  --      6.1995                 6.2363                 6.3465
 IR Inten    --     19.6998                13.0768                15.2406

                     82                     83                     84
                      A                      A                      A
 Frequencies --   3126.6765              3138.3203              3172.6919
 Red. masses --      1.1005                 1.1002                 1.0867
 Frc consts  --      6.3385                 6.3841                 6.4448
 IR Inten    --     18.5647                 9.0125                12.7205

                     85                     86                     87
                      A                      A                      A
 Frequencies --   3183.3465              3190.7489              3261.4214
 Red. masses --      1.0901                 1.0944                 1.0947
 Frc consts  --      6.5083                 6.5648                 6.8603
 IR Inten    --      6.7371                25.9857                 5.9768

                     88                     89                     90
                      A                      A                      A
 Frequencies --   3295.2858              3560.4239              3653.0889
 Red. masses --      1.1007                 1.0752                 1.0816
 Frc consts  --      7.0423                 8.0304                 8.5045
 IR Inten    --      0.1700                27.7901                74.9198

 - Thermochemistry -
 -------------------
 Temperature   298.150 Kelvin.  Pressure   1.00000 Atm.
 Atom     1 has atomic number  6 and mass  12.00000

 Molecular mass:   229.12151 amu.
 Principal axes and moments of inertia in atomic units:
                           1         2         3
     Eigenvalues --  2769.735904499.337925665.65140
           X            0.99968   0.00404   0.02504
           Y           -0.00469   0.99966   0.02578
           Z           -0.02492  -0.02589   0.99935
 This molecule is an asymmetric top.
 Rotational symmetry number  1.
 Warning -- assumption of classical behavior for rotation
           may cause significant error
 Rotational temperatures (Kelvin)      0.03127     0.01925     0.01529
 Rotational constants (GHZ):           0.65159     0.40111     0.31854
 Zero-point vibrational energy     694121.8 (Joules/Mol)
                                  165.89910 (Kcal/Mol)
 Warning -- explicit consideration of  24 degrees of freedom as
           vibrations may cause significant error
 Vibrational temperatures:     35.99    52.88    61.33   100.97   104.48
          (Kelvin)            147.54   161.38   205.33   266.03   300.82
                              356.78   427.15   459.16   486.34   574.09
                              627.17   636.99   666.79   672.92   713.00
                              737.67   756.46   804.92   843.88   957.76
                             1002.78  1019.65  1045.16  1062.73  1143.57
                             1177.48  1192.14  1230.22  1282.91  1292.23
                             1339.81  1352.69  1365.50  1375.31  1404.59
                             1478.69  1504.21  1520.70  1544.99  1551.09
                             1553.16  1630.31  1646.58  1717.15  1723.04
                             1800.98  1817.10  1835.32  1867.52  1891.26
                             1919.82  1936.85  1971.34  1978.68  2058.97
                             2075.51  2081.33  2098.71  2111.31  2149.13
                             2163.42  2184.23  2187.13  2194.46  2205.25
                             2241.67  2347.64  2351.38  2412.57  2596.53
                             4376.57  4383.05  4436.53  4458.08  4461.95
                             4496.64  4498.59  4515.34  4564.80  4580.13
                             4590.78  4692.46  4741.18  5122.66  5255.98

 Zero-point correction=                           0.264377 (Hartree/Particle)
 Thermal correction to Energy=                    0.280256
 Thermal correction to Enthalpy=                  0.281200
 Thermal correction to Gibbs Free Energy=         0.219242
 Sum of electronic and zero-point Energies=           -743.695837
 Sum of electronic and thermal Energies=              -743.679959
 Sum of electronic and thermal Enthalpies=            -743.679015
 Sum of electronic and thermal Free Energies=         -743.740973

                     E (Thermal)             CV                S
                      KCal/Mol        Cal/Mol-Kelvin    Cal/Mol-Kelvin
 Total                  175.863             59.663            130.402
 Electronic               0.000              0.000              0.000
 Translational            0.889              2.981             42.189
 Rotational               0.889              2.981             32.623
 Vibrational            174.086             53.702             55.589
 Vibration     1          0.593              1.985              6.190
 Vibration     2          0.594              1.982              5.427
 Vibration     3          0.595              1.980              5.133
 Vibration     4          0.598              1.968              4.148
 Vibration     5          0.599              1.967              4.081
 Vibration     6          0.605              1.947              3.405
 Vibration     7          0.607              1.939              3.231
 Vibration     8          0.616              1.910              2.767
 Vibration     9          0.631              1.860              2.278
 Vibration    10          0.642              1.827              2.052
 Vibration    11          0.662              1.766              1.745
 Vibration    12          0.691              1.680              1.434
 Vibration    13          0.705              1.637              1.315
 Vibration    14          0.718              1.600              1.221
 Vibration    15          0.765              1.472              0.966
 Vibration    16          0.796              1.392              0.840
 Vibration    17          0.802              1.377              0.818
 Vibration    18          0.821              1.331              0.756
 Vibration    19          0.825              1.322              0.744
 Vibration    20          0.851              1.260              0.669
 Vibration    21          0.868              1.222              0.627
 Vibration    22          0.881              1.193              0.597
 Vibration    23          0.915              1.119              0.525
 Vibration    24          0.944              1.061              0.473

 Optimization completed.
    -- Stationary point found.
 Normal termination of Gaussian 16 at Fri Dec 11 13:36:22 2020.

 ----------------------------------------------------------------------
 # B3LYP/6-311++G(d,p) empiricaldispersion=gd3bj scf=xqc pop=npa geom=c
 heck
 ----------------------------------------------------------------------

 --------------------------------------
 CID_62538531_JID_7722_Energie_neutraal
 --------------------------------------
 Structure from the checkpoint file:  "JID_7722.chk"
 Charge =  0 Multiplicity = 1

 SCF Done:  E(RB3LYP) =  -744.165375443     A.U. after   16 cycles
 Normal termination of Gaussian 16 at Fri Dec 11 13:41:19 2020.

 ----------------------------------------------------------------------
 # B3LYP/6-311++G(d,p) empiricaldispersion=gd3bj scf=xqc pop=npa geom=c
 heck
 ----------------------------------------------------------------------

 ------------------------------------
 CID_62538531_JID_7722_Energie_kation
 ------------------------------------
 Structure from the checkpoint file:  "JID_7722.chk"
 Charge =  1 Multiplicity = 2

 SCF Done:  E(UB3LYP) =  -743.867513010     A.U. after   27 cycles
 Normal termination of Gaussian 16 at Fri Dec 11 13:52:30 2020.
 Gaussian 16:  ES64L-G16RevA.03 25-Dec-2016

 ----------------------------------------------------------------------
 # B3LYP/6-311++G(d,p) empiricaldispersion=gd3bj scf=xqc pop=npa geom=c
 heck
 ----------------------------------------------------------------------

 -----------------------------------
 CID_62538531_JID_7722_Energie_anion
 -----------------------------------
 Structure from the checkpoint file:  "JID_7722.chk"
 Charge = -1 Multiplicity = 2

                         Standard orientation:
 ---------------------------------------------------------------------
 Center     Atomic      Atomic             Coordinates (Angstroms)
 Number     Number       Type             X           Y           Z
 ---------------------------------------------------------------------
      1          6           0        3.941552    0.577904    1.359694
      2          6           0        2.844382   -0.047577    0.533491
      3          6           0        1.864059    0.743331   -0.073437
      4          6           0        0.850338    0.191758   -0.861987
      5          6           0        0.807712   -1.198285   -1.077127
      6          6           0        1.790184   -1.986224   -0.469076
      7          6           0        2.787138   -1.429145    0.328925
      8          6           0       -0.271626   -1.849185   -1.908057
      9          6           0       -0.202422    1.116811   -1.456586
     10          6           0       -0.668815    2.157321   -0.448198
     11          8           0       -0.266900    3.308535   -0.437178
     12          7           0       -1.589330    1.725129    0.497912
     13          6           0       -1.961437    0.391755    0.727002
     14          6           0       -1.359154   -0.647712    1.413822
     15          6           0       -2.241109   -1.737505    1.253396
     16          7           0       -3.314379   -1.413875    0.523712
     17          7           0       -3.122010   -0.118073    0.214978
     18          1           0        4.814334    0.822896    0.740120
     19          1           0        3.607112    1.508306    1.830175
     20          1           0        4.283903   -0.099785    2.149002
     21          1           0        1.881745    1.820144    0.077231
     22          1           0        1.764854   -3.063094   -0.617445
     23          1           0        3.529645   -2.074194    0.792798
     24          1           0       -1.260219   -1.741088   -1.445706
     25          1           0       -0.329536   -1.421222   -2.916033
     26          1           0       -0.079241   -2.920628   -2.016284
     27          1           0        0.207616    1.677266   -2.302627
     28          1           0       -1.056873    0.540398   -1.817150
     29          1           0       -1.776656    2.414258    1.218744
     30          1           0       -0.403860   -0.616990    1.914811
     31          1           0       -2.139967   -2.746256    1.630649
     32          1           0       -3.812430    0.379971   -0.328257
 ---------------------------------------------------------------------

 SCF Done:  E(UB3LYP) =  -744.154408020     A.U. after   33 cycles
 SCF Done:  E(UB3LYP) =  -744.154408020     a.u. after    1 cycles

 The electronic state is 2-A.
 Alpha  occ. eigenvalues --  -19.00568 -14.29254 -14.25801 -14.24230 -10.19015
 Alpha  occ. eigenvalues --  -10.15284 -10.10030 -10.09409 -10.09163 -10.09030
 Alpha  occ. eigenvalues --  -10.08929 -10.08017 -10.07941 -10.07826 -10.07770
 Alpha  occ. eigenvalues --  -10.07664 -10.07336  -0.96408  -0.95421  -0.84511
 Alpha  occ. eigenvalues --   -0.77459  -0.72309  -0.70582  -0.68803  -0.68114
 Alpha  occ. eigenvalues --   -0.63163  -0.62015  -0.56568  -0.53598  -0.51810
 Alpha  occ. eigenvalues --   -0.51520  -0.49876  -0.48049  -0.46789  -0.40779
 Alpha  occ. eigenvalues --   -0.40079  -0.37929  -0.37270  -0.35612  -0.35205
 Alpha  occ. eigenvalues --   -0.35109  -0.34238  -0.33966  -0.33148  -0.32846
 Alpha  occ. eigenvalues --   -0.31741  -0.31624  -0.30874  -0.30252  -0.29190
 Alpha  occ. eigenvalues --   -0.28450  -0.25323  -0.24935  -0.24481  -0.21609
 Alpha  occ. eigenvalues --   -0.18461  -0.17812  -0.17415  -0.16643  -0.15562
 Alpha  occ. eigenvalues --   -0.14059   0.04133
 Alpha virt. eigenvalues --    0.05805   0.06700   0.06873   0.07200   0.07857
 Alpha virt. eigenvalues --    0.08248   0.08623   0.09210   0.09338   0.09614
 Alpha virt. eigenvalues --    0.10223   0.10748   0.11242   0.11850   0.12097

  Beta  occ. eigenvalues --  -19.00551 -14.29183 -14.25785 -14.24221 -10.18993
  Beta  occ. eigenvalues --  -10.15276 -10.10027 -10.09405 -10.09147 -10.09022
  Beta  occ. eigenvalues --  -10.08925 -10.07998 -10.07933 -10.07811 -10.07759
  Beta  occ. eigenvalues --  -10.07660 -10.07319  -0.96361  -0.95381  -0.84474
  Beta  occ. eigenvalues --   -0.77443  -0.72218  -0.70553  -0.68771  -0.68088
  Beta  occ. eigenvalues --   -0.63133  -0.61979  -0.56529  -0.53543  -0.51746
  Beta  occ. eigenvalues --   -0.51471  -0.49830  -0.48008  -0.46730  -0.40750
  Beta  occ. eigenvalues --   -0.40039  -0.37880  -0.37236  -0.35564  -0.35158
  Beta  occ. eigenvalues --   -0.35068  -0.34193  -0.33933  -0.33117  -0.32817
  Beta  occ. eigenvalues --   -0.31713  -0.31596  -0.30846  -0.30228  -0.29136
  Beta  occ. eigenvalues --   -0.28425  -0.25301  -0.24912  -0.24455  -0.21578
  Beta  occ. eigenvalues --   -0.18437  -0.17765  -0.17367  -0.16609  -0.15539
  Beta  occ. eigenvalues --   -0.14018
  Beta virt. eigenvalues --    0.06208   0.06854   0.07040   0.07282   0.07514
  Beta virt. eigenvalues --    0.08316   0.08915   0.09113   0.09336   0.09618
  Beta virt. eigenvalues --    0.09902   0.10475   0.11075   0.11448   0.12085

 Mulliken charges and spin densities:
               1          2
     1  C    0.942826  -1.504684
     2  C    0.124831   0.135837
     3  C   -0.899624   0.329540
     4  C    0.484287   0.550950
     5  C   -0.200184   0.801876
     6  C   -0.134044  -0.368384
     7  C   -0.244578  -0.152941
     8  C    0.677251  -1.427927
     9  C    0.034323  -0.515679
    10  C   -0.280322   0.016796
    11  O   -0.302805   0.034616
    12  N   -0.428218   0.258234
    13  C    0.941074  -1.807350
    14  C    0.230532   0.460967
    15  C   -0.424396  -0.093190
    16  N   -0.031291  -0.114132
    17  N   -0.077149   0.141438
    18  H    0.105505   0.053975
    19  H   -0.012111   0.159126
    20  H   -0.178716   0.329502
    21  H    0.202596   0.001116
    22  H   -0.249335   0.407491
    23  H   -0.534711   0.700247
    24  H    0.138993  -0.009127
    25  H   -0.024177   0.182270
    26  H   -0.028705   0.174915
    27  H   -0.092882   0.341782
    28  H    0.006332   0.144932
    29  H   -0.137274   0.457837
    30  H    0.057899   0.129650
    31  H   -0.166398   0.336050
    32  H   -0.499529   0.844267
 Sum of Mulliken charges =  -1.00000   1.00000

 Dipole moment (field-independent basis, Debye):
    X=              3.4098    Y=             -0.6814    Z=             -0.2360  Tot=              3.4852
 Quadrupole moment (field-independent basis, Debye-Ang):
   XX=           -174.5500   YY=           -153.2150   ZZ=           -134.1995
   XY=              8.1195   XZ=             -7.1763   YZ=              3.6079

 Summary of Natural Population Analysis:

                                       Natural Population
                Natural  -----------------------------------------------
    Atom  No    Charge         Core      Valence    Rydberg      Total
 -----------------------------------------------------------------------
      C    1   -0.29090      0.99964     2.28645    0.00482     3.29090
      C    2   -0.01721      0.99952     2.00784    0.00985     3.01721
      C    3   -0.10190      0.99946     2.09452    0.00792     3.10190
      C    4   -0.00948      0.99946     1.99972    0.01030     3.00948
      C    5   -0.01611      0.99946     2.00613    0.01053     3.01611
      C    6   -0.09408      0.99951     2.08458    0.00999     3.09408
      C    7   -0.10092      0.99951     2.09135    0.01006     3.10092
      C    8   -0.29622      0.99963     2.29156    0.00503     3.29622
      C    9   -0.24528      0.99955     2.23692    0.00881     3.24528
      C   10    0.36095      0.99967     1.61538    0.02401     2.63905
      O   11   -0.31255      0.99987     3.30704    0.00564     4.31255
      N   12   -0.33137      0.99964     2.81998    0.01174     3.83137
      C   13    0.14957      0.99950     1.83528    0.01565     2.85043
      C   14   -0.15478      0.99949     2.14634    0.00896     3.15478
      C   15   -0.01522      0.99962     2.00178    0.01381     3.01522
      N   16   -0.15059      0.99974     2.63689    0.01396     3.65059
      N   17   -0.16441      0.99965     2.65042    0.01434     3.66441
      H   18    0.10219      0.00000     0.39675    0.00106     0.39781
      H   19    0.10294      0.00000     0.39615    0.00091     0.39706
      H   20    0.10362      0.00000     0.39514    0.00124     0.39638
      H   21    0.10533      0.00000     0.39314    0.00153     0.39467
      H   22    0.09848      0.00000     0.39999    0.00152     0.40152
      H   23    0.09999      0.00000     0.39882    0.00119     0.40001
      H   24    0.11134      0.00000     0.38685    0.00182     0.38866
      H   25    0.10245      0.00000     0.39652    0.00104     0.39755
      H   26    0.10248      0.00000     0.39650    0.00102     0.39752
      H   27    0.11851      0.00000     0.38044    0.00105     0.38149
      H   28    0.11571      0.00000     0.38218    0.00210     0.38429
      H   29    0.20312      0.00000     0.29320    0.00369     0.29688
      H   30    0.11705      0.00000     0.38164    0.00131     0.38295
      H   31    0.09844      0.00000     0.40053    0.00103     0.40156
      H   32    0.20887      0.00000     0.27366    0.01746     0.29113
 =======================================================================
   * Total *    0.00000     16.99292    43.78369    0.22339    61.00000

 Normal termination of Gaussian 16 at Fri Dec 11 14:06:21 2020.
