 Gaussian 16, Revision A.03,

 -----------------------------------------------------------
 # opt freq B3LYP/6-31G(d) empiricaldispersion=gd3bj scf=xqc
 -----------------------------------------------------------

 ---------------------------
 CID_57212_JID_1013_neutraal
 ---------------------------
 Symbolic Z-matrix:
 Charge =  0 Multiplicity = 1

 SCF Done:  E(RB3LYP) =  -894.043572159     A.U. after   15 cycles
 SCF Done:  E(RB3LYP) =  -894.049641939     A.U. after   14 cycles
 SCF Done:  E(RB3LYP) =  -894.051399966     A.U. after   14 cycles
 SCF Done:  E(RB3LYP) =  -894.054208005     A.U. after   13 cycles
 SCF Done:  E(RB3LYP) =  -894.055049018     A.U. after   13 cycles
 SCF Done:  E(RB3LYP) =  -894.055600189     A.U. after   12 cycles
 SCF Done:  E(RB3LYP) =  -894.052907758     A.U. after   13 cycles
 SCF Done:  E(RB3LYP) =  -894.054919716     A.U. after   13 cycles
 SCF Done:  E(RB3LYP) =  -894.055809878     A.U. after   10 cycles
 SCF Done:  E(RB3LYP) =  -894.055693283     A.U. after   13 cycles
 SCF Done:  E(RB3LYP) =  -894.056054694     A.U. after    8 cycles
 SCF Done:  E(RB3LYP) =  -894.056055157     A.U. after    8 cycles
 SCF Done:  E(RB3LYP) =  -894.056055290     A.U. after    7 cycles
 SCF Done:  E(RB3LYP) =  -894.056055352     A.U. after    7 cycles
 SCF Done:  E(RB3LYP) =  -894.056055390     A.U. after    7 cycles
 Optimization completed.
    -- Stationary point found.
 Normal termination of Gaussian 16 at Sun Dec 13 12:19:23 2020.

 --------------------------------------------------------------------
 #N Geom=AllCheck Guess=TCheck SCRF=Check GenChk RB3LYP/6-31G(d) Freq
 --------------------------------------------------------------------

 Structure from the checkpoint file:  "JID_1013.chk"
 ---------------------------
 CID_57212_JID_1013_neutraal
 ---------------------------
 Charge =  0 Multiplicity = 1

 SCF Done:  E(RB3LYP) =  -894.056055390     A.U. after    1 cycles

  Exact polarizability: 104.353  -0.161 106.805   8.852   0.592  80.511
 Approx polarizability: 139.575   7.586 173.949  19.283   5.821 126.989

 ******    1 imaginary frequencies (negative Signs) ******

                      1                      2                      3
                      A                      A                      A
 Frequencies --    -70.6959                43.7815                63.7995
 Red. masses --      1.0524                 5.8406                 5.3817
 Frc consts  --      0.0031                 0.0066                 0.0129
 IR Inten    --      0.9873                 1.4990                 0.9584

                      4                      5                      6
                      A                      A                      A
 Frequencies --     78.9764                92.7627               115.3585
 Red. masses --      5.0273                 4.4665                 3.7026
 Frc consts  --      0.0185                 0.0226                 0.0290
 IR Inten    --      0.3613                 4.8348                 3.8196

                      7                      8                      9
                      A                      A                      A
 Frequencies --    139.5064               213.6261               253.2157
 Red. masses --      3.9392                 5.0377                 3.7272
 Frc consts  --      0.0452                 0.1355                 0.1408
 IR Inten    --      3.3356                 4.3195                 3.7639

                     10                     11                     12
                      A                      A                      A
 Frequencies --    257.1914               329.9234               348.7728
 Red. masses --      2.4292                 2.0439                 2.1434
 Frc consts  --      0.0947                 0.1311                 0.1536
 IR Inten    --      6.2647                 3.5927                21.7976

                     13                     14                     15
                      A                      A                      A
 Frequencies --    353.2953               471.9765               475.7268
 Red. masses --      1.7936                 2.3700                 4.0204
 Frc consts  --      0.1319                 0.3111                 0.5361
 IR Inten    --     72.1934                 6.6189                 3.3508

                     16                     17                     18
                      A                      A                      A
 Frequencies --    485.4394               526.0150               548.2685
 Red. masses --      5.6472                 3.2670                 2.9428
 Frc consts  --      0.7841                 0.5326                 0.5212
 IR Inten    --      0.5568                 2.4809                23.2571

                     19                     20                     21
                      A                      A                      A
 Frequencies --    618.7242               641.7782               686.8492
 Red. masses --      2.7516                 2.0540                 3.4257
 Frc consts  --      0.6206                 0.4985                 0.9522
 IR Inten    --     84.9704                31.0116                44.0981

                     22                     23                     24
                      A                      A                      A
 Frequencies --    700.3582               767.0683               866.1494
 Red. masses --      3.2038                 2.5843                 1.9866
 Frc consts  --      0.9259                 0.8959                 0.8781
 IR Inten    --     49.6937                 9.4553                27.9165

                     25                     26                     27
                      A                      A                      A
 Frequencies --    917.8089               960.6855               968.9828
 Red. masses --      1.4274                 2.5460                 2.0889
 Frc consts  --      0.7085                 1.3845                 1.1556
 IR Inten    --     80.2231                17.7825                43.7668

                     28                     29                     30
                      A                      A                      A
 Frequencies --   1007.4299              1044.2996              1056.0229
 Red. masses --      1.7745                 1.5936                 2.0689
 Frc consts  --      1.0611                 1.0239                 1.3594
 IR Inten    --     39.0270                 0.6595                52.2057

                     31                     32                     33
                      A                      A                      A
 Frequencies --   1083.1797              1153.1561              1158.4367
 Red. masses --      2.2703                 2.3713                 2.6492
 Frc consts  --      1.5694                 1.8579                 2.0946
 IR Inten    --     13.9048               129.5063                 9.0126

                     34                     35                     36
                      A                      A                      A
 Frequencies --   1189.8272              1221.6564              1276.0675
 Red. masses --      1.2112                 1.2248                 1.3968
 Frc consts  --      1.0103                 1.0770                 1.3401
 IR Inten    --      2.5904                 0.8884                14.2183

                     37                     38                     39
                      A                      A                      A
 Frequencies --   1307.9299              1336.3835              1375.7329
 Red. masses --      1.3049                 1.1938                 1.6089
 Frc consts  --      1.3152                 1.2562                 1.7941
 IR Inten    --     27.0014                 9.0312                97.3200

                     40                     41                     42
                      A                      A                      A
 Frequencies --   1412.2781              1420.4815              1451.8499
 Red. masses --      1.2585                 1.2912                 1.6805
 Frc consts  --      1.4789                 1.5351                 2.0871
 IR Inten    --     21.7316                 6.4837                33.4783

                     43                     44                     45
                      A                      A                      A
 Frequencies --   1485.3969              1492.7327              1501.4577
 Red. masses --      1.0889                 1.0488                 1.0486
 Frc consts  --      1.4155                 1.3769                 1.3928
 IR Inten    --     11.2301                12.1243                 9.8551

                     46                     47                     48
                      A                      A                      A
 Frequencies --   1504.6819              1517.1067              1535.9868
 Red. masses --      1.1776                 1.7012                 1.0772
 Frc consts  --      1.5708                 2.3070                 1.4974
 IR Inten    --      9.0788                55.2596                 2.1557

                     49                     50                     51
                      A                      A                      A
 Frequencies --   1699.1660              1785.4776              1799.5310
 Red. masses --      1.0908                 8.3719                 9.2915
 Frc consts  --      1.8555                15.7247                17.7277
 IR Inten    --     64.0453               183.7847               296.6117

                     52                     53                     54
                      A                      A                      A
 Frequencies --   3026.6550              3063.3996              3065.7002
 Red. masses --      1.0566                 1.1067                 1.0365
 Frc consts  --      5.7027                 6.1189                 5.7394
 IR Inten    --     45.0760                37.4827                 0.7683

                     55                     56                     57
                      A                      A                      A
 Frequencies --   3068.1141              3096.4889              3134.1390
 Red. masses --      1.0681                 1.0638                 1.0994
 Frc consts  --      5.9239                 6.0098                 6.3627
 IR Inten    --     31.8845                22.9014                 3.0694

                     58                     59                     60
                      A                      A                      A
 Frequencies --   3143.3529              3173.2446              3177.4045
 Red. masses --      1.0974                 1.1042                 1.1003
 Frc consts  --      6.3885                 6.5508                 6.5452
 IR Inten    --      8.3153                 4.6889                 1.9111

                     61                     62                     63
                      A                      A                      A
 Frequencies --   3475.3938              3563.3457              3588.5195
 Red. masses --      1.0497                 1.0937                 1.0751
 Frc consts  --      7.4704                 8.1822                 8.1571
 IR Inten    --     11.6760                 9.4783                13.7015

 - Thermochemistry -
 -------------------
 Temperature   298.150 Kelvin.  Pressure   1.00000 Atm.
 Atom     1 has atomic number  6 and mass  12.00000

 Molecular mass:   176.06195 amu.
 Principal axes and moments of inertia in atomic units:
                           1         2         3
     Eigenvalues --  1390.021362604.222252963.62080
           X            0.99868  -0.04556   0.02352
           Y            0.04543   0.99895   0.00586
           Z           -0.02377  -0.00478   0.99971
 This molecule is an asymmetric top.
 Rotational symmetry number  1.
 Warning -- assumption of classical behavior for rotation
           may cause significant error
 Rotational temperatures (Kelvin)      0.06231     0.03326     0.02923
 Rotational constants (GHZ):           1.29836     0.69301     0.60896
    1 imaginary frequencies ignored.
 Zero-point vibrational energy     498352.7 (Joules/Mol)
                                  119.10916 (Kcal/Mol)
 Warning -- explicit consideration of  18 degrees of freedom as
           vibrations may cause significant error
 Vibrational temperatures:     62.99    91.79   113.63   133.46   165.98
          (Kelvin)            200.72   307.36   364.32   370.04   474.69
                              501.81   508.31   679.07   684.46   698.44
                              756.82   788.84   890.21   923.38   988.22
                             1007.66  1103.64  1246.20  1320.52  1382.21
                             1394.15  1449.47  1502.51  1519.38  1558.45
                             1659.13  1666.73  1711.90  1757.69  1835.98
                             1881.82  1922.76  1979.37  2031.95  2043.76
                             2088.89  2137.15  2147.71  2160.26  2164.90
                             2182.78  2209.94  2444.72  2568.90  2589.12
                             4354.68  4407.55  4410.86  4414.33  4455.16
                             4509.33  4522.58  4565.59  4571.58  5000.32
                             5126.86  5163.08

 Zero-point correction=                           0.189813 (Hartree/Particle)
 Thermal correction to Energy=                    0.202007
 Thermal correction to Enthalpy=                  0.202952
 Thermal correction to Gibbs Free Energy=         0.150571
 Sum of electronic and zero-point Energies=           -893.866243
 Sum of electronic and thermal Energies=              -893.854048
 Sum of electronic and thermal Enthalpies=            -893.853104
 Sum of electronic and thermal Free Energies=         -893.905484

                     E (Thermal)             CV                S
                      KCal/Mol        Cal/Mol-Kelvin    Cal/Mol-Kelvin
 Total                  126.762             43.750            110.244
 Electronic               0.000              0.000              0.000
 Translational            0.889              2.981             41.404
 Rotational               0.889              2.981             30.751
 Vibrational            124.984             37.788             38.089
 Vibration     1          0.595              1.980              5.080
 Vibration     2          0.597              1.972              4.336
 Vibration     3          0.600              1.963              3.916
 Vibration     4          0.602              1.954              3.601
 Vibration     5          0.608              1.937              3.177
 Vibration     6          0.615              1.914              2.811
 Vibration     7          0.644              1.820              2.012
 Vibration     8          0.664              1.757              1.708
 Vibration     9          0.667              1.751              1.681
 Vibration    10          0.713              1.616              1.260
 Vibration    11          0.726              1.578              1.172
 Vibration    12          0.729              1.568              1.151
 Vibration    13          0.829              1.312              0.732
 Vibration    14          0.832              1.304              0.722
 Vibration    15          0.841              1.282              0.696
 Vibration    16          0.881              1.192              0.596
 Vibration    17          0.904              1.143              0.548
 Vibration    18          0.979              0.992              0.419

                           ! Non-Optimized Parameters !
 Normal termination of Gaussian 16 at Sun Dec 13 12:23:47 2020.

 ----------------------------------------------------------------------
 # B3LYP/6-311++G(d,p) empiricaldispersion=gd3bj scf=xqc pop=npa geom=c
 heck
 ----------------------------------------------------------------------

 -----------------------------------
 CID_57212_JID_1013_Energie_neutraal
 -----------------------------------
 Structure from the checkpoint file:  "JID_1013.chk"
 Charge =  0 Multiplicity = 1

 SCF Done:  E(RB3LYP) =  -894.243510489     A.U. after   15 cycles
 Normal termination of Gaussian 16 at Sun Dec 13 12:25:23 2020.

 ----------------------------------------------------------------------
 # B3LYP/6-311++G(d,p) empiricaldispersion=gd3bj scf=xqc pop=npa geom=c
 heck
 ----------------------------------------------------------------------

 ---------------------------------
 CID_57212_JID_1013_Energie_kation
 ---------------------------------
 Structure from the checkpoint file:  "JID_1013.chk"
 Charge =  1 Multiplicity = 2

 SCF Done:  E(UB3LYP) =  -893.922741454     A.U. after   32 cycles
 Normal termination of Gaussian 16 at Sun Dec 13 12:29:51 2020.
 Gaussian 16:  ES64L-G16RevA.03 25-Dec-2016

 ----------------------------------------------------------------------
 # B3LYP/6-311++G(d,p) empiricaldispersion=gd3bj scf=xqc pop=npa geom=c
 heck
 ----------------------------------------------------------------------

 --------------------------------
 CID_57212_JID_1013_Energie_anion
 --------------------------------
 Structure from the checkpoint file:  "JID_1013.chk"
 Charge = -1 Multiplicity = 2

                         Standard orientation:
 ---------------------------------------------------------------------
 Center     Atomic      Atomic             Coordinates (Angstroms)
 Number     Number       Type             X           Y           Z
 ---------------------------------------------------------------------
      1          6           0       -2.895802    1.607855   -0.096467
      2          6           0       -1.777714    0.702023    0.370917
      3          8           0       -0.889943    1.062118    1.111913
      4         16           0       -1.929713   -0.986588   -0.259322
      5          6           0       -0.420791   -1.732785    0.459113
      6          6           0        0.770040   -1.751007   -0.512302
      7          7           0        1.017751   -0.484780   -1.175444
      8          6           0        1.751808    0.594170   -0.754853
      9          8           0        1.694835    1.659510   -1.356686
     10          6           0        2.689609    0.416203    0.440590
     11          7           0        1.976911   -0.013982    1.649850
     12          1           0       -2.643565    2.639308    0.156673
     13          1           0       -3.829564    1.328031    0.404664
     14          1           0       -3.052821    1.513105   -1.175048
     15          1           0       -0.160640   -1.144080    1.339008
     16          1           0       -0.681472   -2.749718    0.766674
     17          1           0        1.655716   -2.039939    0.057098
     18          1           0        0.607998   -2.504158   -1.291474
     19          1           0        0.382082   -0.241197   -1.925757
     20          1           0        3.438632   -0.348511    0.191834
     21          1           0        3.212288    1.377790    0.530418
     22          1           0        2.615511    0.008121    2.442528
     23          1           0        1.226556    0.646216    1.847883
 ---------------------------------------------------------------------

 SCF Done:  E(UB3LYP) =  -894.231399864     A.U. after   33 cycles
 SCF Done:  E(UB3LYP) =  -894.231399864     a.u. after    1 cycles

 The electronic state is 2-A.
 Alpha  occ. eigenvalues --  -88.73948 -18.99629 -18.96972 -14.21689 -14.18012
 Alpha  occ. eigenvalues --  -10.15369 -10.15102 -10.09659 -10.08550 -10.08520
 Alpha  occ. eigenvalues --  -10.07689  -7.82623  -5.78951  -5.78574  -5.78124
 Alpha  occ. eigenvalues --   -0.93510  -0.92078  -0.80815  -0.76825  -0.69031
 Alpha  occ. eigenvalues --   -0.64905  -0.59914  -0.58048  -0.51612  -0.45944
 Alpha  occ. eigenvalues --   -0.41902  -0.39370  -0.38335  -0.36368  -0.35317
 Alpha  occ. eigenvalues --   -0.34668  -0.33655  -0.32807  -0.31773  -0.30819
 Alpha  occ. eigenvalues --   -0.30242  -0.28057  -0.27810  -0.26364  -0.25786
 Alpha  occ. eigenvalues --   -0.25025  -0.21799  -0.14963  -0.14659  -0.14214
 Alpha  occ. eigenvalues --   -0.13856  -0.13102   0.04979
 Alpha virt. eigenvalues --    0.07255   0.07390   0.07803   0.09345   0.10173
 Alpha virt. eigenvalues --    0.11059   0.11184   0.11514   0.12308   0.12625
 Alpha virt. eigenvalues --    0.13251   0.13541   0.14342   0.14655   0.15758

  Beta  occ. eigenvalues --  -88.73954 -18.99417 -18.96951 -14.21680 -14.17975
  Beta  occ. eigenvalues --  -10.15355 -10.14790 -10.09616 -10.08544 -10.08495
  Beta  occ. eigenvalues --  -10.07710  -7.82627  -5.78960  -5.78583  -5.78133
  Beta  occ. eigenvalues --   -0.93073  -0.92037  -0.80785  -0.76763  -0.68923
  Beta  occ. eigenvalues --   -0.64710  -0.59849  -0.57959  -0.51513  -0.45865
  Beta  occ. eigenvalues --   -0.41527  -0.39258  -0.38267  -0.36237  -0.35199
  Beta  occ. eigenvalues --   -0.34275  -0.33411  -0.32641  -0.31731  -0.30775
  Beta  occ. eigenvalues --   -0.30182  -0.27967  -0.27729  -0.25991  -0.25216
  Beta  occ. eigenvalues --   -0.24805  -0.21739  -0.14842  -0.14510  -0.14110
  Beta  occ. eigenvalues --   -0.13788  -0.13046
  Beta virt. eigenvalues --    0.07348   0.08053   0.08729   0.09086   0.10300
  Beta virt. eigenvalues --    0.10904   0.11120   0.11517   0.11969   0.12412
  Beta virt. eigenvalues --    0.12947   0.13472   0.13724   0.14551   0.15114

 Mulliken charges and spin densities:
               1          2
     1  C   -0.368106  -0.341598
     2  C   -0.264401   0.437073
     3  O   -0.221843   0.054659
     4  S    0.490509  -0.446480
     5  C   -0.173312   0.096142
     6  C    0.802959  -1.165195
     7  N   -0.122391   0.001168
     8  C   -0.918090   0.854146
     9  O   -0.346669   0.020350
    10  C    1.702818  -2.058515
    11  N   -0.581434   0.129239
    12  H    0.102139   0.052249
    13  H    0.162836  -0.005047
    14  H    0.018231   0.141319
    15  H    0.337169  -0.142153
    16  H   -0.346917   0.593816
    17  H   -0.363940   0.540508
    18  H   -0.529494   0.709053
    19  H    0.069988   0.204775
    20  H   -0.557460   0.739327
    21  H    0.033586   0.124977
    22  H   -0.128345   0.394713
    23  H    0.202166   0.065472
 Sum of Mulliken charges =  -1.00000   1.00000

 Dipole moment (field-independent basis, Debye):
    X=             -5.7621    Y=              2.0555    Z=              0.6412  Tot=              6.1512
 Quadrupole moment (field-independent basis, Debye-Ang):
   XX=           -116.5168   YY=           -114.5376   ZZ=           -103.4613
   XY=              0.9670   XZ=             -4.1525   YZ=              0.8240

 Summary of Natural Population Analysis:

                                       Natural Population
                Natural  -----------------------------------------------
    Atom  No    Charge         Core      Valence    Rydberg      Total
 -----------------------------------------------------------------------
      C    1   -0.33377      0.99961     2.32930    0.00485     3.33377
      C    2    0.25108      0.99973     1.72615    0.02304     2.74892
      O    3   -0.28040      0.99986     3.27221    0.00834     4.28040
      S    4    0.06074      4.99954     2.92239    0.01734     7.93926
      C    5   -0.25861      0.99958     2.24871    0.01033     3.25861
      C    6   -0.09438      0.99959     2.08087    0.01391     3.09438
      N    7   -0.32145      0.99967     2.80989    0.01189     3.82145
      C    8    0.34505      0.99967     1.63173    0.02355     2.65495
      O    9   -0.32522      0.99988     3.31955    0.00580     4.32522
      C   10   -0.12865      0.99960     2.11786    0.01119     3.12865
      N   11   -0.42998      0.99977     2.91846    0.01174     3.92998
      H   12    0.10962      0.00000     0.38890    0.00148     0.39038
      H   13    0.10864      0.00000     0.39048    0.00088     0.39136
      H   14    0.11021      0.00000     0.38854    0.00125     0.38979
      H   15    0.12516      0.00000     0.37238    0.00246     0.37484
      H   16    0.10428      0.00000     0.39448    0.00125     0.39572
      H   17    0.11215      0.00000     0.38494    0.00291     0.38785
      H   18    0.09644      0.00000     0.40132    0.00224     0.40356
      H   19    0.19418      0.00000     0.30318    0.00264     0.30582
      H   20    0.09912      0.00000     0.39856    0.00232     0.40088
      H   21    0.09167      0.00000     0.40689    0.00144     0.40833
      H   22    0.17675      0.00000     0.32033    0.00292     0.32325
      H   23    0.18739      0.00000     0.31020    0.00241     0.31261
 =======================================================================
   * Total *   -0.00000     14.99649    31.83733    0.16618    47.00000

 Normal termination of Gaussian 16 at Sun Dec 13 12:34:28 2020.
