 Gaussian 16, Revision A.03,

 -----------------------------------------------------------
 # opt freq B3LYP/6-31G(d) empiricaldispersion=gd3bj scf=xqc
 -----------------------------------------------------------

 -------------------------------
 CID_121211853_JID_4190_neutraal
 -------------------------------
 Symbolic Z-matrix:
 Charge =  0 Multiplicity = 1

 SCF Done:  E(RB3LYP) =  -643.217944379     A.U. after   15 cycles
 SCF Done:  E(RB3LYP) =  -643.221253393     A.U. after   12 cycles
 SCF Done:  E(RB3LYP) =  -643.221841813     A.U. after   11 cycles
 SCF Done:  E(RB3LYP) =  -643.222115330     A.U. after   11 cycles
 SCF Done:  E(RB3LYP) =  -643.222483810     A.U. after   12 cycles
 SCF Done:  E(RB3LYP) =  -643.222753161     A.U. after   12 cycles
 SCF Done:  E(RB3LYP) =  -643.223121202     A.U. after   12 cycles
 SCF Done:  E(RB3LYP) =  -643.223480340     A.U. after   12 cycles
 SCF Done:  E(RB3LYP) =  -643.223609727     A.U. after   11 cycles
 SCF Done:  E(RB3LYP) =  -643.224125136     A.U. after   13 cycles
 SCF Done:  E(RB3LYP) =  -643.225885944     A.U. after   10 cycles
 SCF Done:  E(RB3LYP) =  -643.225887150     A.U. after    9 cycles
 SCF Done:  E(RB3LYP) =  -643.225887293     A.U. after    8 cycles
 SCF Done:  E(RB3LYP) =  -643.225887329     A.U. after    7 cycles
 SCF Done:  E(RB3LYP) =  -643.225887345     A.U. after    7 cycles
 Optimization completed.
    -- Stationary point found.
 Normal termination of Gaussian 16 at Thu Dec 10 09:22:10 2020.

 --------------------------------------------------------------------
 #N Geom=AllCheck Guess=TCheck SCRF=Check GenChk RB3LYP/6-31G(d) Freq
 --------------------------------------------------------------------

 Structure from the checkpoint file:  "JID_4190.chk"
 -------------------------------
 CID_121211853_JID_4190_neutraal
 -------------------------------
 Charge =  0 Multiplicity = 1

 SCF Done:  E(RB3LYP) =  -643.225887345     A.U. after    1 cycles

  Exact polarizability: 196.920  -0.306 116.198   7.012   6.091  59.468
 Approx polarizability: 277.080   4.584 205.801  12.358  15.268  92.685

                      1                      2                      3
                      A                      A                      A
 Frequencies --     44.4648                49.0361                82.7889
 Red. masses --      5.0388                 4.9569                 4.6701
 Frc consts  --      0.0059                 0.0070                 0.0189
 IR Inten    --      0.1614                 1.1746                 4.0815

                      4                      5                      6
                      A                      A                      A
 Frequencies --    115.2521               133.5301               146.4175
 Red. masses --      4.1817                 3.2136                 1.1859
 Frc consts  --      0.0327                 0.0338                 0.0150
 IR Inten    --      2.5653                 0.4852                 0.2127

                      7                      8                      9
                      A                      A                      A
 Frequencies --    210.5310               261.3268               292.0892
 Red. masses --      3.3703                 2.3470                 4.5716
 Frc consts  --      0.0880                 0.0944                 0.2298
 IR Inten    --      0.0069                 4.1607                 2.3419

                     10                     11                     12
                      A                      A                      A
 Frequencies --    333.1904               337.5854               415.4229
 Red. masses --      4.6304                 3.4430                 1.8712
 Frc consts  --      0.3029                 0.2312                 0.1903
 IR Inten    --      5.2362                 8.8811                59.9183

                     13                     14                     15
                      A                      A                      A
 Frequencies --    423.1833               465.8297               531.3592
 Red. masses --      2.6006                 3.7315                 4.9674
 Frc consts  --      0.2744                 0.4771                 0.8263
 IR Inten    --     57.1986                46.1218                 2.8876

                     16                     17                     18
                      A                      A                      A
 Frequencies --    540.7515               628.3579               644.7133
 Red. masses --      3.4881                 8.4352                 5.3582
 Frc consts  --      0.6009                 1.9623                 1.3122
 IR Inten    --      9.9206                 1.8990                 3.0552

                     19                     20                     21
                      A                      A                      A
 Frequencies --    685.3813               725.6883               755.4244
 Red. masses --      5.0322                 4.7705                 6.2176
 Frc consts  --      1.3927                 1.4802                 2.0905
 IR Inten    --     25.4634                 0.1754                21.6854

                     22                     23                     24
                      A                      A                      A
 Frequencies --    784.9813               810.3552               838.3132
 Red. masses --      2.5231                 4.4645                 1.3085
 Frc consts  --      0.9160                 1.7273                 0.5418
 IR Inten    --      0.5613                32.0304                28.1749

                     25                     26                     27
                      A                      A                      A
 Frequencies --    872.1435               969.5196               978.1169
 Red. masses --      1.6119                 1.3676                 1.4749
 Frc consts  --      0.7224                 0.7574                 0.8314
 IR Inten    --      5.3497                 0.5217                 0.1413

                     28                     29                     30
                      A                      A                      A
 Frequencies --    987.7053              1003.0430              1017.6063
 Red. masses --      4.0629                 1.7548                 1.7190
 Frc consts  --      2.3353                 1.0402                 1.0488
 IR Inten    --     20.0065                60.9224                 3.4839

                     31                     32                     33
                      A                      A                      A
 Frequencies --   1036.4896              1078.4552              1082.1377
 Red. masses --      5.2858                 2.9286                 1.7757
 Frc consts  --      3.3457                 2.0068                 1.2251
 IR Inten    --     22.6365                67.3227                18.2205

                     34                     35                     36
                      A                      A                      A
 Frequencies --   1089.7529              1117.9676              1174.8839
 Red. masses --      3.2967                 1.7327                 2.2294
 Frc consts  --      2.3067                 1.2759                 1.8131
 IR Inten    --     55.0638                 8.7160                 5.4735

                     37                     38                     39
                      A                      A                      A
 Frequencies --   1203.5048              1237.1646              1247.4009
 Red. masses --      1.9002                 2.1611                 3.0396
 Frc consts  --      1.6216                 1.9488                 2.7866
 IR Inten    --     24.5644                 3.5544               104.3028

                     40                     41                     42
                      A                      A                      A
 Frequencies --   1260.3678              1322.0839              1347.8703
 Red. masses --      6.8042                 1.5850                 2.7458
 Frc consts  --      6.3683                 1.6322                 2.9391
 IR Inten    --      9.6724                11.3843               122.1601

                     43                     44                     45
                      A                      A                      A
 Frequencies --   1394.3484              1413.2060              1431.9570
 Red. masses --      2.0736                 1.5483                 2.0547
 Frc consts  --      2.3753                 1.8219                 2.4823
 IR Inten    --     44.5849                34.5373                10.6154

                     46                     47                     48
                      A                      A                      A
 Frequencies --   1441.9027              1456.4985              1486.8386
 Red. masses --      1.2446                 1.2803                 3.0952
 Frc consts  --      1.5246                 1.6002                 4.0314
 IR Inten    --      6.9263                61.4395                35.3120

                     49                     50                     51
                      A                      A                      A
 Frequencies --   1502.4903              1512.2856              1519.9117
 Red. masses --      2.3296                 1.0732                 1.1419
 Frc consts  --      3.0985                 1.4461                 1.5542
 IR Inten    --      9.4409                 8.9632                 6.7916

                     52                     53                     54
                      A                      A                      A
 Frequencies --   1536.4099              1552.2695              1588.4237
 Red. masses --      1.4331                 3.4448                 8.3382
 Frc consts  --      1.9932                 4.8905                12.3952
 IR Inten    --      7.4293                40.6004                30.1229

                     55                     56                     57
                      A                      A                      A
 Frequencies --   1616.6095              1634.9932              3048.3245
 Red. masses --      6.1562                 5.2537                 1.0412
 Frc consts  --      9.4792                 8.2747                 5.7004
 IR Inten    --      7.5537                17.6958                24.7183

                     58                     59                     60
                      A                      A                      A
 Frequencies --   3087.3141              3105.0452              3149.5433
 Red. masses --      1.0606                 1.0977                 1.1009
 Frc consts  --      5.9559                 6.2358                 6.4340
 IR Inten    --     36.6634                 9.7171                11.1512

                     61                     62                     63
                      A                      A                      A
 Frequencies --   3155.0029              3173.7213              3193.9772
 Red. masses --      1.1068                 1.0876                 1.0956
 Frc consts  --      6.4909                 6.4544                 6.5853
 IR Inten    --     15.8859                 9.4521                56.9640

                     64                     65                     66
                      A                      A                      A
 Frequencies --   3208.9328              3296.2485              3729.5509
 Red. masses --      1.0923                 1.0976                 1.0659
 Frc consts  --      6.6269                 7.0262                 8.7356
 IR Inten    --      2.2566                 0.5958                21.3774

 - Thermochemistry -
 -------------------
 Temperature   298.150 Kelvin.  Pressure   1.00000 Atm.
 Atom     1 has atomic number  6 and mass  12.00000

 Molecular mass:   190.08546 amu.
 Principal axes and moments of inertia in atomic units:
                           1         2         3
     Eigenvalues --   986.301915026.894505832.27352
           X            0.99999  -0.00425   0.00335
           Y            0.00423   0.99997   0.00593
           Z           -0.00338  -0.00591   0.99998
 This molecule is an asymmetric top.
 Rotational symmetry number  1.
 Warning -- assumption of classical behavior for rotation
           may cause significant error
 Rotational temperatures (Kelvin)      0.08782     0.01723     0.01485
 Rotational constants (GHZ):           1.82981     0.35902     0.30944
 Zero-point vibrational energy     499548.5 (Joules/Mol)
                                  119.39497 (Kcal/Mol)
 Warning -- explicit consideration of  16 degrees of freedom as
           vibrations may cause significant error
 Vibrational temperatures:     63.97    70.55   119.11   165.82   192.12
          (Kelvin)            210.66   302.91   375.99   420.25   479.39
                              485.71   597.70   608.87   670.23   764.51
                              778.02   904.07   927.60   986.11  1044.10
                             1086.89  1129.41  1165.92  1206.15  1254.82
                             1394.92  1407.29  1421.09  1443.16  1464.11
                             1491.28  1551.66  1556.95  1567.91  1608.51
                             1690.40  1731.57  1780.00  1794.73  1813.39
                             1902.18  1939.28  2006.16  2033.29  2060.27
                             2074.58  2095.58  2139.23  2161.75  2175.84
                             2186.81  2210.55  2233.37  2285.39  2325.94
                             2352.39  4385.86  4441.96  4467.47  4531.49
                             4539.35  4566.28  4595.42  4616.94  4742.57
                             5365.99

 Zero-point correction=                           0.190268 (Hartree/Particle)
 Thermal correction to Energy=                    0.202385
 Thermal correction to Enthalpy=                  0.203329
 Thermal correction to Gibbs Free Energy=         0.150681
 Sum of electronic and zero-point Energies=           -643.035619
 Sum of electronic and thermal Energies=              -643.023502
 Sum of electronic and thermal Enthalpies=            -643.022558
 Sum of electronic and thermal Free Energies=         -643.075207

                     E (Thermal)             CV                S
                      KCal/Mol        Cal/Mol-Kelvin    Cal/Mol-Kelvin
 Total                  126.998             45.043            110.808
 Electronic               0.000              0.000              0.000
 Translational            0.889              2.981             41.633
 Rotational               0.889              2.981             31.736
 Vibrational            125.221             39.081             37.439
 Vibration     1          0.595              1.980              5.050
 Vibration     2          0.595              1.978              4.856
 Vibration     3          0.600              1.961              3.824
 Vibration     4          0.608              1.937              3.178
 Vibration     5          0.613              1.920              2.895
 Vibration     6          0.617              1.907              2.718
 Vibration     7          0.643              1.825              2.039
 Vibration     8          0.669              1.744              1.653
 Vibration     9          0.687              1.688              1.462
 Vibration    10          0.715              1.609              1.245
 Vibration    11          0.718              1.600              1.224
 Vibration    12          0.779              1.437              0.908
 Vibration    13          0.785              1.420              0.881
 Vibration    14          0.823              1.326              0.749
 Vibration    15          0.886              1.181              0.584
 Vibration    16          0.896              1.160              0.564

                           ! Non-Optimized Parameters !
 Normal termination of Gaussian 16 at Thu Dec 10 09:27:46 2020.

 ----------------------------------------------------------------------
 # B3LYP/6-311++G(d,p) empiricaldispersion=gd3bj scf=xqc pop=npa geom=c
 heck
 ----------------------------------------------------------------------

 ---------------------------------------
 CID_121211853_JID_4190_Energie_neutraal
 ---------------------------------------
 Structure from the checkpoint file:  "JID_4190.chk"
 Charge =  0 Multiplicity = 1

 SCF Done:  E(RB3LYP) =  -643.404095356     A.U. after   15 cycles
 Normal termination of Gaussian 16 at Thu Dec 10 09:29:49 2020.

 ----------------------------------------------------------------------
 # B3LYP/6-311++G(d,p) empiricaldispersion=gd3bj scf=xqc pop=npa geom=c
 heck
 ----------------------------------------------------------------------

 -------------------------------------
 CID_121211853_JID_4190_Energie_kation
 -------------------------------------
 Structure from the checkpoint file:  "JID_4190.chk"
 Charge =  1 Multiplicity = 2

 SCF Done:  E(UB3LYP) =  -643.097024887     A.U. after   30 cycles
 Normal termination of Gaussian 16 at Thu Dec 10 09:35:13 2020.
 Gaussian 16:  ES64L-G16RevA.03 25-Dec-2016

 ----------------------------------------------------------------------
 # B3LYP/6-311++G(d,p) empiricaldispersion=gd3bj scf=xqc pop=npa geom=c
 heck
 ----------------------------------------------------------------------

 ------------------------------------
 CID_121211853_JID_4190_Energie_anion
 ------------------------------------
 Structure from the checkpoint file:  "JID_4190.chk"
 Charge = -1 Multiplicity = 2

                         Standard orientation:
 ---------------------------------------------------------------------
 Center     Atomic      Atomic             Coordinates (Angstroms)
 Number     Number       Type             X           Y           Z
 ---------------------------------------------------------------------
      1          6           0        3.224595   -1.838631    0.075476
      2          6           0        1.957598   -1.049633    0.125831
      3          6           0        0.636887   -1.420429   -0.014208
      4          6           0       -0.105568   -0.216948    0.101833
      5          7           0        0.698049    0.833368    0.297943
      6          7           0        1.946626    0.308170    0.330158
      7          6           0        3.083066    1.204430    0.374649
      8          8           0        3.652512    1.429891   -0.892856
      9          6           0       -1.559263   -0.057137    0.030040
     10          7           0       -2.291313   -1.162679   -0.190002
     11          6           0       -3.615078   -0.997625   -0.255194
     12          6           0       -4.216937    0.251216   -0.105399
     13          7           0       -3.495916    1.359364    0.115408
     14          6           0       -2.174649    1.199206    0.182717
     15          1           0        3.006052   -2.875421   -0.190577
     16          1           0        3.741760   -1.843103    1.043389
     17          1           0        3.915215   -1.426713   -0.668639
     18          1           0        0.241223   -2.411428   -0.173790
     19          1           0        2.721565    2.121620    0.850072
     20          1           0        3.870257    0.755503    0.982736
     21          1           0        2.977270    1.867224   -1.437325
     22          1           0       -4.213519   -1.889111   -0.432584
     23          1           0       -5.297045    0.365482   -0.162925
     24          1           0       -1.568922    2.082568    0.363465
 ---------------------------------------------------------------------

 SCF Done:  E(UB3LYP) =  -643.406680030     A.U. after   33 cycles
 SCF Done:  E(UB3LYP) =  -643.406680030     a.u. after    1 cycles

 The electronic state is 2-A.
 Alpha  occ. eigenvalues --  -19.03854 -14.26011 -14.19034 -14.15625 -14.14778
 Alpha  occ. eigenvalues --  -10.15729 -10.09474 -10.07700 -10.06045 -10.06008
 Alpha  occ. eigenvalues --  -10.05789 -10.05210 -10.04624 -10.03790  -0.95547
 Alpha  occ. eigenvalues --   -0.91364  -0.82061  -0.74924  -0.72021  -0.68579
 Alpha  occ. eigenvalues --   -0.62823  -0.59922  -0.57503  -0.51561  -0.50386
 Alpha  occ. eigenvalues --   -0.47734  -0.44046  -0.41130  -0.39212  -0.36818
 Alpha  occ. eigenvalues --   -0.36598  -0.35290  -0.34048  -0.32791  -0.32167
 Alpha  occ. eigenvalues --   -0.29975  -0.29356  -0.28964  -0.27063  -0.26809
 Alpha  occ. eigenvalues --   -0.26048  -0.23589  -0.20761  -0.18703  -0.17133
 Alpha  occ. eigenvalues --   -0.15633  -0.15186  -0.12775  -0.09918  -0.09453
 Alpha  occ. eigenvalues --    0.04755
 Alpha virt. eigenvalues --    0.06487   0.07972   0.08663   0.09361   0.09972
 Alpha virt. eigenvalues --    0.10482   0.11255   0.11503   0.12410   0.12865
 Alpha virt. eigenvalues --    0.13824   0.14041   0.15153   0.16293   0.16468

  Beta  occ. eigenvalues --  -19.03833 -14.25953 -14.18730 -14.15265 -14.14252
  Beta  occ. eigenvalues --  -10.15715 -10.09512 -10.07678 -10.06130 -10.06013
  Beta  occ. eigenvalues --  -10.05883 -10.04981 -10.04401 -10.03769  -0.95457
  Beta  occ. eigenvalues --   -0.91167  -0.81448  -0.74140  -0.71737  -0.68528
  Beta  occ. eigenvalues --   -0.62489  -0.59796  -0.57368  -0.50996  -0.50299
  Beta  occ. eigenvalues --   -0.47613  -0.43840  -0.41054  -0.39077  -0.36713
  Beta  occ. eigenvalues --   -0.36429  -0.35072  -0.33819  -0.32735  -0.32133
  Beta  occ. eigenvalues --   -0.29793  -0.29292  -0.28508  -0.26745  -0.26224
  Beta  occ. eigenvalues --   -0.25600  -0.23395  -0.20702  -0.16826  -0.16756
  Beta  occ. eigenvalues --   -0.14632  -0.14588  -0.12254  -0.08966  -0.08849
  Beta virt. eigenvalues --    0.06831   0.08127   0.08926   0.09321   0.10264
  Beta virt. eigenvalues --    0.10532   0.10844   0.11426   0.11504   0.12438
  Beta virt. eigenvalues --    0.12772   0.13899   0.14261   0.15061   0.16288

 Mulliken charges and spin densities:
               1          2
     1  C    0.271912  -0.776280
     2  C   -0.794748   0.659059
     3  C    0.170176  -0.335329
     4  C   -0.142944  -0.059358
     5  N   -0.227491   0.180619
     6  N    0.212220   0.054624
     7  C    0.171668  -0.463631
     8  O   -0.289947   0.030763
     9  C   -0.478656   0.150370
    10  N   -0.091121   0.240565
    11  C    0.182098  -0.039808
    12  C   -0.342327   0.192257
    13  N   -0.107504   0.147770
    14  C   -0.194690  -0.039368
    15  H    0.029382   0.126573
    16  H   -0.038174   0.191252
    17  H   -0.002812   0.174284
    18  H    0.177911   0.004935
    19  H   -0.023419   0.195112
    20  H   -0.112419   0.294079
    21  H    0.188346   0.075021
    22  H    0.124774   0.004885
    23  H    0.124681  -0.015441
    24  H    0.193084   0.007049
 Sum of Mulliken charges =  -1.00000   1.00000

 Dipole moment (field-independent basis, Debye):
    X=              3.1337    Y=             -1.2680    Z=             -0.3592  Tot=              3.3995
 Quadrupole moment (field-independent basis, Debye-Ang):
   XX=           -145.4890   YY=           -100.9367   ZZ=            -93.4633
   XY=              4.7909   XZ=              1.0511   YZ=             -0.7227

 Summary of Natural Population Analysis:

                                       Natural Population
                Natural  -----------------------------------------------
    Atom  No    Charge         Core      Valence    Rydberg      Total
 -----------------------------------------------------------------------
      C    1   -0.30446      0.99963     2.29959    0.00524     3.30446
      C    2    0.07060      0.99954     1.91768    0.01218     2.92940
      C    3   -0.14267      0.99946     2.13373    0.00948     3.14267
      C    4    0.06144      0.99957     1.92426    0.01473     2.93856
      N    5   -0.11967      0.99970     2.60852    0.01144     3.61967
      N    6   -0.12383      0.99962     2.61119    0.01302     3.62383
      C    7    0.07908      0.99962     1.90458    0.01672     2.92092
      O    8   -0.36753      0.99990     3.36091    0.00673     4.36753
      C    9    0.09571      0.99951     1.89150    0.01327     2.90429
      N   10   -0.15466      0.99969     2.64471    0.01026     3.65466
      C   11   -0.01776      0.99960     2.00414    0.01401     3.01776
      C   12    0.02562      0.99960     1.95946    0.01532     2.97438
      N   13   -0.18471      0.99971     2.67212    0.01287     3.68471
      C   14   -0.00119      0.99957     1.98881    0.01282     3.00119
      H   15    0.10653      0.00000     0.39280    0.00066     0.39347
      H   16    0.10158      0.00000     0.39724    0.00119     0.39842
      H   17    0.10898      0.00000     0.38979    0.00122     0.39102
      H   18    0.11183      0.00000     0.38638    0.00178     0.38817
      H   19    0.08895      0.00000     0.40930    0.00175     0.41105
      H   20    0.08681      0.00000     0.41154    0.00165     0.41319
      H   21    0.23081      0.00000     0.26603    0.00316     0.26919
      H   22    0.07959      0.00000     0.41883    0.00158     0.42041
      H   23    0.07775      0.00000     0.42078    0.00147     0.42225
      H   24    0.09118      0.00000     0.40614    0.00269     0.40882
 =======================================================================
   * Total *    0.00000     13.99474    35.82002    0.18524    50.00000

 Normal termination of Gaussian 16 at Thu Dec 10 09:41:15 2020.
