 Gaussian 16, Revision A.03,

 -----------------------------------------------------------
 # opt freq B3LYP/6-31G(d) empiricaldispersion=gd3bj scf=xqc
 -----------------------------------------------------------

 ------------------------------
 CID_85770832_JID_4929_neutraal
 ------------------------------
 Symbolic Z-matrix:
 Charge =  0 Multiplicity = 1

 SCF Done:  E(RB3LYP) =  -723.748361952     A.U. after   15 cycles
 SCF Done:  E(RB3LYP) =  -723.754512137     A.U. after   12 cycles
 SCF Done:  E(RB3LYP) =  -723.755445508     A.U. after   12 cycles
 SCF Done:  E(RB3LYP) =  -723.755694963     A.U. after   11 cycles
 SCF Done:  E(RB3LYP) =  -723.755796705     A.U. after   10 cycles
 SCF Done:  E(RB3LYP) =  -723.755847324     A.U. after   10 cycles
 SCF Done:  E(RB3LYP) =  -723.755871737     A.U. after   10 cycles
 SCF Done:  E(RB3LYP) =  -723.755877622     A.U. after    9 cycles
 SCF Done:  E(RB3LYP) =  -723.755879967     A.U. after    8 cycles
 SCF Done:  E(RB3LYP) =  -723.755881762     A.U. after    8 cycles
 SCF Done:  E(RB3LYP) =  -723.755882053     A.U. after    7 cycles
 Optimization completed.
    -- Stationary point found.
 Normal termination of Gaussian 16 at Thu Dec 10 10:52:36 2020.

 --------------------------------------------------------------------
 #N Geom=AllCheck Guess=TCheck SCRF=Check GenChk RB3LYP/6-31G(d) Freq
 --------------------------------------------------------------------

 Structure from the checkpoint file:  "JID_4929.chk"
 ------------------------------
 CID_85770832_JID_4929_neutraal
 ------------------------------
 Charge =  0 Multiplicity = 1

 SCF Done:  E(RB3LYP) =  -723.755882053     A.U. after    1 cycles

  Exact polarizability: 114.073   1.112 109.713   5.117  -8.832  93.246
 Approx polarizability: 152.856   1.389 151.609   9.867 -24.619 147.647

                      1                      2                      3
                      A                      A                      A
 Frequencies --     44.3427                46.2594                75.8488
 Red. masses --      3.3596                 3.1921                 5.0171
 Frc consts  --      0.0039                 0.0040                 0.0170
 IR Inten    --      0.2191                 0.2464                 0.3810

                      4                      5                      6
                      A                      A                      A
 Frequencies --     87.0579                91.5416               139.8014
 Red. masses --      3.4590                 3.5666                 5.5666
 Frc consts  --      0.0154                 0.0176                 0.0641
 IR Inten    --      1.0726                 1.9284                 0.9361

                      7                      8                      9
                      A                      A                      A
 Frequencies --    165.0144               221.8003               250.4085
 Red. masses --      3.0922                 1.9146                 1.3075
 Frc consts  --      0.0496                 0.0555                 0.0483
 IR Inten    --      1.4680                 0.9509                 0.7539

                     10                     11                     12
                      A                      A                      A
 Frequencies --    256.1890               296.5508               328.8916
 Red. masses --      1.7973                 2.5206                 2.3125
 Frc consts  --      0.0695                 0.1306                 0.1474
 IR Inten    --      1.3473                 0.3173                 1.0033

                     13                     14                     15
                      A                      A                      A
 Frequencies --    346.5577               382.8560               405.0741
 Red. masses --      3.3870                 5.2231                 3.8174
 Frc consts  --      0.2397                 0.4511                 0.3691
 IR Inten    --      5.5209                29.2602                 0.8445

                     16                     17                     18
                      A                      A                      A
 Frequencies --    427.0199               462.9038               511.4222
 Red. masses --      3.6941                 3.5725                 5.9216
 Frc consts  --      0.3969                 0.4510                 0.9125
 IR Inten    --      8.8572                 1.7052                10.3773

                     19                     20                     21
                      A                      A                      A
 Frequencies --    552.8981               572.3154               596.9195
 Red. masses --      3.9832                 3.6623                 2.9154
 Frc consts  --      0.7174                 0.7068                 0.6120
 IR Inten    --      8.5877                21.1169                12.2853

                     22                     23                     24
                      A                      A                      A
 Frequencies --    612.0084               628.3202               676.2970
 Red. masses --      2.8417                 2.3725                 2.1484
 Frc consts  --      0.6271                 0.5519                 0.5790
 IR Inten    --      6.1634                57.4975                27.7451

                     25                     26                     27
                      A                      A                      A
 Frequencies --    696.3687               772.5361               806.0098
 Red. masses --      1.4536                 6.6806                 1.3011
 Frc consts  --      0.4153                 2.3491                 0.4980
 IR Inten    --    104.8762                61.8133                14.7441

                     28                     29                     30
                      A                      A                      A
 Frequencies --    813.9673               838.2349               887.3961
 Red. masses --      1.1468                 2.1740                 3.2662
 Frc consts  --      0.4477                 0.9000                 1.5154
 IR Inten    --      6.5219                16.6622                 2.3043

                     31                     32                     33
                      A                      A                      A
 Frequencies --    922.1973               924.6049               971.2986
 Red. masses --      2.6395                 2.4429                 2.8338
 Frc consts  --      1.3226                 1.2305                 1.5752
 IR Inten    --      7.8174                 8.2523                13.1983

                     34                     35                     36
                      A                      A                      A
 Frequencies --   1010.9223              1062.7448              1074.4947
 Red. masses --      2.7521                 4.0025                 3.1370
 Frc consts  --      1.6571                 2.6634                 2.1339
 IR Inten    --     17.3069                28.7289                14.8493

                     37                     38                     39
                      A                      A                      A
 Frequencies --   1105.9365              1112.1280              1130.9541
 Red. masses --      2.5778                 2.6620                 2.4117
 Frc consts  --      1.8576                 1.9399                 1.8174
 IR Inten    --     92.8069               145.0604               173.2895

                     40                     41                     42
                      A                      A                      A
 Frequencies --   1147.4103              1179.0494              1206.9314
 Red. masses --      3.8073                 2.3150                 1.6681
 Frc consts  --      2.9533                 1.8961                 1.4317
 IR Inten    --    176.6036                19.5451                30.3643

                     43                     44                     45
                      A                      A                      A
 Frequencies --   1230.1549              1259.6264              1325.0346
 Red. masses --      2.6436                 1.4913                 1.5181
 Frc consts  --      2.3570                 1.3942                 1.5704
 IR Inten    --     63.9667                77.8118                 9.2086

                     46                     47                     48
                      A                      A                      A
 Frequencies --   1330.4127              1346.1755              1351.4854
 Red. masses --      2.7517                 1.1138                 1.2186
 Frc consts  --      2.8696                 1.1892                 1.3114
 IR Inten    --    195.2355                16.0555                23.4473

                     49                     50                     51
                      A                      A                      A
 Frequencies --   1416.4816              1425.1326              1426.1145
 Red. masses --      1.4594                 1.4396                 3.4545
 Frc consts  --      1.7252                 1.7227                 4.1395
 IR Inten    --    107.2519                48.4868               134.5377

                     52                     53                     54
                      A                      A                      A
 Frequencies --   1427.7404              1442.7480              1445.9246
 Red. masses --      1.4909                 1.4056                 1.3280
 Frc consts  --      1.7906                 1.7238                 1.6358
 IR Inten    --     46.3471                28.6523                57.3462

                     55                     56                     57
                      A                      A                      A
 Frequencies --   1456.4785              1493.5888              1514.2351
 Red. masses --      1.6180                 1.1059                 1.0443
 Frc consts  --      2.0223                 1.4536                 1.4108
 IR Inten    --     53.9983                12.7334                 7.9150

                     58                     59                     60
                      A                      A                      A
 Frequencies --   1515.4600              1525.6645              1528.6075
 Red. masses --      1.0441                 1.0473                 1.0522
 Frc consts  --      1.4128                 1.4363                 1.4486
 IR Inten    --      2.8749                 4.0057                 0.2980

                     61                     62                     63
                      A                      A                      A
 Frequencies --   1546.3665              1551.7883              1826.5403
 Red. masses --      1.0867                 1.0854                 8.8922
 Frc consts  --      1.5310                 1.5399                17.4790
 IR Inten    --      5.4486                 4.5559               475.3456

                     64                     65                     66
                      A                      A                      A
 Frequencies --   1844.2989              3046.9473              3049.2843
 Red. masses --      9.5615                 1.0679                 1.0680
 Frc consts  --     19.1619                 5.8414                 5.8506
 IR Inten    --    421.9433                32.4844                34.8250

                     67                     68                     69
                      A                      A                      A
 Frequencies --   3060.5476              3062.1152              3094.4439
 Red. masses --      1.0377                 1.0392                 1.0673
 Frc consts  --      5.7269                 5.7408                 6.0217
 IR Inten    --     15.3729                17.1712                 2.8146

                     70                     71                     72
                      A                      A                      A
 Frequencies --   3110.4414              3112.9762              3127.2856
 Red. masses --      1.0970                 1.0975                 1.1014
 Frc consts  --      6.2534                 6.2664                 6.3465
 IR Inten    --     18.3401                11.4533                28.2995

                     73                     74                     75
                      A                      A                      A
 Frequencies --   3133.2548              3152.6177              3154.1383
 Red. masses --      1.0980                 1.1020                 1.1036
 Frc consts  --      6.3509                 6.4531                 6.4688
 IR Inten    --     35.5658                31.1153                34.0729

                     76                     77                     78
                      A                      A                      A
 Frequencies --   3173.5119              3592.6683              3608.7558
 Red. masses --      1.0967                 1.0760                 1.0775
 Frc consts  --      6.5073                 8.1826                 8.2673
 IR Inten    --      3.8199                40.1732                60.5075

 - Thermochemistry -
 -------------------
 Temperature   298.150 Kelvin.  Pressure   1.00000 Atm.
 Atom     1 has atomic number  6 and mass  12.00000

 Molecular mass:   202.09536 amu.
 Principal axes and moments of inertia in atomic units:
                           1         2         3
     Eigenvalues --  2332.693482866.359383765.73169
           X            0.99995  -0.00578   0.00804
           Y            0.00533   0.99849   0.05474
           Z           -0.00835  -0.05469   0.99847
 This molecule is an asymmetric top.
 Rotational symmetry number  1.
 Warning -- assumption of classical behavior for rotation
           may cause significant error
 Rotational temperatures (Kelvin)      0.03713     0.03022     0.02300
 Rotational constants (GHZ):           0.77367     0.62963     0.47925
 Zero-point vibrational energy     613388.4 (Joules/Mol)
                                  146.60335 (Kcal/Mol)
 Warning -- explicit consideration of  22 degrees of freedom as
           vibrations may cause significant error
 Vibrational temperatures:     63.80    66.56   109.13   125.26   131.71
          (Kelvin)            201.14   237.42   319.12   360.28   368.60
                              426.67   473.20   498.62   550.84   582.81
                              614.39   666.02   735.82   795.50   823.43
                              858.83   880.54   904.01   973.04  1001.92
                             1111.51  1159.67  1171.12  1206.03  1276.77
                             1326.84  1330.30  1397.48  1454.49  1529.05
                             1545.96  1591.20  1600.10  1627.19  1650.87
                             1696.39  1736.51  1769.92  1812.32  1906.43
                             1914.17  1936.85  1944.49  2038.00  2050.45
                             2051.86  2054.20  2075.79  2080.36  2095.55
                             2148.94  2178.65  2180.41  2195.09  2199.33
                             2224.88  2232.68  2627.98  2653.53  4383.88
                             4387.24  4403.45  4405.70  4452.21  4475.23
                             4478.88  4499.47  4508.05  4535.91  4538.10
                             4565.98  5169.05  5192.19

 Zero-point correction=                           0.233627 (Hartree/Particle)
 Thermal correction to Energy=                    0.247696
 Thermal correction to Enthalpy=                  0.248640
 Thermal correction to Gibbs Free Energy=         0.192224
 Sum of electronic and zero-point Energies=           -723.522255
 Sum of electronic and thermal Energies=              -723.508186
 Sum of electronic and thermal Enthalpies=            -723.507242
 Sum of electronic and thermal Free Energies=         -723.563658

                     E (Thermal)             CV                S
                      KCal/Mol        Cal/Mol-Kelvin    Cal/Mol-Kelvin
 Total                  155.431             52.613            118.737
 Electronic               0.000              0.000              0.000
 Translational            0.889              2.981             41.815
 Rotational               0.889              2.981             31.599
 Vibrational            153.654             46.652             45.323
 Vibration     1          0.595              1.980              5.055
 Vibration     2          0.595              1.979              4.971
 Vibration     3          0.599              1.965              3.996
 Vibration     4          0.601              1.958              3.725
 Vibration     5          0.602              1.955              3.627
 Vibration     6          0.615              1.914              2.807
 Vibration     7          0.623              1.885              2.492
 Vibration     8          0.648              1.808              1.944
 Vibration     9          0.663              1.762              1.728
 Vibration    10          0.666              1.752              1.688
 Vibration    11          0.690              1.680              1.436
 Vibration    12          0.712              1.618              1.266
 Vibration    13          0.725              1.582              1.182
 Vibration    14          0.752              1.507              1.028
 Vibration    15          0.770              1.459              0.944
 Vibration    16          0.789              1.411              0.868
 Vibration    17          0.821              1.332              0.758
 Vibration    18          0.867              1.225              0.630
 Vibration    19          0.908              1.133              0.538
 Vibration    20          0.929              1.091              0.500
 Vibration    21          0.955              1.038              0.455
 Vibration    22          0.971              1.006              0.429

                           ! Non-Optimized Parameters !
 Normal termination of Gaussian 16 at Thu Dec 10 11:01:00 2020.

 ----------------------------------------------------------------------
 # B3LYP/6-311++G(d,p) empiricaldispersion=gd3bj scf=xqc pop=npa geom=c
 heck
 ----------------------------------------------------------------------

 --------------------------------------
 CID_85770832_JID_4929_Energie_neutraal
 --------------------------------------
 Structure from the checkpoint file:  "JID_4929.chk"
 Charge =  0 Multiplicity = 1

 SCF Done:  E(RB3LYP) =  -723.975879688     A.U. after   15 cycles
 Normal termination of Gaussian 16 at Thu Dec 10 11:04:49 2020.

 ----------------------------------------------------------------------
 # B3LYP/6-311++G(d,p) empiricaldispersion=gd3bj scf=xqc pop=npa geom=c
 heck
 ----------------------------------------------------------------------

 ------------------------------------
 CID_85770832_JID_4929_Energie_kation
 ------------------------------------
 Structure from the checkpoint file:  "JID_4929.chk"
 Charge =  1 Multiplicity = 2

 SCF Done:  E(UB3LYP) =  -723.631612747     A.U. after   27 cycles
 Normal termination of Gaussian 16 at Thu Dec 10 11:14:41 2020.
 Gaussian 16:  ES64L-G16RevA.03 25-Dec-2016

 ----------------------------------------------------------------------
 # B3LYP/6-311++G(d,p) empiricaldispersion=gd3bj scf=xqc pop=npa geom=c
 heck
 ----------------------------------------------------------------------

 -----------------------------------
 CID_85770832_JID_4929_Energie_anion
 -----------------------------------
 Structure from the checkpoint file:  "JID_4929.chk"
 Charge = -1 Multiplicity = 2

                         Standard orientation:
 ---------------------------------------------------------------------
 Center     Atomic      Atomic             Coordinates (Angstroms)
 Number     Number       Type             X           Y           Z
 ---------------------------------------------------------------------
      1          6           0        2.488590   -2.218255   -0.548533
      2          6           0        0.978827   -2.244701   -0.752646
      3          8           0        0.390547   -0.986901   -1.120595
      4          6           0        0.407958    0.084935   -0.213928
      5          6           0       -0.085935   -0.312289    1.181618
      6          6           0       -1.516980   -0.814463    1.119340
      7          8           0       -1.955624   -1.702803    1.823841
      8          7           0       -2.310427   -0.129269    0.214955
      9          6           0       -1.890643    0.790141   -0.759014
     10          8           0       -2.682768    1.314859   -1.517430
     11          7           0       -0.535543    1.063928   -0.738180
     12          8           0        1.702997    0.625013   -0.254596
     13          6           0        2.143895    1.539740    0.757175
     14          6           0        1.510166    2.924087    0.684037
     15          1           0        2.980225   -1.748460   -1.404912
     16          1           0        2.855879   -3.246569   -0.449954
     17          1           0        2.774167   -1.663385    0.348425
     18          1           0        0.725983   -2.890437   -1.597786
     19          1           0        0.467453   -2.654536    0.128069
     20          1           0       -0.078385    0.567534    1.832738
     21          1           0        0.538162   -1.077802    1.641440
     22          1           0       -3.288138   -0.390814    0.165397
     23          1           0       -0.221062    1.518743   -1.588197
     24          1           0        2.009644    1.098999    1.753453
     25          1           0        3.220750    1.610516    0.580865
     26          1           0        0.440503    2.900178    0.905822
     27          1           0        2.001153    3.587303    1.405590
     28          1           0        1.638967    3.349610   -0.316432
 ---------------------------------------------------------------------

 SCF Done:  E(UB3LYP) =  -723.965589629     A.U. after   33 cycles
 SCF Done:  E(UB3LYP) =  -723.965589629     a.u. after    1 cycles

 The electronic state is 2-A.
 Alpha  occ. eigenvalues --  -19.04392 -19.04310 -19.01530 -19.00831 -14.26994
 Alpha  occ. eigenvalues --  -14.24793 -10.23474 -10.21986 -10.19760 -10.12758
 Alpha  occ. eigenvalues --  -10.12566 -10.10013 -10.06469 -10.06161  -1.00417
 Alpha  occ. eigenvalues --   -0.97704  -0.96046  -0.92790  -0.85994  -0.81953
 Alpha  occ. eigenvalues --   -0.69570  -0.67086  -0.65722  -0.58870  -0.56429
 Alpha  occ. eigenvalues --   -0.53651  -0.52020  -0.49298  -0.45912  -0.43937
 Alpha  occ. eigenvalues --   -0.42778  -0.39174  -0.37741  -0.37407  -0.36808
 Alpha  occ. eigenvalues --   -0.35769  -0.34479  -0.33725  -0.33560  -0.33233
 Alpha  occ. eigenvalues --   -0.31821  -0.29720  -0.29147  -0.28848  -0.27771
 Alpha  occ. eigenvalues --   -0.27095  -0.23826  -0.22559  -0.21131  -0.20332
 Alpha  occ. eigenvalues --   -0.19552  -0.19493  -0.18748  -0.16998   0.04382
 Alpha virt. eigenvalues --    0.06136   0.06806   0.07857   0.08134   0.09027
 Alpha virt. eigenvalues --    0.09572   0.10086   0.10361   0.11418   0.12131
 Alpha virt. eigenvalues --    0.12434   0.12914   0.13595   0.14361   0.14569

  Beta  occ. eigenvalues --  -19.04393 -19.04310 -19.01450 -19.00780 -14.27012
  Beta  occ. eigenvalues --  -14.24796 -10.23462 -10.21916 -10.19656 -10.12743
  Beta  occ. eigenvalues --  -10.12530 -10.09989 -10.06429 -10.06122  -1.00389
  Beta  occ. eigenvalues --   -0.97607  -0.95905  -0.92781  -0.85942  -0.81937
  Beta  occ. eigenvalues --   -0.69500  -0.67026  -0.65677  -0.58801  -0.56287
  Beta  occ. eigenvalues --   -0.53573  -0.51933  -0.49253  -0.45861  -0.43880
  Beta  occ. eigenvalues --   -0.42726  -0.39104  -0.37599  -0.37312  -0.36692
  Beta  occ. eigenvalues --   -0.35698  -0.34390  -0.33634  -0.33480  -0.33161
  Beta  occ. eigenvalues --   -0.31690  -0.29468  -0.29097  -0.28800  -0.27691
  Beta  occ. eigenvalues --   -0.27051  -0.23792  -0.22530  -0.21081  -0.20227
  Beta  occ. eigenvalues --   -0.19498  -0.19406  -0.18682  -0.16947
  Beta virt. eigenvalues --    0.06851   0.07062   0.07773   0.08255   0.08804
  Beta virt. eigenvalues --    0.09552   0.10158   0.10508   0.10633   0.11799
  Beta virt. eigenvalues --    0.12520   0.12884   0.13306   0.14005   0.14599

 Mulliken charges and spin densities:
               1          2
     1  C    0.805946  -1.239779
     2  C   -0.120978  -0.010182
     3  O    0.021387  -0.005983
     4  C   -1.518211   0.775787
     5  C    1.016315  -1.276035
     6  C    0.111223  -0.027973
     7  O   -0.307049   0.038532
     8  N   -0.297273  -0.027717
     9  C    0.406085  -0.101689
    10  O   -0.353974   0.025007
    11  N   -0.131509   0.013977
    12  O   -0.068918   0.041038
    13  C    0.237669  -0.291338
    14  C    1.033683  -1.545723
    15  H    0.052617   0.111322
    16  H   -0.369775   0.512408
    17  H   -0.387250   0.556116
    18  H   -0.162569   0.333905
    19  H    0.090769   0.070215
    20  H    0.233180  -0.027363
    21  H   -0.147200   0.440041
    22  H    0.310241   0.033959
    23  H    0.236157   0.107748
    24  H   -0.323188   0.483538
    25  H   -0.591722   0.769417
    26  H   -0.157844   0.326134
    27  H   -0.648019   0.810745
    28  H    0.030208   0.103896
 Sum of Mulliken charges =  -1.00000   1.00000

 Dipole moment (field-independent basis, Debye):
    X=             -4.9723    Y=             -0.8559    Z=             -2.7512  Tot=              5.7468
 Quadrupole moment (field-independent basis, Debye-Ang):
   XX=           -142.8439   YY=           -139.7887   ZZ=           -123.5489
   XY=             -2.7371   XZ=            -10.7514   YZ=             -1.2676

 Summary of Natural Population Analysis:

                                       Natural Population
                Natural  -----------------------------------------------
    Atom  No    Charge         Core      Valence    Rydberg      Total
 -----------------------------------------------------------------------
      C    1   -0.29905      0.99966     2.29451    0.00487     3.29905
      C    2   -0.01333      0.99957     2.00153    0.01223     3.01333
      O    3   -0.30750      0.99985     3.29889    0.00875     4.30750
      C    4    0.38761      0.99957     1.58923    0.02359     2.61239
      C    5   -0.26918      0.99952     2.26011    0.00956     3.26918
      C    6    0.36586      0.99969     1.61161    0.02284     2.63414
      O    7   -0.29525      0.99987     3.28937    0.00601     4.29525
      N    8   -0.33324      0.99964     2.82680    0.00680     3.83324
      C    9    0.42306      0.99971     1.55419    0.02304     2.57694
      O   10   -0.31632      0.99987     3.31124    0.00520     4.31632
      N   11   -0.34212      0.99964     2.83252    0.00997     3.84212
      O   12   -0.30627      0.99986     3.29541    0.01101     4.30627
      C   13   -0.01287      0.99957     2.00032    0.01297     3.01287
      C   14   -0.30108      0.99966     2.29597    0.00545     3.30108
      H   15    0.10321      0.00000     0.39558    0.00121     0.39679
      H   16    0.10024      0.00000     0.39841    0.00135     0.39976
      H   17    0.10323      0.00000     0.39493    0.00185     0.39677
      H   18    0.09074      0.00000     0.40811    0.00115     0.40926
      H   19    0.08349      0.00000     0.41500    0.00151     0.41651
      H   20    0.12352      0.00000     0.37502    0.00146     0.37648
      H   21    0.12484      0.00000     0.37364    0.00153     0.37516
      H   22    0.20396      0.00000     0.29359    0.00245     0.29604
      H   23    0.20214      0.00000     0.29575    0.00211     0.29786
      H   24    0.08317      0.00000     0.41386    0.00297     0.41683
      H   25    0.09568      0.00000     0.40222    0.00210     0.40432
      H   26    0.10011      0.00000     0.39852    0.00137     0.39989
      H   27    0.10630      0.00000     0.39149    0.00221     0.39370
      H   28    0.09906      0.00000     0.39984    0.00110     0.40094
 =======================================================================
   * Total *   -0.00000     13.99568    39.81764    0.18667    54.00000

 Normal termination of Gaussian 16 at Thu Dec 10 11:25:56 2020.
