 Gaussian 16, Revision A.03,

 -----------------------------------------------------------
 # opt freq B3LYP/6-31G(d) empiricaldispersion=gd3bj scf=xqc
 -----------------------------------------------------------

 -------------------------------
 CID_150643124_JID_2103_neutraal
 -------------------------------
 Symbolic Z-matrix:
 Charge =  0 Multiplicity = 1

 SCF Done:  E(RB3LYP) =  -590.450745526     A.U. after   15 cycles
 SCF Done:  E(RB3LYP) =  -590.453817226     A.U. after   13 cycles
 SCF Done:  E(RB3LYP) =  -590.454873387     A.U. after   13 cycles
 SCF Done:  E(RB3LYP) =  -590.455212916     A.U. after   12 cycles
 SCF Done:  E(RB3LYP) =  -590.455057158     A.U. after   12 cycles
 SCF Done:  E(RB3LYP) =  -590.455445750     A.U. after   11 cycles
 SCF Done:  E(RB3LYP) =  -590.455510045     A.U. after   11 cycles
 SCF Done:  E(RB3LYP) =  -590.455511461     A.U. after   10 cycles
 SCF Done:  E(RB3LYP) =  -590.455516314     A.U. after    9 cycles
 SCF Done:  E(RB3LYP) =  -590.455516910     A.U. after    8 cycles
 SCF Done:  E(RB3LYP) =  -590.455517012     A.U. after    8 cycles
 Optimization completed.
    -- Stationary point found.
 Normal termination of Gaussian 16 at Wed Dec  9 16:49:52 2020.

 --------------------------------------------------------------------
 #N Geom=AllCheck Guess=TCheck SCRF=Check GenChk RB3LYP/6-31G(d) Freq
 --------------------------------------------------------------------

 Structure from the checkpoint file:  "JID_2103.chk"
 -------------------------------
 CID_150643124_JID_2103_neutraal
 -------------------------------
 Charge =  0 Multiplicity = 1

 SCF Done:  E(RB3LYP) =  -590.455517012     A.U. after    1 cycles

  Exact polarizability:  99.484  -0.928 120.564  -0.722  -2.392  83.110
 Approx polarizability: 129.107 -12.506 202.521   1.694  -9.541 123.295

                      1                      2                      3
                      A                      A                      A
 Frequencies --     44.0165                50.3144                63.0610
 Red. masses --      2.6700                 6.1869                 2.9783
 Frc consts  --      0.0030                 0.0092                 0.0070
 IR Inten    --      0.0709                 0.1475                 0.3679

                      4                      5                      6
                      A                      A                      A
 Frequencies --    103.4704               116.0074               162.5468
 Red. masses --      3.7170                 2.5630                 2.7829
 Frc consts  --      0.0234                 0.0203                 0.0433
 IR Inten    --      0.2310                 0.8510                 3.9459

                      7                      8                      9
                      A                      A                      A
 Frequencies --    187.5986               225.9438               235.7143
 Red. masses --      2.8532                 2.4979                 2.1090
 Frc consts  --      0.0592                 0.0751                 0.0690
 IR Inten    --      0.9191                 1.5317                 5.6949

                     10                     11                     12
                      A                      A                      A
 Frequencies --    253.8367               277.6514               305.5032
 Red. masses --      1.3253                 3.2399                 3.0560
 Frc consts  --      0.0503                 0.1472                 0.1680
 IR Inten    --      2.0589                 0.4425                 2.2492

                     13                     14                     15
                      A                      A                      A
 Frequencies --    319.7692               369.4055               394.9301
 Red. masses --      2.5174                 2.6991                 3.9584
 Frc consts  --      0.1517                 0.2170                 0.3638
 IR Inten    --      2.3191                 3.7807                 2.8499

                     16                     17                     18
                      A                      A                      A
 Frequencies --    449.8800               471.7654               485.8618
 Red. masses --      2.4087                 1.3220                 3.8236
 Frc consts  --      0.2872                 0.1733                 0.5318
 IR Inten    --      1.1388                90.0907                18.4402

                     19                     20                     21
                      A                      A                      A
 Frequencies --    555.2052               587.8569               612.1708
 Red. masses --      3.2006                11.1583                 2.7359
 Frc consts  --      0.5813                 2.2719                 0.6041
 IR Inten    --      7.3951                15.7600                 5.7591

                     22                     23                     24
                      A                      A                      A
 Frequencies --    651.4408               684.0672               766.4849
 Red. masses --      1.4110                 2.0897                 4.1035
 Frc consts  --      0.3528                 0.5761                 1.4204
 IR Inten    --     75.5834               125.7849                 6.8679

                     25                     26                     27
                      A                      A                      A
 Frequencies --    792.0543               809.6545               864.3625
 Red. masses --      1.2856                 1.5103                 2.5359
 Frc consts  --      0.4752                 0.5833                 1.1163
 IR Inten    --     37.6040                12.6256                 9.1985

                     28                     29                     30
                      A                      A                      A
 Frequencies --    890.4064               911.7492               961.9379
 Red. masses --      3.1992                 1.6558                 2.8909
 Frc consts  --      1.4944                 0.8110                 1.5761
 IR Inten    --     32.8372                 4.9145                84.4569

                     31                     32                     33
                      A                      A                      A
 Frequencies --    994.2530              1031.3514              1070.1505
 Red. masses --      2.0630                 1.7070                 1.8469
 Frc consts  --      1.2015                 1.0698                 1.2462
 IR Inten    --     38.1536                 5.8657                35.4714

                     34                     35                     36
                      A                      A                      A
 Frequencies --   1093.1756              1106.5638              1129.3351
 Red. masses --      1.7640                 2.5249                 2.6422
 Frc consts  --      1.2421                 1.8216                 1.9854
 IR Inten    --     22.9696                21.0595                25.5548

                     37                     38                     39
                      A                      A                      A
 Frequencies --   1140.3086              1185.5630              1207.3267
 Red. masses --      1.7180                 2.2434                 2.2974
 Frc consts  --      1.3162                 1.8578                 1.9731
 IR Inten    --     45.7042                55.6745                11.6301

                     40                     41                     42
                      A                      A                      A
 Frequencies --   1282.4829              1301.2103              1318.7950
 Red. masses --      1.3605                 1.3742                 2.0918
 Frc consts  --      1.3184                 1.3709                 2.1436
 IR Inten    --     39.1283                 6.5324               106.3940

                     43                     44                     45
                      A                      A                      A
 Frequencies --   1326.2540              1337.3942              1374.7958
 Red. masses --      2.1569                 1.2087                 1.5415
 Frc consts  --      2.2353                 1.2738                 1.7167
 IR Inten    --     61.2623                 8.3733                10.0248

                     46                     47                     48
                      A                      A                      A
 Frequencies --   1392.9011              1408.2319              1415.0304
 Red. masses --      1.3876                 1.3910                 1.3775
 Frc consts  --      1.5862                 1.6252                 1.6250
 IR Inten    --     39.2971                 5.1372                 1.8833

                     49                     50                     51
                      A                      A                      A
 Frequencies --   1436.5550              1448.4322              1450.0065
 Red. masses --      1.3985                 1.2635                 1.2581
 Frc consts  --      1.7004                 1.5617                 1.5585
 IR Inten    --     66.9291                 0.0177                 6.6770

                     52                     53                     54
                      A                      A                      A
 Frequencies --   1460.0650              1502.8939              1516.4720
 Red. masses --      1.3479                 1.0875                 1.0705
 Frc consts  --      1.6930                 1.4472                 1.4504
 IR Inten    --     44.3938                 2.0872                 1.8936

                     55                     56                     57
                      A                      A                      A
 Frequencies --   1523.4835              1527.6888              1530.1323
 Red. masses --      1.0562                 1.0434                 1.0537
 Frc consts  --      1.4444                 1.4347                 1.4535
 IR Inten    --      0.8950                 6.3488                13.7417

                     58                     59                     60
                      A                      A                      A
 Frequencies --   1539.3445              1540.2197              2269.0676
 Red. masses --      1.0713                 1.0534                13.9311
 Frc consts  --      1.4957                 1.4724                42.2601
 IR Inten    --      7.5232                 7.0366               562.8182

                     61                     62                     63
                      A                      A                      A
 Frequencies --   3041.2769              3048.6675              3052.3737
 Red. masses --      1.0610                 1.0668                 1.0624
 Frc consts  --      5.7819                 5.8420                 5.8317
 IR Inten    --     25.4089                15.2695                11.5981

                     64                     65                     66
                      A                      A                      A
 Frequencies --   3055.2630              3058.9090              3072.2887
 Red. masses --      1.0409                 1.0396                 1.0950
 Frc consts  --      5.7247                 5.7312                 6.0897
 IR Inten    --     26.0472                23.6863                47.6192

                     67                     68                     69
                      A                      A                      A
 Frequencies --   3085.9810              3097.2479              3101.6321
 Red. masses --      1.1014                 1.0861                 1.0997
 Frc consts  --      6.1797                 6.1385                 6.2330
 IR Inten    --     24.7240                23.2586                16.8602

                     70                     71                     72
                      A                      A                      A
 Frequencies --   3115.1265              3116.2793              3153.7193
 Red. masses --      1.1023                 1.1012                 1.0989
 Frc consts  --      6.3023                 6.3007                 6.4393
 IR Inten    --     33.0551                51.0162                23.9299

                     73                     74                     75
                      A                      A                      A
 Frequencies --   3155.7679              3635.3987              3690.3164
 Red. masses --      1.1000                 1.0644                 1.0649
 Frc consts  --      6.4542                 8.2881                 8.5442
 IR Inten    --     25.4734                63.1675                27.1531

 - Thermochemistry -
 -------------------
 Temperature   298.150 Kelvin.  Pressure   1.00000 Atm.
 Atom     1 has atomic number  6 and mass  12.00000

 Molecular mass:   173.11643 amu.
 Principal axes and moments of inertia in atomic units:
                           1         2         3
     Eigenvalues --  1972.652852140.509343071.22967
           X            0.99694  -0.07736  -0.01140
           Y            0.07766   0.99656   0.02884
           Z            0.00913  -0.02964   0.99952
 This molecule is an asymmetric top.
 Rotational symmetry number  1.
 Warning -- assumption of classical behavior for rotation
           may cause significant error
 Rotational temperatures (Kelvin)      0.04391     0.04046     0.02820
 Rotational constants (GHZ):           0.91488     0.84314     0.58763
 Zero-point vibrational energy     609762.9 (Joules/Mol)
                                  145.73684 (Kcal/Mol)
 Warning -- explicit consideration of  21 degrees of freedom as
           vibrations may cause significant error
 Vibrational temperatures:     63.33    72.39    90.73   148.87   166.91
          (Kelvin)            233.87   269.91   325.08   339.14   365.21
                              399.48   439.55   460.08   531.49   568.22
                              647.28   678.77   699.05   798.82   845.80
                              880.78   937.28   984.22  1102.80  1139.59
                             1164.91  1243.62  1281.10  1311.80  1384.01
                             1430.51  1483.88  1539.71  1572.84  1592.10
                             1624.86  1640.65  1705.76  1737.07  1845.21
                             1872.15  1897.45  1908.18  1924.21  1978.02
                             2004.07  2026.13  2035.91  2066.88  2083.97
                             2086.24  2100.71  2162.33  2181.86  2191.95
                             2198.00  2201.52  2214.77  2216.03  3264.68
                             4375.72  4386.35  4391.68  4395.84  4401.09
                             4420.34  4440.04  4456.25  4462.56  4481.97
                             4483.63  4537.50  4540.45  5230.53  5309.54

 Zero-point correction=                           0.232246 (Hartree/Particle)
 Thermal correction to Energy=                    0.245951
 Thermal correction to Enthalpy=                  0.246895
 Thermal correction to Gibbs Free Energy=         0.191750
 Sum of electronic and zero-point Energies=           -590.223271
 Sum of electronic and thermal Energies=              -590.209566
 Sum of electronic and thermal Enthalpies=            -590.208622
 Sum of electronic and thermal Free Energies=         -590.263767

                     E (Thermal)             CV                S
                      KCal/Mol        Cal/Mol-Kelvin    Cal/Mol-Kelvin
 Total                  154.336             50.293            116.062
 Electronic               0.000              0.000              0.000
 Translational            0.889              2.981             41.354
 Rotational               0.889              2.981             30.940
 Vibrational            152.559             44.331             43.768
 Vibration     1          0.595              1.980              5.070
 Vibration     2          0.595              1.977              4.805
 Vibration     3          0.597              1.972              4.359
 Vibration     4          0.605              1.946              3.388
 Vibration     5          0.608              1.936              3.166
 Vibration     6          0.623              1.888              2.520
 Vibration     7          0.632              1.857              2.251
 Vibration     8          0.650              1.802              1.911
 Vibration     9          0.655              1.786              1.835
 Vibration    10          0.665              1.756              1.704
 Vibration    11          0.679              1.715              1.548
 Vibration    12          0.696              1.663              1.387
 Vibration    13          0.706              1.636              1.311
 Vibration    14          0.742              1.535              1.082
 Vibration    15          0.762              1.481              0.981
 Vibration    16          0.809              1.361              0.796
 Vibration    17          0.829              1.313              0.733
 Vibration    18          0.842              1.281              0.694
 Vibration    19          0.911              1.128              0.533
 Vibration    20          0.945              1.058              0.471
 Vibration    21          0.971              1.006              0.429

 Optimization completed.
    -- Stationary point found.
 Normal termination of Gaussian 16 at Wed Dec  9 16:56:32 2020.

 ----------------------------------------------------------------------
 # B3LYP/6-311++G(d,p) empiricaldispersion=gd3bj scf=xqc pop=npa geom=c
 heck
 ----------------------------------------------------------------------

 ---------------------------------------
 CID_150643124_JID_2103_Energie_neutraal
 ---------------------------------------
 Structure from the checkpoint file:  "JID_2103.chk"
 Charge =  0 Multiplicity = 1

 SCF Done:  E(RB3LYP) =  -590.640459150     A.U. after   14 cycles
 Normal termination of Gaussian 16 at Wed Dec  9 16:59:02 2020.

 ----------------------------------------------------------------------
 # B3LYP/6-311++G(d,p) empiricaldispersion=gd3bj scf=xqc pop=npa geom=c
 heck
 ----------------------------------------------------------------------

 -------------------------------------
 CID_150643124_JID_2103_Energie_kation
 -------------------------------------
 Structure from the checkpoint file:  "JID_2103.chk"
 Charge =  1 Multiplicity = 2

 SCF Done:  E(UB3LYP) =  -590.289655201     A.U. after   31 cycles
 Normal termination of Gaussian 16 at Wed Dec  9 17:06:19 2020.
 Gaussian 16:  ES64L-G16RevA.03 25-Dec-2016

 ----------------------------------------------------------------------
 # B3LYP/6-311++G(d,p) empiricaldispersion=gd3bj scf=xqc pop=npa geom=c
 heck
 ----------------------------------------------------------------------

 ------------------------------------
 CID_150643124_JID_2103_Energie_anion
 ------------------------------------
 Structure from the checkpoint file:  "JID_2103.chk"
 Charge = -1 Multiplicity = 2

                         Standard orientation:
 ---------------------------------------------------------------------
 Center     Atomic      Atomic             Coordinates (Angstroms)
 Number     Number       Type             X           Y           Z
 ---------------------------------------------------------------------
      1          6           0       -3.262956   -0.751955    0.212271
      2          6           0       -2.207565   -0.998215   -0.869780
      3          6           0       -1.119739    0.082990   -0.987632
      4          6           0       -0.150494    0.215121    0.188844
      5          6           0        0.551923   -1.088317    0.631077
      6          6           0        1.294381   -1.907945   -0.433560
      7          6           0        2.574840   -1.298610   -1.013789
      8          8           0        1.377622   -0.764979    1.754181
      9          7           0        0.980687    1.151003   -0.191821
     10          7           0        0.643889    2.333689   -0.305670
     11          7           0        0.431078    3.447119   -0.429210
     12          8           0       -0.838746    0.742891    1.294087
     13          1           0       -2.825193   -0.756577    1.212712
     14          1           0       -4.043323   -1.519995    0.168085
     15          1           0       -3.741384    0.224439    0.073475
     16          1           0       -1.742559   -1.980934   -0.718196
     17          1           0       -2.704572   -1.056427   -1.846690
     18          1           0       -0.519647   -0.102445   -1.884811
     19          1           0       -1.596619    1.062693   -1.122049
     20          1           0       -0.240589   -1.718095    1.046130
     21          1           0        1.543105   -2.864687    0.041257
     22          1           0        0.592803   -2.141353   -1.243816
     23          1           0        3.290656   -1.054452   -0.220569
     24          1           0        3.061303   -2.020905   -1.677896
     25          1           0        2.378251   -0.385314   -1.578876
     26          1           0        2.023342   -0.112755    1.427738
     27          1           0       -0.258494    0.562417    2.059670
 ---------------------------------------------------------------------

 SCF Done:  E(UB3LYP) =  -590.630302814     A.U. after   28 cycles

 The electronic state is 2-A.
 Alpha  occ. eigenvalues --  -19.02676 -19.02488 -14.34003 -14.24450 -14.22855
 Alpha  occ. eigenvalues --  -10.16044 -10.12211 -10.06710 -10.06688 -10.06371
 Alpha  occ. eigenvalues --  -10.05440 -10.04628  -1.01106  -0.95210  -0.91806
 Alpha  occ. eigenvalues --   -0.84431  -0.70367  -0.67127  -0.62979  -0.58222
 Alpha  occ. eigenvalues --   -0.54866  -0.49571  -0.48267  -0.45062  -0.42240
 Alpha  occ. eigenvalues --   -0.38490  -0.37595  -0.36809  -0.35655  -0.33920
 Alpha  occ. eigenvalues --   -0.33494  -0.33060  -0.32016  -0.30514  -0.29820
 Alpha  occ. eigenvalues --   -0.28722  -0.26549  -0.25067  -0.24734  -0.24425
 Alpha  occ. eigenvalues --   -0.24137  -0.23790  -0.22096  -0.21145  -0.18061
 Alpha  occ. eigenvalues --   -0.16960  -0.13780   0.04786
 Alpha virt. eigenvalues --    0.06800   0.07585   0.08322   0.08973   0.09618
 Alpha virt. eigenvalues --    0.10345   0.10780   0.11307   0.12255   0.12702
 Alpha virt. eigenvalues --    0.13083   0.13377   0.14115   0.14368   0.15388

  Beta  occ. eigenvalues --  -19.02648 -19.02481 -14.33740 -14.24128 -14.22919
  Beta  occ. eigenvalues --  -10.15983 -10.12204 -10.06695 -10.06670 -10.06351
  Beta  occ. eigenvalues --  -10.05425 -10.04582  -1.00638  -0.95144  -0.91754
  Beta  occ. eigenvalues --   -0.84208  -0.70303  -0.67079  -0.62890  -0.58168
  Beta  occ. eigenvalues --   -0.54735  -0.49499  -0.48150  -0.44999  -0.41974
  Beta  occ. eigenvalues --   -0.38228  -0.37241  -0.36382  -0.35415  -0.33742
  Beta  occ. eigenvalues --   -0.33386  -0.32988  -0.31476  -0.30424  -0.29788
  Beta  occ. eigenvalues --   -0.28682  -0.26471  -0.24973  -0.24643  -0.24382
  Beta  occ. eigenvalues --   -0.24091  -0.23736  -0.21976  -0.21107  -0.17989
  Beta  occ. eigenvalues --   -0.16585  -0.13712
  Beta virt. eigenvalues --    0.07172   0.07960   0.08838   0.09050   0.09955
  Beta virt. eigenvalues --    0.10081   0.10768   0.11180   0.11616   0.12682
  Beta virt. eigenvalues --    0.12994   0.13359   0.13641   0.14267   0.14433

 Mulliken charges and spin densities:
               1          2
     1  C    0.332565  -0.933153
     2  C   -0.155446  -0.031789
     3  C    0.120405  -0.203437
     4  C    0.061644  -0.783514
     5  C    0.098661  -0.191656
     6  C   -1.089529   0.806358
     7  C    1.459718  -2.084322
     8  O   -0.219896   0.039970
     9  N   -0.259008   0.002317
    10  N    0.443969   0.192388
    11  N   -0.284403   0.197404
    12  O   -0.163154   0.031945
    13  H    0.084237   0.073871
    14  H   -0.214797   0.340335
    15  H    0.116264   0.009090
    16  H    0.001166   0.114004
    17  H   -0.530211   0.699078
    18  H   -0.098574   0.292641
    19  H    0.200007  -0.019161
    20  H    0.173068   0.090652
    21  H   -0.319391   0.484591
    22  H   -0.261773   0.407866
    23  H   -0.038772   0.169738
    24  H   -0.557634   0.707437
    25  H   -0.096645   0.275748
    26  H    0.053889   0.188286
    27  H    0.143641   0.123311
 Sum of Mulliken charges =  -1.00000   1.00000

 Dipole moment (field-independent basis, Debye):
    X=             -1.4014    Y=              1.4614    Z=              3.1791  Tot=              3.7691
 Quadrupole moment (field-independent basis, Debye-Ang):
   XX=           -122.1553   YY=           -123.5479   ZZ=           -106.6223
   XY=              2.3667   XZ=              0.4683   YZ=             -5.6714

 Summary of Natural Population Analysis:

                                       Natural Population
                Natural  -----------------------------------------------
    Atom  No    Charge         Core      Valence    Rydberg      Total
 -----------------------------------------------------------------------
      C    1   -0.28653      0.99966     2.28092    0.00595     3.28653
      C    2   -0.19108      0.99964     2.18283    0.00861     3.19108
      C    3   -0.20483      0.99956     2.19414    0.01113     3.20483
      C    4    0.21737      0.99951     1.76408    0.01905     2.78263
      C    5    0.05380      0.99947     1.93178    0.01495     2.94620
      C    6   -0.20229      0.99961     2.19341    0.00927     3.20229
      C    7   -0.28979      0.99966     2.28436    0.00576     3.28979
      O    8   -0.38060      0.99990     3.37418    0.00652     4.38060
      N    9   -0.23798      0.99968     2.72272    0.01559     3.73798
      N   10    0.14432      0.99970     2.33929    0.01669     3.35568
      N   11   -0.01522      0.99981     2.50313    0.01228     3.51522
      O   12   -0.37690      0.99988     3.37031    0.00670     4.37690
      H   13    0.10317      0.00000     0.39581    0.00102     0.39683
      H   14    0.09477      0.00000     0.40440    0.00083     0.40523
      H   15    0.09510      0.00000     0.40411    0.00079     0.40490
      H   16    0.09370      0.00000     0.40485    0.00145     0.40630
      H   17    0.09855      0.00000     0.39977    0.00168     0.40145
      H   18    0.10980      0.00000     0.38878    0.00142     0.39020
      H   19    0.10328      0.00000     0.39548    0.00124     0.39672
      H   20    0.09316      0.00000     0.40491    0.00194     0.40684
      H   21    0.09940      0.00000     0.39938    0.00122     0.40060
      H   22    0.10187      0.00000     0.39644    0.00169     0.39813
      H   23    0.09401      0.00000     0.40460    0.00139     0.40599
      H   24    0.10042      0.00000     0.39780    0.00178     0.39958
      H   25    0.10691      0.00000     0.39168    0.00141     0.39309
      H   26    0.23776      0.00000     0.25881    0.00343     0.26224
      H   27    0.23785      0.00000     0.25930    0.00286     0.26215
 =======================================================================
   * Total *    0.00000     11.99609    34.84726    0.15665    47.00000

 Normal termination of Gaussian 16 at Wed Dec  9 17:13:09 2020.
