 Gaussian 16, Revision A.03,

 -----------------------------------------------------------
 # opt freq B3LYP/6-31G(d) empiricaldispersion=gd3bj scf=xqc
 -----------------------------------------------------------

 ------------------------------
 CID_64568341_JID_1510_neutraal
 ------------------------------
 Symbolic Z-matrix:
 Charge =  0 Multiplicity = 1

 SCF Done:  E(RB3LYP) =  -447.215157299     A.U. after   13 cycles
 SCF Done:  E(RB3LYP) =  -447.233996478     A.U. after   12 cycles
 SCF Done:  E(RB3LYP) =  -447.235166805     A.U. after   11 cycles
 SCF Done:  E(RB3LYP) =  -447.230741367     A.U. after   14 cycles
 SCF Done:  E(RB3LYP) =  -447.235521775     A.U. after   11 cycles
 SCF Done:  E(RB3LYP) =  -447.234747259     A.U. after   12 cycles
 SCF Done:  E(RB3LYP) =  -447.235652851     A.U. after   10 cycles
 SCF Done:  E(RB3LYP) =  -447.235674420     A.U. after   10 cycles
 SCF Done:  E(RB3LYP) =  -447.235683054     A.U. after    9 cycles
 SCF Done:  E(RB3LYP) =  -447.235685050     A.U. after    8 cycles
 SCF Done:  E(RB3LYP) =  -447.235685151     A.U. after    7 cycles
 SCF Done:  E(RB3LYP) =  -447.235685270     A.U. after    7 cycles
 SCF Done:  E(RB3LYP) =  -447.235685290     A.U. after    7 cycles
 SCF Done:  E(RB3LYP) =  -447.235685290     A.U. after    6 cycles
 Optimization completed.
    -- Stationary point found.
 Normal termination of Gaussian 16 at Tue Dec  8 20:17:37 2020.

 --------------------------------------------------------------------
 #N Geom=AllCheck Guess=TCheck SCRF=Check GenChk RB3LYP/6-31G(d) Freq
 --------------------------------------------------------------------

 Structure from the checkpoint file:  "JID_1510.chk"
 ------------------------------
 CID_64568341_JID_1510_neutraal
 ------------------------------
 Charge =  0 Multiplicity = 1

 SCF Done:  E(RB3LYP) =  -447.235685290     A.U. after    1 cycles

  Exact polarizability: 157.182  -7.138  94.232  -1.240   1.559  87.675
 Approx polarizability: 191.258 -12.850 130.468  -1.794   2.878 132.426

                      1                      2                      3
                      A                      A                      A
 Frequencies --     14.7098                29.6482                44.5737
 Red. masses --      1.0192                 3.3901                 3.0344
 Frc consts  --      0.0001                 0.0018                 0.0036
 IR Inten    --      0.0164                 0.1739                 0.5133

                      4                      5                      6
                      A                      A                      A
 Frequencies --     53.8572                90.4667               122.1679
 Red. masses --      2.5659                 3.2589                 3.0767
 Frc consts  --      0.0044                 0.0157                 0.0271
 IR Inten    --      0.0389                 0.1297                 1.9319

                      7                      8                      9
                      A                      A                      A
 Frequencies --    186.9015               197.4683               214.4308
 Red. masses --      1.8338                 1.2865                 2.0420
 Frc consts  --      0.0377                 0.0296                 0.0553
 IR Inten    --      0.0831                 1.6661                 6.5717

                     10                     11                     12
                      A                      A                      A
 Frequencies --    234.6093               251.0853               289.1782
 Red. masses --      1.1853                 1.5696                 2.7398
 Frc consts  --      0.0384                 0.0583                 0.1350
 IR Inten    --      0.0631                 0.2333                 1.7040

                     13                     14                     15
                      A                      A                      A
 Frequencies --    294.0786               352.3003               371.0959
 Red. masses --      2.9663                 2.1033                 3.9247
 Frc consts  --      0.1511                 0.1538                 0.3184
 IR Inten    --      2.9233                 0.4172                 0.4594

                     16                     17                     18
                      A                      A                      A
 Frequencies --    376.4617               405.3272               415.8255
 Red. masses --      1.9975                 2.6889                 2.5289
 Frc consts  --      0.1668                 0.2603                 0.2576
 IR Inten    --      0.8301                 1.9813                 0.1363

                     19                     20                     21
                      A                      A                      A
 Frequencies --    465.1233               508.0941               551.7886
 Red. masses --      2.9168                 2.7470                 3.3504
 Frc consts  --      0.3718                 0.4178                 0.6010
 IR Inten    --      0.1945                 0.2558                 2.0390

                     22                     23                     24
                      A                      A                      A
 Frequencies --    746.5973               793.8963               815.2226
 Red. masses --      1.4398                 3.1701                 1.9951
 Frc consts  --      0.4728                 1.1772                 0.7812
 IR Inten    --     98.3151                 0.1574                34.6383

                     25                     26                     27
                      A                      A                      A
 Frequencies --    875.3105               897.9547               940.7707
 Red. masses --      2.5729                 1.5449                 1.1687
 Frc consts  --      1.1614                 0.7339                 0.6094
 IR Inten    --     23.2533                 4.3679                 1.0679

                     28                     29                     30
                      A                      A                      A
 Frequencies --    945.1424               979.3196               994.4625
 Red. masses --      1.9687                 1.4660                 1.6364
 Frc consts  --      1.0362                 0.8284                 0.9535
 IR Inten    --      1.7482                 0.1050                 1.9102

                     31                     32                     33
                      A                      A                      A
 Frequencies --   1006.9359              1049.8871              1070.3256
 Red. masses --      1.3907                 1.7377                 1.4127
 Frc consts  --      0.8308                 1.1285                 0.9535
 IR Inten    --     19.3326                 2.7298                 1.3948

                     34                     35                     36
                      A                      A                      A
 Frequencies --   1073.1806              1083.3876              1135.2935
 Red. masses --      1.4112                 2.4549                 3.2200
 Frc consts  --      0.9576                 1.6977                 2.4452
 IR Inten    --      1.1632                 1.3736                46.4932

                     37                     38                     39
                      A                      A                      A
 Frequencies --   1168.5298              1177.5625              1186.7193
 Red. masses --      2.4909                 2.3193                 2.9036
 Frc consts  --      2.0039                 1.8948                 2.4092
 IR Inten    --      3.1799                15.4563                12.5124

                     40                     41                     42
                      A                      A                      A
 Frequencies --   1201.1017              1211.3546              1250.1578
 Red. masses --      1.8173                 1.9396                 1.2199
 Frc consts  --      1.5447                 1.6769                 1.1233
 IR Inten    --      0.7101                 2.8832                 4.2918

                     43                     44                     45
                      A                      A                      A
 Frequencies --   1310.2487              1334.3877              1361.6689
 Red. masses --      1.3367                 1.2377                 1.2768
 Frc consts  --      1.3521                 1.2984                 1.3948
 IR Inten    --      3.4635                 3.3820                 5.3288

                     46                     47                     48
                      A                      A                      A
 Frequencies --   1375.1870              1397.6542              1404.3815
 Red. masses --      1.3968                 1.3355                 1.3235
 Frc consts  --      1.5564                 1.5371                 1.5380
 IR Inten    --      1.6283                 1.1054                39.2322

                     49                     50                     51
                      A                      A                      A
 Frequencies --   1415.1086              1432.0165              1441.6884
 Red. masses --      1.3522                 1.2573                 1.2702
 Frc consts  --      1.5954                 1.5191                 1.5555
 IR Inten    --     24.7237                 3.6985                 8.5402

                     52                     53                     54
                      A                      A                      A
 Frequencies --   1444.9191              1451.0194              1503.7065
 Red. masses --      1.2403                 1.2189                 1.0813
 Frc consts  --      1.5256                 1.5120                 1.4405
 IR Inten    --      5.7873                 2.8818                 1.9407

                     55                     56                     57
                      A                      A                      A
 Frequencies --   1508.6165              1510.1221              1511.9679
 Red. masses --      1.0423                 1.0415                 1.1941
 Frc consts  --      1.3976                 1.3994                 1.6084
 IR Inten    --      6.8676                 6.2749                24.2400

                     58                     59                     60
                      A                      A                      A
 Frequencies --   1517.6855              1525.2865              1527.6010
 Red. masses --      1.0518                 1.0582                 1.0544
 Frc consts  --      1.4275                 1.4505                 1.4497
 IR Inten    --      1.2066                 0.8904                 1.5760

                     61                     62                     63
                      A                      A                      A
 Frequencies --   1534.7784              1536.0907              1543.5417
 Red. masses --      1.0691                 1.0591                 1.0469
 Frc consts  --      1.4838                 1.4724                 1.4695
 IR Inten    --      0.4720                 2.2187                21.7784

                     64                     65                     66
                      A                      A                      A
 Frequencies --   1555.4867              2380.1375              2940.3704
 Red. masses --      1.0467                11.8230                 1.0731
 Frc consts  --      1.4921                39.4623                 5.4663
 IR Inten    --      4.6213                 3.5312                51.5223

                     67                     68                     69
                      A                      A                      A
 Frequencies --   2995.3980              3009.7771              3029.7296
 Red. masses --      1.0804                 1.0833                 1.0843
 Frc consts  --      5.7112                 5.7821                 5.8641
 IR Inten    --      2.9398                26.6700                22.2314

                     70                     71                     72
                      A                      A                      A
 Frequencies --   3034.9033              3038.1730              3040.0079
 Red. masses --      1.0622                 1.0347                 1.0395
 Frc consts  --      5.7644                 5.6273                 5.6599
 IR Inten    --     50.9344                35.1541                22.3635

                     73                     74                     75
                      A                      A                      A
 Frequencies --   3043.9043              3045.8181              3089.9688
 Red. masses --      1.0431                 1.0412                 1.1001
 Frc consts  --      5.6945                 5.6911                 6.1886
 IR Inten    --     45.0589                16.6556                37.8813

                     76                     77                     78
                      A                      A                      A
 Frequencies --   3097.8213              3099.8273              3100.0857
 Red. masses --      1.1016                 1.1013                 1.1007
 Frc consts  --      6.2285                 6.2351                 6.2323
 IR Inten    --     15.0073                13.2144                 0.6608

                     79                     80                     81
                      A                      A                      A
 Frequencies --   3106.8257              3107.6892              3124.5185
 Red. masses --      1.0978                 1.0990                 1.1006
 Frc consts  --      6.2432                 6.2536                 6.3304
 IR Inten    --      1.9652               124.8002                36.3715

                     82                     83                     84
                      A                      A                      A
 Frequencies --   3130.6792              3138.8493              3516.3920
 Red. masses --      1.0988                 1.0971                 1.0740
 Frc consts  --      6.3453                 6.3683                 7.8242
 IR Inten    --     40.2312                29.0503                 0.1969

 - Thermochemistry -
 -------------------
 Temperature   298.150 Kelvin.  Pressure   1.00000 Atm.
 Atom     1 has atomic number  6 and mass  12.00000

 Molecular mass:   153.15175 amu.
 Principal axes and moments of inertia in atomic units:
                           1         2         3
     Eigenvalues --   627.914365138.831475403.80419
           X            0.99999  -0.00328  -0.00332
           Y            0.00335   0.99980   0.01953
           Z            0.00326  -0.01954   0.99980
 This molecule is an asymmetric top.
 Rotational symmetry number  1.
 Warning -- assumption of classical behavior for rotation
           may cause significant error
 Rotational temperatures (Kelvin)      0.13794     0.01685     0.01603
 Rotational constants (GHZ):           2.87418     0.35120     0.33398
 Zero-point vibrational energy     719472.1 (Joules/Mol)
                                  171.95796 (Kcal/Mol)
 Warning -- explicit consideration of  21 degrees of freedom as
           vibrations may cause significant error
 Vibrational temperatures:     21.16    42.66    64.13    77.49   130.16
          (Kelvin)            175.77   268.91   284.11   308.52   337.55
                              361.26   416.06   423.11   506.88   533.92
                              541.64   583.18   598.28   669.21   731.03
                              793.90  1074.19  1142.24  1172.92  1259.38
                             1291.96  1353.56  1359.85  1409.02  1430.81
                             1448.76  1510.55  1539.96  1544.07  1558.75
                             1633.43  1681.25  1694.25  1707.42  1728.12
                             1742.87  1798.70  1885.16  1919.89  1959.14
                             1978.59  2010.91  2020.59  2036.03  2060.35
                             2074.27  2078.92  2087.69  2163.50  2170.56
                             2172.73  2175.38  2183.61  2194.55  2197.88
                             2208.20  2210.09  2220.81  2238.00  3424.49
                             4230.54  4309.71  4330.40  4359.11  4366.55
                             4371.25  4373.89  4379.50  4382.25  4445.78
                             4457.07  4459.96  4460.33  4470.03  4471.27
                             4495.49  4504.35  4516.10  5059.30

 Zero-point correction=                           0.274032 (Hartree/Particle)
 Thermal correction to Energy=                    0.288537
 Thermal correction to Enthalpy=                  0.289481
 Thermal correction to Gibbs Free Energy=         0.230508
 Sum of electronic and zero-point Energies=           -446.961653
 Sum of electronic and thermal Energies=              -446.947148
 Sum of electronic and thermal Enthalpies=            -446.946204
 Sum of electronic and thermal Free Energies=         -447.005177

                     E (Thermal)             CV                S
                      KCal/Mol        Cal/Mol-Kelvin    Cal/Mol-Kelvin
 Total                  181.060             51.209            124.120
 Electronic               0.000              0.000              0.000
 Translational            0.889              2.981             40.989
 Rotational               0.889              2.981             31.234
 Vibrational            179.282             45.248             51.898
 Vibration     1          0.593              1.986              7.244
 Vibration     2          0.593              1.984              5.853
 Vibration     3          0.595              1.980              5.045
 Vibration     4          0.596              1.976              4.670
 Vibration     5          0.602              1.956              3.650
 Vibration     6          0.610              1.931              3.066
 Vibration     7          0.632              1.858              2.258
 Vibration     8          0.637              1.843              2.157
 Vibration     9          0.644              1.819              2.006
 Vibration    10          0.654              1.788              1.843
 Vibration    11          0.663              1.761              1.723
 Vibration    12          0.686              1.694              1.479
 Vibration    13          0.689              1.685              1.450
 Vibration    14          0.729              1.571              1.156
 Vibration    15          0.743              1.532              1.075
 Vibration    16          0.747              1.520              1.053
 Vibration    17          0.770              1.459              0.943
 Vibration    18          0.779              1.436              0.906
 Vibration    19          0.823              1.327              0.751
 Vibration    20          0.863              1.232              0.638
 Vibration    21          0.907              1.136              0.540

                           ! Non-Optimized Parameters !
 Normal termination of Gaussian 16 at Tue Dec  8 20:23:53 2020.

 ----------------------------------------------------------------------
 # B3LYP/6-311++G(d,p) empiricaldispersion=gd3bj scf=xqc pop=npa geom=c
 heck
 ----------------------------------------------------------------------

 --------------------------------------
 CID_64568341_JID_1510_Energie_neutraal
 --------------------------------------
 Structure from the checkpoint file:  "JID_1510.chk"
 Charge =  0 Multiplicity = 1

 SCF Done:  E(RB3LYP) =  -447.367041031     A.U. after   13 cycles
 Normal termination of Gaussian 16 at Tue Dec  8 20:28:04 2020.

 ----------------------------------------------------------------------
 # B3LYP/6-311++G(d,p) empiricaldispersion=gd3bj scf=xqc pop=npa geom=c
 heck
 ----------------------------------------------------------------------

 ------------------------------------
 CID_64568341_JID_1510_Energie_kation
 ------------------------------------
 Structure from the checkpoint file:  "JID_1510.chk"
 Charge =  1 Multiplicity = 2

 SCF Done:  E(UB3LYP) =  -447.066836269     A.U. after   22 cycles
 Normal termination of Gaussian 16 at Tue Dec  8 20:37:07 2020.
 Gaussian 16:  ES64L-G16RevA.03 25-Dec-2016

 ----------------------------------------------------------------------
 # B3LYP/6-311++G(d,p) empiricaldispersion=gd3bj scf=xqc pop=npa geom=c
 heck
 ----------------------------------------------------------------------

 -----------------------------------
 CID_64568341_JID_1510_Energie_anion
 -----------------------------------
 Structure from the checkpoint file:  "JID_1510.chk"
 Charge = -1 Multiplicity = 2

                         Standard orientation:
 ---------------------------------------------------------------------
 Center     Atomic      Atomic             Coordinates (Angstroms)
 Number     Number       Type             X           Y           Z
 ---------------------------------------------------------------------
      1          6           0       -5.541189    0.287175   -0.152009
      2          6           0       -4.113447    0.003208   -0.265003
      3          6           0       -2.934798   -0.248231   -0.356544
      4          6           0       -1.498277   -0.508046   -0.462944
      5          7           0       -0.851259   -0.466231    0.851221
      6          6           0        0.590082   -0.698737    0.814208
      7          6           0        1.464918    0.283461   -0.007340
      8          6           0        1.159208    1.731891    0.395105
      9          6           0        2.968741   -0.060219    0.140142
     10          6           0        3.282093   -1.504707   -0.282652
     11          6           0        3.864827    0.903815   -0.652207
     12          1           0       -5.896058    0.128579    0.873521
     13          1           0       -6.128240   -0.365939   -0.809102
     14          1           0       -5.768578    1.324563   -0.426145
     15          1           0       -1.328672   -1.510911   -0.880976
     16          1           0       -1.066005    0.200025   -1.194555
     17          1           0       -1.064795    0.421000    1.299861
     18          1           0        0.943813   -0.695460    1.854614
     19          1           0        0.732586   -1.717783    0.438252
     20          1           0        1.212508    0.164963   -1.072633
     21          1           0        1.457436    1.919454    1.435411
     22          1           0        1.681526    2.453546   -0.238155
     23          1           0        0.089189    1.950021    0.311366
     24          1           0        3.224325    0.043101    1.206933
     25          1           0        2.956162   -1.686598   -1.315251
     26          1           0        4.360987   -1.691673   -0.239550
     27          1           0        2.796562   -2.246442    0.357717
     28          1           0        3.789670    1.934332   -0.293747
     29          1           0        4.916116    0.604172   -0.573601
     30          1           0        3.597337    0.897002   -1.717050
 ---------------------------------------------------------------------

 SCF Done:  E(UB3LYP) =  -447.351176053     A.U. after   31 cycles

 The electronic state is 2-A.
 Alpha  occ. eigenvalues --  -14.20508 -10.12001 -10.09614 -10.08975 -10.08119
 Alpha  occ. eigenvalues --  -10.07745 -10.06819 -10.06463 -10.06381 -10.06189
 Alpha  occ. eigenvalues --  -10.06086  -0.81710  -0.72465  -0.68478  -0.65467
 Alpha  occ. eigenvalues --   -0.63178  -0.59584  -0.57828  -0.55684  -0.50758
 Alpha  occ. eigenvalues --   -0.46136  -0.42363  -0.38456  -0.36946  -0.36222
 Alpha  occ. eigenvalues --   -0.35398  -0.34589  -0.33440  -0.33122  -0.32977
 Alpha  occ. eigenvalues --   -0.31734  -0.29864  -0.29410  -0.28817  -0.27820
 Alpha  occ. eigenvalues --   -0.27013  -0.24901  -0.23846  -0.22709  -0.22338
 Alpha  occ. eigenvalues --   -0.16509  -0.16091  -0.13214   0.04335
 Alpha virt. eigenvalues --    0.05616   0.07109   0.07492   0.07787   0.09005
 Alpha virt. eigenvalues --    0.09393   0.09814   0.10163   0.10231   0.10653
 Alpha virt. eigenvalues --    0.10829   0.12611   0.12943   0.13085   0.13535

  Beta  occ. eigenvalues --  -14.20501 -10.11988 -10.09605 -10.08917 -10.08108
  Beta  occ. eigenvalues --  -10.07738 -10.06815 -10.06440 -10.06355 -10.06185
  Beta  occ. eigenvalues --  -10.06052  -0.81696  -0.72440  -0.68438  -0.65428
  Beta  occ. eigenvalues --   -0.63136  -0.59530  -0.57772  -0.55636  -0.50705
  Beta  occ. eigenvalues --   -0.46088  -0.42337  -0.38426  -0.36901  -0.36171
  Beta  occ. eigenvalues --   -0.35365  -0.34559  -0.33407  -0.33066  -0.32921
  Beta  occ. eigenvalues --   -0.31702  -0.29837  -0.29378  -0.28785  -0.27791
  Beta  occ. eigenvalues --   -0.26982  -0.24867  -0.23803  -0.22674  -0.22310
  Beta  occ. eigenvalues --   -0.16490  -0.16073  -0.13202
  Beta virt. eigenvalues --    0.06325   0.06741   0.07560   0.07887   0.08270
  Beta virt. eigenvalues --    0.09575   0.09870   0.10212   0.10535   0.10663
  Beta virt. eigenvalues --    0.10993   0.11102   0.12902   0.13199   0.13350

 Mulliken charges and spin densities:
               1          2
     1  C    1.640440  -2.193810
     2  C   -0.520093   0.537751
     3  C    0.405720  -0.351512
     4  C   -0.829340   0.365820
     5  N    0.015372  -0.000119
     6  C   -0.782402   0.100048
     7  C    0.860836  -0.391331
     8  C    0.687267  -1.335043
     9  C   -1.600833   1.871759
    10  C    0.179840  -0.859169
    11  C    0.771401  -1.438221
    12  H   -0.280290   0.437977
    13  H   -0.356727   0.513259
    14  H   -0.406524   0.567034
    15  H    0.029706   0.125569
    16  H    0.025160   0.108983
    17  H    0.208740  -0.005959
    18  H   -0.081279   0.264160
    19  H    0.238725  -0.085682
    20  H    0.114280   0.013245
    21  H   -0.096288   0.260252
    22  H   -0.149666   0.287042
    23  H   -0.020874   0.158668
    24  H    0.061629   0.079870
    25  H   -0.083705   0.229255
    26  H   -0.258701   0.404066
    27  H   -0.079483   0.210886
    28  H   -0.169859   0.308761
    29  H   -0.410314   0.551967
    30  H   -0.112735   0.264473
 Sum of Mulliken charges =  -1.00000   1.00000

 Dipole moment (field-independent basis, Debye):
    X=              2.5535    Y=             -1.5011    Z=              0.7894  Tot=              3.0654
 Quadrupole moment (field-independent basis, Debye-Ang):
   XX=           -199.3343   YY=           -107.7758   ZZ=            -99.8539
   XY=              1.2826   XZ=              1.8475   YZ=              1.8737

 Summary of Natural Population Analysis:

                                       Natural Population
                Natural  -----------------------------------------------
    Atom  No    Charge         Core      Valence    Rydberg      Total
 -----------------------------------------------------------------------
      C    1   -0.32870      0.99964     2.31828    0.01077     3.32870
      C    2    0.04043      0.99923     1.95240    0.00794     2.95957
      C    3   -0.04181      0.99930     2.03053    0.01197     3.04181
      C    4   -0.12182      0.99957     2.11118    0.01108     3.12182
      N    5   -0.33157      0.99975     2.81984    0.01199     3.83157
      C    6   -0.08471      0.99960     2.07432    0.01079     3.08471
      C    7   -0.11864      0.99958     2.10947    0.00958     3.11864
      C    8   -0.29123      0.99965     2.28429    0.00729     3.29123
      C    9   -0.11106      0.99960     2.10125    0.01021     3.11106
      C   10   -0.28572      0.99965     2.27990    0.00617     3.28572
      C   11   -0.28464      0.99965     2.27890    0.00609     3.28464
      H   12    0.11149      0.00000     0.38630    0.00221     0.38851
      H   13    0.11117      0.00000     0.38663    0.00220     0.38883
      H   14    0.11162      0.00000     0.38569    0.00269     0.38838
      H   15    0.10223      0.00000     0.39612    0.00165     0.39777
      H   16    0.09325      0.00000     0.40483    0.00192     0.40675
      H   17    0.17343      0.00000     0.32354    0.00303     0.32657
      H   18    0.09320      0.00000     0.40565    0.00115     0.40680
      H   19    0.09348      0.00000     0.40522    0.00131     0.40652
      H   20    0.09167      0.00000     0.40623    0.00210     0.40833
      H   21    0.09656      0.00000     0.40238    0.00106     0.40344
      H   22    0.10384      0.00000     0.39525    0.00090     0.39616
      H   23    0.09888      0.00000     0.40000    0.00111     0.40112
      H   24    0.09043      0.00000     0.40791    0.00166     0.40957
      H   25    0.09647      0.00000     0.40253    0.00100     0.40353
      H   26    0.10044      0.00000     0.39864    0.00092     0.39956
      H   27    0.09856      0.00000     0.40055    0.00088     0.40144
      H   28    0.10088      0.00000     0.39800    0.00112     0.39912
      H   29    0.10021      0.00000     0.39857    0.00123     0.39979
      H   30    0.09629      0.00000     0.40259    0.00111     0.40371
 =======================================================================
   * Total *    0.00465     10.99522    31.86701    0.13312    42.99535

 Normal termination of Gaussian 16 at Tue Dec  8 20:48:30 2020.
