 Gaussian 16, Revision A.03,

 -----------------------------------------------------------
 # opt freq B3LYP/6-31G(d) empiricaldispersion=gd3bj scf=xqc
 -----------------------------------------------------------

 -------------------------------
 CID_133098361_JID_4072_neutraal
 -------------------------------
 Symbolic Z-matrix:
 Charge =  0 Multiplicity = 1

 SCF Done:  E(RB3LYP) =  -649.516510893     A.U. after   15 cycles
 SCF Done:  E(RB3LYP) =  -649.520984370     A.U. after   12 cycles
 SCF Done:  E(RB3LYP) =  -649.521256302     A.U. after   12 cycles
 SCF Done:  E(RB3LYP) =  -649.521881568     A.U. after   12 cycles
 SCF Done:  E(RB3LYP) =  -649.522561644     A.U. after   12 cycles
 SCF Done:  E(RB3LYP) =  -649.523181527     A.U. after   13 cycles
 SCF Done:  E(RB3LYP) =  -649.523588315     A.U. after   14 cycles
 SCF Done:  E(RB3LYP) =  -649.523797369     A.U. after   12 cycles
 SCF Done:  E(RB3LYP) =  -649.523875862     A.U. after   11 cycles
 SCF Done:  E(RB3LYP) =  -649.523832576     A.U. after   11 cycles
 SCF Done:  E(RB3LYP) =  -649.523987421     A.U. after   10 cycles
 SCF Done:  E(RB3LYP) =  -649.523988095     A.U. after   10 cycles
 SCF Done:  E(RB3LYP) =  -649.523988348     A.U. after    9 cycles
 SCF Done:  E(RB3LYP) =  -649.523988556     A.U. after    9 cycles
 SCF Done:  E(RB3LYP) =  -649.523988575     A.U. after    7 cycles
 Optimization completed.
    -- Stationary point found.
 Normal termination of Gaussian 16 at Thu Dec 10 09:18:39 2020.

 --------------------------------------------------------------------
 #N Geom=AllCheck Guess=TCheck SCRF=Check GenChk RB3LYP/6-31G(d) Freq
 --------------------------------------------------------------------

 Structure from the checkpoint file:  "JID_4072.chk"
 -------------------------------
 CID_133098361_JID_4072_neutraal
 -------------------------------
 Charge =  0 Multiplicity = 1

 SCF Done:  E(RB3LYP) =  -649.523988575     A.U. after    1 cycles

  Exact polarizability: 150.713 -13.889 114.133  14.838  11.628  99.817
 Approx polarizability: 204.831 -24.463 185.111  34.978  33.495 160.807

                      1                      2                      3
                      A                      A                      A
 Frequencies --     21.3475                24.5291                54.5804
 Red. masses --      4.2954                 4.0350                 3.0900
 Frc consts  --      0.0012                 0.0014                 0.0054
 IR Inten    --      1.6937                 1.2405                 0.7988

                      4                      5                      6
                      A                      A                      A
 Frequencies --     93.9696               109.3487               152.2741
 Red. masses --      5.1378                 3.6925                 3.7932
 Frc consts  --      0.0267                 0.0260                 0.0518
 IR Inten    --      1.4619                 1.3564                 4.5681

                      7                      8                      9
                      A                      A                      A
 Frequencies --    187.2746               202.2639               218.4723
 Red. masses --      1.1247                 2.2602                 1.6034
 Frc consts  --      0.0232                 0.0545                 0.0451
 IR Inten    --      0.7745                 0.2757                 3.7036

                     10                     11                     12
                      A                      A                      A
 Frequencies --    256.6861               305.9168               320.7017
 Red. masses --      2.8049                 2.7567                 2.3514
 Frc consts  --      0.1089                 0.1520                 0.1425
 IR Inten    --      0.3435                 1.3954                10.2354

                     13                     14                     15
                      A                      A                      A
 Frequencies --    353.8454               384.4964               394.8464
 Red. masses --      3.4894                 1.8854                 1.4851
 Frc consts  --      0.2574                 0.1642                 0.1364
 IR Inten    --      2.4812                11.1241                59.9043

                     16                     17                     18
                      A                      A                      A
 Frequencies --    451.2078               455.7346               475.4877
 Red. masses --      3.5439                 3.1161                 2.9546
 Frc consts  --      0.4251                 0.3813                 0.3936
 IR Inten    --      7.0322                 6.6644                 2.3048

                     19                     20                     21
                      A                      A                      A
 Frequencies --    499.7337               564.7653               572.1219
 Red. masses --      5.3636                 2.4015                 4.1827
 Frc consts  --      0.7892                 0.4513                 0.8067
 IR Inten    --      9.3092                76.3864                10.4890

                     22                     23                     24
                      A                      A                      A
 Frequencies --    631.0312               648.5913               724.2661
 Red. masses --      1.6736                 3.8500                 5.4415
 Frc consts  --      0.3927                 0.9542                 1.6818
 IR Inten    --    179.1251                27.4966                16.6828

                     25                     26                     27
                      A                      A                      A
 Frequencies --    773.7311               780.4740               807.0674
 Red. masses --      6.3371                 2.9202                 1.7275
 Frc consts  --      2.2352                 1.0480                 0.6630
 IR Inten    --     31.4600                 1.0470                 5.0484

                     28                     29                     30
                      A                      A                      A
 Frequencies --    840.8666               860.3717               925.0978
 Red. masses --      3.5889                 2.2384                 1.7764
 Frc consts  --      1.4951                 0.9763                 0.8957
 IR Inten    --     13.0942                 4.2090                17.3992

                     31                     32                     33
                      A                      A                      A
 Frequencies --    947.6690               953.1706               972.2249
 Red. masses --      2.1980                 1.3550                 2.1151
 Frc consts  --      1.1630                 0.7253                 1.1779
 IR Inten    --      1.3386                 0.6292                 3.1320

                     34                     35                     36
                      A                      A                      A
 Frequencies --    996.7894              1031.1995              1061.4389
 Red. masses --      3.8981                 1.5942                 3.6587
 Frc consts  --      2.2819                 0.9988                 2.4287
 IR Inten    --      2.5211                12.4075                40.5649

                     37                     38                     39
                      A                      A                      A
 Frequencies --   1077.5857              1093.1864              1133.4213
 Red. masses --      1.4821                 1.7133                 1.9675
 Frc consts  --      1.0140                 1.2063                 1.4892
 IR Inten    --      2.4276                18.1145                33.0327

                     40                     41                     42
                      A                      A                      A
 Frequencies --   1168.8157              1190.8368              1210.7013
 Red. masses --      1.4695                 1.8428                 1.7183
 Frc consts  --      1.1828                 1.5397                 1.4840
 IR Inten    --    144.4197                 4.0226                 8.5488

                     43                     44                     45
                      A                      A                      A
 Frequencies --   1262.5537              1297.0900              1325.9038
 Red. masses --      3.0024                 1.9866                 1.8062
 Frc consts  --      2.8198                 1.9693                 1.8709
 IR Inten    --     16.9304               210.8832                57.5590

                     46                     47                     48
                      A                      A                      A
 Frequencies --   1342.2157              1344.4545              1355.1447
 Red. masses --      1.2093                 2.1562                 1.9004
 Frc consts  --      1.2836                 2.2963                 2.0562
 IR Inten    --     22.3828                 8.7318                38.6004

                     49                     50                     51
                      A                      A                      A
 Frequencies --   1369.8140              1419.7995              1442.9912
 Red. masses --      3.2047                 1.3162                 1.2727
 Frc consts  --      3.5429                 1.5633                 1.5614
 IR Inten    --     23.6469                10.6948                 2.5508

                     52                     53                     54
                      A                      A                      A
 Frequencies --   1444.2428              1474.3549              1501.0217
 Red. masses --      1.3303                 3.4254                 1.6815
 Frc consts  --      1.6349                 4.3869                 2.2321
 IR Inten    --      6.5181                58.5114               109.6615

                     55                     56                     57
                      A                      A                      A
 Frequencies --   1502.0654              1513.0619              1516.0913
 Red. masses --      1.2197                 1.0463                 1.0495
 Frc consts  --      1.6214                 1.4113                 1.4213
 IR Inten    --     23.5965                 8.0580                 8.6354

                     58                     59                     60
                      A                      A                      A
 Frequencies --   1520.0593              1537.0116              1541.8843
 Red. masses --      1.0830                 1.0591                 1.3865
 Frc consts  --      1.4743                 1.4742                 1.9421
 IR Inten    --      5.7655                 9.8040                61.7165

                     61                     62                     63
                      A                      A                      A
 Frequencies --   1630.3160              1660.5409              1682.9107
 Red. masses --      6.4142                 1.7835                 2.2714
 Frc consts  --     10.0447                 2.8974                 3.7903
 IR Inten    --     26.2564                16.6992               182.6660

                     64                     65                     66
                      A                      A                      A
 Frequencies --   1812.6606              3021.5912              3062.6037
 Red. masses --     10.6964                 1.0455                 1.0362
 Frc consts  --     20.7073                 5.6242                 5.7261
 IR Inten    --    185.4977                38.6696                13.8398

                     67                     68                     69
                      A                      A                      A
 Frequencies --   3075.0017              3075.8557              3095.8468
 Red. masses --      1.0932                 1.0602                 1.0589
 Frc consts  --      6.0904                 5.9095                 5.9793
 IR Inten    --     21.3579                17.1378                31.5480

                     70                     71                     72
                      A                      A                      A
 Frequencies --   3130.1731              3131.2115              3132.4816
 Red. masses --      1.1015                 1.0989                 1.1046
 Frc consts  --      6.3585                 6.3480                 6.3860
 IR Inten    --     27.1387                12.0552                 6.4933

                     73                     74                     75
                      A                      A                      A
 Frequencies --   3140.0808              3160.1776              3160.5128
 Red. masses --      1.1043                 1.1035                 1.0947
 Frc consts  --      6.4155                 6.4929                 6.4425
 IR Inten    --      7.3412                11.0987                47.8639

                     76                     77                     78
                      A                      A                      A
 Frequencies --   3190.1551              3560.4501              3670.2773
 Red. masses --      1.0909                 1.0469                 1.0995
 Frc consts  --      6.5412                 7.8193                 8.7266
 IR Inten    --      4.2460                25.4057                18.2474

 - Thermochemistry -
 -------------------
 Temperature   298.150 Kelvin.  Pressure   1.00000 Atm.
 Atom     1 has atomic number  6 and mass  12.00000

 Molecular mass:   194.10553 amu.
 Principal axes and moments of inertia in atomic units:
                           1         2         3
     Eigenvalues --  1502.907384907.844965055.71843
           X            0.99982  -0.00883  -0.01661
           Y            0.00735   0.99620  -0.08681
           Z            0.01732   0.08667   0.99609
 This molecule is an asymmetric top.
 Rotational symmetry number  1.
 Warning -- assumption of classical behavior for rotation
           may cause significant error
 Rotational temperatures (Kelvin)      0.05763     0.01765     0.01713
 Rotational constants (GHZ):           1.20083     0.36773     0.35697
 Zero-point vibrational energy     616260.7 (Joules/Mol)
                                  147.28985 (Kcal/Mol)
 Warning -- explicit consideration of  21 degrees of freedom as
           vibrations may cause significant error
 Vibrational temperatures:     30.71    35.29    78.53   135.20   157.33
          (Kelvin)            219.09   269.45   291.01   314.33   369.31
                              440.15   461.42   509.10   553.20   568.10
                              649.19   655.70   684.12   719.01   812.57
                              823.16   907.91   933.18  1042.06  1113.23
                             1122.93  1161.19  1209.82  1237.88  1331.01
                             1363.48  1371.40  1398.81  1434.16  1483.67
                             1527.17  1550.41  1572.85  1630.74  1681.67
                             1713.35  1741.93  1816.53  1866.22  1907.68
                             1931.15  1934.37  1949.75  1970.86  2042.77
                             2076.14  2077.94  2121.27  2159.64  2161.14
                             2176.96  2181.32  2187.03  2211.42  2218.43
                             2345.66  2389.15  2421.33  2608.01  4347.40
                             4406.40  4424.24  4425.47  4454.23  4503.62
                             4505.11  4506.94  4517.88  4546.79  4547.27
                             4589.92  5122.69  5280.71

 Zero-point correction=                           0.234721 (Hartree/Particle)
 Thermal correction to Energy=                    0.248865
 Thermal correction to Enthalpy=                  0.249809
 Thermal correction to Gibbs Free Energy=         0.191940
 Sum of electronic and zero-point Energies=           -649.289267
 Sum of electronic and thermal Energies=              -649.275124
 Sum of electronic and thermal Enthalpies=            -649.274180
 Sum of electronic and thermal Free Energies=         -649.332048

                     E (Thermal)             CV                S
                      KCal/Mol        Cal/Mol-Kelvin    Cal/Mol-Kelvin
 Total                  156.165             52.327            121.795
 Electronic               0.000              0.000              0.000
 Translational            0.889              2.981             41.695
 Rotational               0.889              2.981             31.989
 Vibrational            154.388             46.365             48.111
 Vibration     1          0.593              1.985              6.505
 Vibration     2          0.593              1.985              6.229
 Vibration     3          0.596              1.976              4.644
 Vibration     4          0.603              1.953              3.576
 Vibration     5          0.606              1.942              3.280
 Vibration     6          0.619              1.900              2.644
 Vibration     7          0.632              1.857              2.255
 Vibration     8          0.639              1.837              2.112
 Vibration     9          0.646              1.813              1.972
 Vibration    10          0.666              1.751              1.684
 Vibration    11          0.696              1.662              1.384
 Vibration    12          0.706              1.634              1.307
 Vibration    13          0.730              1.567              1.149
 Vibration    14          0.753              1.503              1.021
 Vibration    15          0.762              1.481              0.982
 Vibration    16          0.810              1.358              0.792
 Vibration    17          0.814              1.348              0.779
 Vibration    18          0.832              1.304              0.722
 Vibration    19          0.855              1.251              0.659
 Vibration    20          0.921              1.107              0.514
 Vibration    21          0.928              1.092              0.500

 Optimization completed.
    -- Stationary point found.
 Normal termination of Gaussian 16 at Thu Dec 10 09:25:45 2020.

 ----------------------------------------------------------------------
 # B3LYP/6-311++G(d,p) empiricaldispersion=gd3bj scf=xqc pop=npa geom=c
 heck
 ----------------------------------------------------------------------

 ---------------------------------------
 CID_133098361_JID_4072_Energie_neutraal
 ---------------------------------------
 Structure from the checkpoint file:  "JID_4072.chk"
 Charge =  0 Multiplicity = 1

 SCF Done:  E(RB3LYP) =  -649.712309421     A.U. after   15 cycles
 Normal termination of Gaussian 16 at Thu Dec 10 09:28:29 2020.

 ----------------------------------------------------------------------
 # B3LYP/6-311++G(d,p) empiricaldispersion=gd3bj scf=xqc pop=npa geom=c
 heck
 ----------------------------------------------------------------------

 -------------------------------------
 CID_133098361_JID_4072_Energie_kation
 -------------------------------------
 Structure from the checkpoint file:  "JID_4072.chk"
 Charge =  1 Multiplicity = 2

 SCF Done:  E(UB3LYP) =  -649.423891963     A.U. after   21 cycles
 Normal termination of Gaussian 16 at Thu Dec 10 09:33:58 2020.
 Gaussian 16:  ES64L-G16RevA.03 25-Dec-2016

 ----------------------------------------------------------------------
 # B3LYP/6-311++G(d,p) empiricaldispersion=gd3bj scf=xqc pop=npa geom=c
 heck
 ----------------------------------------------------------------------

 ------------------------------------
 CID_133098361_JID_4072_Energie_anion
 ------------------------------------
 Structure from the checkpoint file:  "JID_4072.chk"
 Charge = -1 Multiplicity = 2

                         Standard orientation:
 ---------------------------------------------------------------------
 Center     Atomic      Atomic             Coordinates (Angstroms)
 Number     Number       Type             X           Y           Z
 ---------------------------------------------------------------------
      1          6           0        2.870584    1.427947   -1.656416
      2          6           0        3.636892    0.351353   -0.905046
      3          8           0        2.731531   -0.641536   -0.366236
      4          6           0        2.126452   -0.325712    0.796519
      5          8           0        2.350822    0.682908    1.433974
      6          6           0        1.074313   -1.354243    1.164177
      7          6           0       -0.264553   -0.927261    0.597681
      8          6           0       -0.940250   -1.698005   -0.342992
      9          7           0       -2.120136   -1.365263   -0.878566
     10          6           0       -2.677481   -0.209154   -0.502332
     11          6           0       -2.082235    0.671874    0.435971
     12          6           0       -0.866487    0.282099    0.976684
     13          6           0       -2.747650    1.971421    0.799153
     14          7           0       -3.868321    0.129192   -1.128841
     15          1           0        2.252107    0.984213   -2.442925
     16          1           0        3.570986    2.131704   -2.120056
     17          1           0        2.225156    1.984211   -0.971394
     18          1           0        4.294887   -0.214802   -1.567993
     19          1           0        4.221787    0.776569   -0.086017
     20          1           0        1.354211   -2.334091    0.768834
     21          1           0        1.037437   -1.409432    2.256989
     22          1           0       -0.514886   -2.642011   -0.682189
     23          1           0       -0.361497    0.929918    1.689240
     24          1           0       -2.950250    2.576381   -0.093922
     25          1           0       -3.711213    1.812360    1.305489
     26          1           0       -2.118658    2.559160    1.473690
     27          1           0       -4.293292   -0.654401   -1.609356
     28          1           0       -4.523915    0.679828   -0.590846
 ---------------------------------------------------------------------

 SCF Done:  E(UB3LYP) =  -649.698928026     A.U. after   33 cycles
 SCF Done:  E(UB3LYP) =  -649.698928026     a.u. after    1 cycles

 The electronic state is 2-A.
 Alpha  occ. eigenvalues --  -19.08060 -19.02504 -14.21715 -14.20203 -10.21561
 Alpha  occ. eigenvalues --  -10.14076 -10.13917 -10.10532 -10.10115 -10.08689
 Alpha  occ. eigenvalues --  -10.08587 -10.08310 -10.07624 -10.07051  -1.02055
 Alpha  occ. eigenvalues --   -0.93445  -0.86478  -0.79047  -0.72892  -0.70152
 Alpha  occ. eigenvalues --   -0.67799  -0.62357  -0.59897  -0.56439  -0.52949
 Alpha  occ. eigenvalues --   -0.50247  -0.46837  -0.43794  -0.42747  -0.41605
 Alpha  occ. eigenvalues --   -0.40084  -0.38888  -0.36671  -0.35445  -0.34805
 Alpha  occ. eigenvalues --   -0.33613  -0.32815  -0.31917  -0.31405  -0.30732
 Alpha  occ. eigenvalues --   -0.29582  -0.29322  -0.28973  -0.28473  -0.26176
 Alpha  occ. eigenvalues --   -0.25685  -0.22214  -0.21930  -0.19511  -0.17756
 Alpha  occ. eigenvalues --   -0.16487  -0.11822   0.04307
 Alpha virt. eigenvalues --    0.05524   0.06649   0.06960   0.07869   0.08211
 Alpha virt. eigenvalues --    0.08569   0.08839   0.10017   0.10143   0.10306
 Alpha virt. eigenvalues --    0.10771   0.11419   0.12150   0.12528   0.12983

  Beta  occ. eigenvalues --  -19.08054 -19.02501 -14.21663 -14.20171 -10.21560
  Beta  occ. eigenvalues --  -10.14063 -10.13894 -10.10527 -10.10108 -10.08689
  Beta  occ. eigenvalues --  -10.08584 -10.08276 -10.07602 -10.07001  -1.02047
  Beta  occ. eigenvalues --   -0.93438  -0.86430  -0.78984  -0.72855  -0.70116
  Beta  occ. eigenvalues --   -0.67762  -0.62312  -0.59827  -0.56392  -0.52879
  Beta  occ. eigenvalues --   -0.50197  -0.46803  -0.43755  -0.42683  -0.41579
  Beta  occ. eigenvalues --   -0.40056  -0.38861  -0.36627  -0.35408  -0.34780
  Beta  occ. eigenvalues --   -0.33545  -0.32768  -0.31887  -0.31377  -0.30696
  Beta  occ. eigenvalues --   -0.29542  -0.29262  -0.28933  -0.28434  -0.26144
  Beta  occ. eigenvalues --   -0.25661  -0.22178  -0.21879  -0.19489  -0.17627
  Beta  occ. eigenvalues --   -0.16427  -0.11751
  Beta virt. eigenvalues --    0.06399   0.06702   0.07080   0.07335   0.08358
  Beta virt. eigenvalues --    0.08440   0.08843   0.09374   0.10157   0.10550
  Beta virt. eigenvalues --    0.10768   0.10970   0.11752   0.12312   0.12940

 Mulliken charges and spin densities:
               1          2
     1  C    0.213059  -0.632189
     2  C    0.176649  -0.311970
     3  O   -0.047187   0.044318
     4  C   -0.058983   0.077903
     5  O   -0.251314   0.015679
     6  C    0.198125  -0.998282
     7  C    0.537777   0.057859
     8  C   -0.062356  -0.217363
     9  N   -0.075678  -0.014090
    10  C   -1.731842   0.760807
    11  C   -1.050972   1.679222
    12  C    0.417147  -0.360498
    13  C    2.758603  -3.414980
    14  N   -0.282489   0.015600
    15  H    0.082655   0.068469
    16  H   -0.266159   0.405576
    17  H    0.054119   0.119251
    18  H   -0.547820   0.722931
    19  H    0.102820   0.061053
    20  H    0.150208   0.025253
    21  H    0.016835   0.154332
    22  H    0.024378   0.154103
    23  H    0.045213   0.166363
    24  H   -0.227436   0.407302
    25  H   -0.591213   0.768261
    26  H   -0.101311   0.232700
    27  H   -0.092147   0.360492
    28  H   -0.390679   0.651899
 Sum of Mulliken charges =  -1.00000   1.00000

 Dipole moment (field-independent basis, Debye):
    X=              5.1992    Y=             -3.2832    Z=              1.7451  Tot=              6.3919
 Quadrupole moment (field-independent basis, Debye-Ang):
   XX=           -186.4348   YY=           -117.2009   ZZ=           -119.7167
   XY=              6.3713   XZ=              9.0392   YZ=             -4.3501

 Summary of Natural Population Analysis:

                                       Natural Population
                Natural  -----------------------------------------------
    Atom  No    Charge         Core      Valence    Rydberg      Total
 -----------------------------------------------------------------------
      C    1   -0.30031      0.99966     2.29526    0.00538     3.30031
      C    2   -0.01781      0.99958     2.00634    0.01190     3.01781
      O    3   -0.28080      0.99986     3.27139    0.00956     4.28080
      C    4    0.41413      0.99969     1.56105    0.02513     2.58587
      O    5   -0.31212      0.99987     3.30655    0.00570     4.31212
      C    6   -0.23571      0.99955     2.22757    0.00858     3.23571
      C    7   -0.05677      0.99949     2.04886    0.00842     3.05677
      C    8    0.03372      0.99952     1.95356    0.01319     2.96628
      N    9   -0.25451      0.99967     2.74378    0.01107     3.75451
      C   10    0.20107      0.99949     1.78321    0.01623     2.79893
      C   11   -0.04444      0.99948     2.03495    0.01001     3.04444
      C   12   -0.07256      0.99948     2.06325    0.00983     3.07256
      C   13   -0.29705      0.99964     2.29096    0.00644     3.29705
      N   14   -0.39453      0.99971     2.88450    0.01032     3.89453
      H   15    0.10275      0.00000     0.39632    0.00093     0.39725
      H   16    0.10306      0.00000     0.39575    0.00119     0.39694
      H   17    0.10618      0.00000     0.39272    0.00110     0.39382
      H   18    0.09232      0.00000     0.40576    0.00192     0.40768
      H   19    0.09371      0.00000     0.40510    0.00119     0.40629
      H   20    0.11144      0.00000     0.38716    0.00140     0.38856
      H   21    0.11103      0.00000     0.38781    0.00116     0.38897
      H   22    0.08748      0.00000     0.41119    0.00133     0.41252
      H   23    0.10552      0.00000     0.39293    0.00155     0.39448
      H   24    0.10736      0.00000     0.39127    0.00136     0.39264
      H   25    0.10816      0.00000     0.38819    0.00365     0.39184
      H   26    0.10387      0.00000     0.39512    0.00101     0.39613
      H   27    0.19081      0.00000     0.30624    0.00295     0.30919
      H   28    0.19399      0.00000     0.29875    0.00727     0.30601
 =======================================================================
   * Total *    0.00000     13.99469    37.82554    0.17977    52.00000

 Normal termination of Gaussian 16 at Thu Dec 10 09:42:22 2020.
