 Gaussian 16, Revision A.03,

 -----------------------------------------------------------
 # opt freq B3LYP/6-31G(d) empiricaldispersion=gd3bj scf=xqc
 -----------------------------------------------------------

 -------------------------------
 CID_144024772_JID_5804_neutraal
 -------------------------------
 Symbolic Z-matrix:
 Charge =  0 Multiplicity = 1

 SCF Done:  E(RB3LYP) =  -635.440720924     A.U. after   14 cycles
 SCF Done:  E(RB3LYP) =  -635.404891675     A.U. after   14 cycles
 SCF Done:  E(RB3LYP) =  -635.444797706     A.U. after   12 cycles
 SCF Done:  E(RB3LYP) =  -635.445726732     A.U. after   12 cycles
 SCF Done:  E(RB3LYP) =  -635.445212323     A.U. after   13 cycles
 SCF Done:  E(RB3LYP) =  -635.446063022     A.U. after   11 cycles
 SCF Done:  E(RB3LYP) =  -635.446150186     A.U. after   11 cycles
 SCF Done:  E(RB3LYP) =  -635.446205197     A.U. after    9 cycles
 SCF Done:  E(RB3LYP) =  -635.446237349     A.U. after   10 cycles
 SCF Done:  E(RB3LYP) =  -635.446272904     A.U. after   10 cycles
 SCF Done:  E(RB3LYP) =  -635.448458361     A.U. after    8 cycles
 SCF Done:  E(RB3LYP) =  -635.448458712     A.U. after    7 cycles
 SCF Done:  E(RB3LYP) =  -635.448458844     A.U. after    7 cycles
 SCF Done:  E(RB3LYP) =  -635.448458911     A.U. after    7 cycles
 SCF Done:  E(RB3LYP) =  -635.448459015     A.U. after    7 cycles
 SCF Done:  E(RB3LYP) =  -635.448459065     A.U. after    7 cycles
 Optimization completed.
    -- Stationary point found.
 Normal termination of Gaussian 16 at Thu Dec 10 17:46:12 2020.

 --------------------------------------------------------------------
 #N Geom=AllCheck Guess=TCheck SCRF=Check GenChk RB3LYP/6-31G(d) Freq
 --------------------------------------------------------------------

 Structure from the checkpoint file:  "JID_5804.chk"
 -------------------------------
 CID_144024772_JID_5804_neutraal
 -------------------------------
 Charge =  0 Multiplicity = 1

 SCF Done:  E(RB3LYP) =  -635.448459064     A.U. after    1 cycles

  Exact polarizability: 166.520   9.952 125.096  -1.470   2.702 134.385
 Approx polarizability: 212.867  19.376 175.967  -1.297  10.851 215.849

                      1                      2                      3
                      A                      A                      A
 Frequencies --     28.1309                45.3995                55.6676
 Red. masses --      3.4155                 3.3414                 2.6639
 Frc consts  --      0.0016                 0.0041                 0.0049
 IR Inten    --      0.2904                 2.0521                 1.4423

                      4                      5                      6
                      A                      A                      A
 Frequencies --     59.7199                72.9689                87.7492
 Red. masses --      3.2246                 2.9413                 2.4815
 Frc consts  --      0.0068                 0.0092                 0.0113
 IR Inten    --      0.5620                 0.4101                 0.6088

                      7                      8                      9
                      A                      A                      A
 Frequencies --     90.8503               108.8359               120.4750
 Red. masses --      1.9924                 2.3648                 2.0107
 Frc consts  --      0.0097                 0.0165                 0.0172
 IR Inten    --      0.2849                 1.4697                 0.6364

                     10                     11                     12
                      A                      A                      A
 Frequencies --    139.9176               158.6810               171.2581
 Red. masses --      1.2132                 2.6448                 1.1256
 Frc consts  --      0.0140                 0.0392                 0.0195
 IR Inten    --      0.0918                 0.2428                 0.0112

                     13                     14                     15
                      A                      A                      A
 Frequencies --    175.9424               189.0728               237.3998
 Red. masses --      1.1100                 2.7192                 3.7468
 Frc consts  --      0.0202                 0.0573                 0.1244
 IR Inten    --      0.4978                 3.3382                 3.2169

                     16                     17                     18
                      A                      A                      A
 Frequencies --    281.0787               288.5800               321.2333
 Red. masses --      2.5619                 3.5279                 2.2002
 Frc consts  --      0.1193                 0.1731                 0.1338
 IR Inten    --      0.9904                 1.1368                 0.3761

                     19                     20                     21
                      A                      A                      A
 Frequencies --    346.4552               355.0323               390.8581
 Red. masses --      1.0247                 4.7729                 1.9891
 Frc consts  --      0.0725                 0.3545                 0.1790
 IR Inten    --      0.1005                 0.5928                 6.0540

                     22                     23                     24
                      A                      A                      A
 Frequencies --    472.5040               604.0121               621.8566
 Red. masses --      2.6457                 3.6459                 4.1370
 Frc consts  --      0.3480                 0.7837                 0.9426
 IR Inten    --      0.9636                 3.2852                 1.4496

                     25                     26                     27
                      A                      A                      A
 Frequencies --    648.4754               650.6747               719.4462
 Red. masses --      2.8604                 3.6974                 4.4447
 Frc consts  --      0.7087                 0.9223                 1.3555
 IR Inten    --      0.8105                 2.9946                 3.2449

                     28                     29                     30
                      A                      A                      A
 Frequencies --    733.2969               779.5661               803.1145
 Red. masses --      3.8394                 1.5316                 3.9211
 Frc consts  --      1.2164                 0.5484                 1.4901
 IR Inten    --      3.9640                 0.3199                14.6095

                     31                     32                     33
                      A                      A                      A
 Frequencies --    819.9038               837.4744               846.2607
 Red. masses --      1.2879                 1.0563                 1.0567
 Frc consts  --      0.5101                 0.4365                 0.4459
 IR Inten    --     14.4859                 5.9315                 8.6984

                     34                     35                     36
                      A                      A                      A
 Frequencies --    875.7167               897.8273               912.6481
 Red. masses --      1.5676                 3.4547                 2.3166
 Frc consts  --      0.7083                 1.6408                 1.1369
 IR Inten    --      2.2700                16.3642                 7.4131

                     37                     38                     39
                      A                      A                      A
 Frequencies --    964.1914               985.8674               990.4233
 Red. masses --      2.1743                 2.0133                 2.2372
 Frc consts  --      1.1909                 1.1529                 1.2930
 IR Inten    --     15.2939                 3.4751                 2.5045

                     40                     41                     42
                      A                      A                      A
 Frequencies --   1010.8808              1012.7579              1024.5602
 Red. masses --      1.7682                 3.2679                 1.4703
 Frc consts  --      1.0646                 1.9748                 0.9094
 IR Inten    --      1.5263                 0.3281                10.9809

                     43                     44                     45
                      A                      A                      A
 Frequencies --   1060.9068              1079.5972              1136.6520
 Red. masses --      2.0976                 1.4383                 1.6605
 Frc consts  --      1.3910                 0.9877                 1.2640
 IR Inten    --      2.1112                 1.8454                 1.5986

                     46                     47                     48
                      A                      A                      A
 Frequencies --   1151.2359              1161.7166              1162.4378
 Red. masses --      2.2154                 1.7505                 1.9147
 Frc consts  --      1.7299                 1.3919                 1.5244
 IR Inten    --     17.0022                23.8647                20.0527

                     49                     50                     51
                      A                      A                      A
 Frequencies --   1179.9169              1199.2752              1225.9782
 Red. masses --      2.1551                 2.0778                 1.3971
 Frc consts  --      1.7678                 1.7607                 1.2372
 IR Inten    --     11.5290                 1.4506                 4.2065

                     52                     53                     54
                      A                      A                      A
 Frequencies --   1237.5720              1239.2916              1241.6761
 Red. masses --      1.3880                 1.4181                 1.4525
 Frc consts  --      1.2525                 1.2833                 1.3194
 IR Inten    --      7.0129                 2.6955                 0.6414

                     55                     56                     57
                      A                      A                      A
 Frequencies --   1250.0946              1271.8400              1285.7237
 Red. masses --      3.0167                 1.3730                 1.3693
 Frc consts  --      2.7776                 1.3086                 1.3337
 IR Inten    --      2.8161                 1.3130                 3.4511

                     58                     59                     60
                      A                      A                      A
 Frequencies --   1305.0052              1315.2674              1335.8186
 Red. masses --      1.6048                 1.9707                 1.3338
 Frc consts  --      1.6103                 2.0086                 1.4023
 IR Inten    --     12.0400                11.3446                 2.6113

                     61                     62                     63
                      A                      A                      A
 Frequencies --   1341.6017              1369.7303              1400.9365
 Red. masses --      1.2539                 1.3876                 1.6918
 Frc consts  --      1.3297                 1.5339                 1.9563
 IR Inten    --      1.9116                23.9272                18.8925

                     64                     65                     66
                      A                      A                      A
 Frequencies --   1409.1663              1419.9900              1434.7596
 Red. masses --      2.9864                 1.6520                 1.2008
 Frc consts  --      3.4940                 1.9626                 1.4564
 IR Inten    --      5.0081                 7.6127                 2.0868

                     67                     68                     69
                      A                      A                      A
 Frequencies --   1443.3078              1456.6849              1460.9920
 Red. masses --      1.3812                 1.2576                 1.6752
 Frc consts  --      1.6952                 1.5722                 2.1067
 IR Inten    --      6.6086                 2.6323                28.7230

                     70                     71                     72
                      A                      A                      A
 Frequencies --   1497.4814              1509.3992              1512.0923
 Red. masses --      1.4182                 1.0542                 1.0891
 Frc consts  --      1.8738                 1.4151                 1.4672
 IR Inten    --     28.4183                 4.9274                 6.9931

                     73                     74                     75
                      A                      A                      A
 Frequencies --   1516.4837              1525.6951              1527.2488
 Red. masses --      1.0803                 1.1815                 1.2675
 Frc consts  --      1.4637                 1.6203                 1.7418
 IR Inten    --      0.9748                 4.3402                 1.6103

                     76                     77                     78
                      A                      A                      A
 Frequencies --   1531.6719              1533.8892              1537.1863
 Red. masses --      1.1084                 1.0657                 1.0630
 Frc consts  --      1.5320                 1.4773                 1.4798
 IR Inten    --      6.7178                 2.7799                 4.5238

                     79                     80                     81
                      A                      A                      A
 Frequencies --   1539.8043              1540.4847              1543.3193
 Red. masses --      1.0739                 1.0649                 1.0816
 Frc consts  --      1.5002                 1.4889                 1.5179
 IR Inten    --      0.1359                 1.8183                11.4006

                     82                     83                     84
                      A                      A                      A
 Frequencies --   1550.7168              1558.2709              1563.3013
 Red. masses --      1.0676                 1.3514                 2.2934
 Frc consts  --      1.5127                 1.9334                 3.3023
 IR Inten    --      2.3959                 4.8592                15.0028

                     85                     86                     87
                      A                      A                      A
 Frequencies --   1620.0822              2926.7211              2941.2339
 Red. masses --      5.3655                 1.0738                 1.0747
 Frc consts  --      8.2973                 5.4193                 5.4775
 IR Inten    --      6.2735                55.9597                88.8507

                     88                     89                     90
                      A                      A                      A
 Frequencies --   2985.1374              3031.0451              3043.1632
 Red. masses --      1.0673                 1.0402                 1.0373
 Frc consts  --      5.6037                 5.6305                 5.6600
 IR Inten    --     59.1632                35.3885                17.6233

                     91                     92                     93
                      A                      A                      A
 Frequencies --   3047.6918              3053.0763              3055.5006
 Red. masses --      1.0364                 1.0560                 1.0816
 Frc consts  --      5.6717                 5.7995                 5.9493
 IR Inten    --     29.5123                17.3018                56.1100

                     94                     95                     96
                      A                      A                      A
 Frequencies --   3072.7569              3076.0286              3079.7880
 Red. masses --      1.0672                 1.1011                 1.0733
 Frc consts  --      5.9371                 6.1382                 5.9981
 IR Inten    --      8.7351                28.1701                62.1075

                     97                     98                     99
                      A                      A                      A
 Frequencies --   3088.2445              3091.6678              3103.5294
 Red. masses --      1.0689                 1.1002                 1.1013
 Frc consts  --      6.0061                 6.1961                 6.2500
 IR Inten    --     41.9214                25.6550                28.5765

                    100                    101                    102
                      A                      A                      A
 Frequencies --   3110.4129              3124.2909              3130.5008
 Red. masses --      1.1070                 1.1015                 1.1055
 Frc consts  --      6.3101                 6.3349                 6.3832
 IR Inten    --      0.3622                40.5972                54.3817

                    103                    104                    105
                      A                      A                      A
 Frequencies --   3132.7784              3134.8068              3137.3776
 Red. masses --      1.1018                 1.0964                 1.0921
 Frc consts  --      6.3713                 6.3481                 6.3337
 IR Inten    --     38.5236                10.4455                 6.9862

                    106                    107                    108
                      A                      A                      A
 Frequencies --   3145.3762              3173.5717              3250.7573
 Red. masses --      1.0889                 1.1049                 1.0966
 Frc consts  --      6.3475                 6.5565                 6.8275
 IR Inten    --     17.1786                 2.6881                13.5659

 - Thermochemistry -
 -------------------
 Temperature   298.150 Kelvin.  Pressure   1.00000 Atm.
 Atom     1 has atomic number  6 and mass  12.00000

 Molecular mass:   209.18920 amu.
 Principal axes and moments of inertia in atomic units:
                           1         2         3
     Eigenvalues --  2102.239924437.290095115.02919
           X            0.99977   0.01938   0.00934
           Y           -0.01911   0.99941  -0.02869
           Z           -0.00989   0.02850   0.99954
 This molecule is an asymmetric top.
 Rotational symmetry number  1.
 Warning -- assumption of classical behavior for rotation
           may cause significant error
 Rotational temperatures (Kelvin)      0.04120     0.01952     0.01693
 Rotational constants (GHZ):           0.85848     0.40672     0.35283
 Zero-point vibrational energy     903518.7 (Joules/Mol)
                                  215.94614 (Kcal/Mol)
 Warning -- explicit consideration of  23 degrees of freedom as
           vibrations may cause significant error
 Vibrational temperatures:     40.47    65.32    80.09    85.92   104.99
          (Kelvin)            126.25   130.71   156.59   173.34   201.31
                              228.31   246.40   253.14   272.03   341.57
                              404.41   415.20   462.18   498.47   510.81
                              562.36   679.83   869.04   894.71   933.01
                              936.18  1035.12  1055.05  1121.62  1155.50
                             1179.66  1204.94  1217.58  1259.96  1291.77
                             1313.10  1387.26  1418.44  1425.00  1454.43
                             1457.13  1474.11  1526.41  1553.30  1635.39
                             1656.37  1671.45  1672.49  1697.64  1725.49
                             1763.91  1780.59  1783.06  1786.49  1798.61
                             1829.89  1849.87  1877.61  1892.38  1921.95
                             1930.27  1970.74  2015.64  2027.48  2043.05
                             2064.30  2076.60  2095.84  2102.04  2154.54
                             2171.69  2175.56  2181.88  2195.13  2197.37
                             2203.73  2206.92  2211.67  2215.43  2216.41
                             2220.49  2231.14  2242.00  2249.24  2330.94
                             4210.90  4231.78  4294.95  4361.00  4378.43
                             4384.95  4392.70  4396.18  4421.01  4425.72
                             4431.13  4443.30  4448.22  4465.29  4475.19
                             4495.16  4504.09  4507.37  4510.29  4513.99
                             4525.49  4566.06  4677.11

 Zero-point correction=                           0.344132 (Hartree/Particle)
 Thermal correction to Energy=                    0.362145
 Thermal correction to Enthalpy=                  0.363090
 Thermal correction to Gibbs Free Energy=         0.296686
 Sum of electronic and zero-point Energies=           -635.104327
 Sum of electronic and thermal Energies=              -635.086314
 Sum of electronic and thermal Enthalpies=            -635.085369
 Sum of electronic and thermal Free Energies=         -635.151773

                     E (Thermal)             CV                S
                      KCal/Mol        Cal/Mol-Kelvin    Cal/Mol-Kelvin
 Total                  227.250             63.745            139.759
 Electronic               0.000              0.000              0.000
 Translational            0.889              2.981             41.918
 Rotational               0.889              2.981             32.234
 Vibrational            225.472             57.784             65.606
 Vibration     1          0.593              1.984              5.957
 Vibration     2          0.595              1.979              5.008
 Vibration     3          0.596              1.975              4.605
 Vibration     4          0.597              1.974              4.466
 Vibration     5          0.599              1.967              4.072
 Vibration     6          0.601              1.958              3.710
 Vibration     7          0.602              1.956              3.642
 Vibration     8          0.606              1.942              3.290
 Vibration     9          0.609              1.932              3.093
 Vibration    10          0.615              1.913              2.805
 Vibration    11          0.621              1.893              2.565
 Vibration    12          0.626              1.878              2.422
 Vibration    13          0.628              1.872              2.371
 Vibration    14          0.633              1.855              2.237
 Vibration    15          0.656              1.783              1.822
 Vibration    16          0.681              1.709              1.527
 Vibration    17          0.685              1.695              1.482
 Vibration    18          0.707              1.633              1.304
 Vibration    19          0.724              1.582              1.182
 Vibration    20          0.731              1.565              1.144
 Vibration    21          0.759              1.490              0.997
 Vibration    22          0.829              1.311              0.731
 Vibration    23          0.962              1.023              0.443

                           ! Non-Optimized Parameters !
 Normal termination of Gaussian 16 at Thu Dec 10 18:00:08 2020.

 ----------------------------------------------------------------------
 # B3LYP/6-311++G(d,p) empiricaldispersion=gd3bj scf=xqc pop=npa geom=c
 heck
 ----------------------------------------------------------------------

 ---------------------------------------
 CID_144024772_JID_5804_Energie_neutraal
 ---------------------------------------
 Structure from the checkpoint file:  "JID_5804.chk"
 Charge =  0 Multiplicity = 1

 SCF Done:  E(RB3LYP) =  -635.620496856     A.U. after   14 cycles
 Normal termination of Gaussian 16 at Thu Dec 10 18:07:11 2020.

 ----------------------------------------------------------------------
 # B3LYP/6-311++G(d,p) empiricaldispersion=gd3bj scf=xqc pop=npa geom=c
 heck
 ----------------------------------------------------------------------

 -------------------------------------
 CID_144024772_JID_5804_Energie_kation
 -------------------------------------
 Structure from the checkpoint file:  "JID_5804.chk"
 Charge =  1 Multiplicity = 2

 SCF Done:  E(UB3LYP) =  -635.338526797     A.U. after   23 cycles
 Normal termination of Gaussian 16 at Thu Dec 10 18:22:12 2020.
 Gaussian 16:  ES64L-G16RevA.03 25-Dec-2016

 ----------------------------------------------------------------------
 # B3LYP/6-311++G(d,p) empiricaldispersion=gd3bj scf=xqc pop=npa geom=c
 heck
 ----------------------------------------------------------------------

 ------------------------------------
 CID_144024772_JID_5804_Energie_anion
 ------------------------------------
 Structure from the checkpoint file:  "JID_5804.chk"
 Charge = -1 Multiplicity = 2

                         Standard orientation:
 ---------------------------------------------------------------------
 Center     Atomic      Atomic             Coordinates (Angstroms)
 Number     Number       Type             X           Y           Z
 ---------------------------------------------------------------------
      1          6           0        0.762139    2.767301   -0.787543
      2          6           0        0.276709    2.624774    0.656090
      3          6           0        3.778104    0.326862    0.637289
      4          6           0        2.658145   -0.360880   -0.066492
      5          6           0        2.501497   -0.759836   -1.374037
      6          7           0        1.269741   -1.345200   -1.568535
      7          6           0        0.675005   -1.313205   -0.390671
      8          7           0        1.471988   -0.717381    0.558881
      9          6           0        1.150112   -0.556036    1.965629
     10          6           0       -0.711267   -1.791613   -0.099313
     11          7           0       -1.618516   -0.674437    0.153715
     12          6           0       -1.905434    0.130601   -1.038581
     13          6           0       -3.065815    1.033195   -0.588533
     14          6           0       -3.755118    0.230451    0.553209
     15          6           0       -2.938240   -1.070418    0.645409
     16          1           0        1.330604    1.886117   -1.102985
     17          1           0        1.407377    3.645554   -0.907652
     18          1           0       -0.081136    2.883944   -1.478108
     19          1           0       -0.347061    1.733533    0.778634
     20          1           0        1.122037    2.536567    1.349485
     21          1           0       -0.311252    3.495688    0.969593
     22          1           0        4.598104    0.498755   -0.065311
     23          1           0        3.476642    1.304168    1.037844
     24          1           0        4.174467   -0.263232    1.473930
     25          1           0        3.210756   -0.650855   -2.184086
     26          1           0        1.451158   -1.436101    2.546710
     27          1           0        1.666860    0.319768    2.361880
     28          1           0        0.074837   -0.397996    2.061150
     29          1           0       -1.036596   -2.406751   -0.955911
     30          1           0       -0.718187   -2.436009    0.789602
     31          1           0       -2.221235   -0.518370   -1.878069
     32          1           0       -1.016115    0.673660   -1.362820
     33          1           0       -2.686969    1.988071   -0.212770
     34          1           0       -3.745604    1.252039   -1.416889
     35          1           0       -3.699983    0.782030    1.496385
     36          1           0       -4.810842    0.028568    0.350680
     37          1           0       -2.867143   -1.473615    1.661785
     38          1           0       -3.388221   -1.853571    0.003760
 ---------------------------------------------------------------------

 SCF Done:  E(UB3LYP) =  -635.607892691     A.U. after   30 cycles

 The electronic state is 2-A.
 Alpha  occ. eigenvalues --  -14.26507 -14.21377 -14.18991 -10.12129 -10.10811
 Alpha  occ. eigenvalues --  -10.10397 -10.10227 -10.09795 -10.09448 -10.07780
 Alpha  occ. eigenvalues --  -10.07664 -10.07528 -10.07496 -10.05964 -10.05646
 Alpha  occ. eigenvalues --   -0.91605  -0.84445  -0.78329  -0.70479  -0.67434
 Alpha  occ. eigenvalues --   -0.65462  -0.63203  -0.61685  -0.61321  -0.56108
 Alpha  occ. eigenvalues --   -0.51750  -0.49204  -0.49018  -0.48723  -0.44904
 Alpha  occ. eigenvalues --   -0.41490  -0.40347  -0.39279  -0.37307  -0.35647
 Alpha  occ. eigenvalues --   -0.34765  -0.34228  -0.33430  -0.33184  -0.31972
 Alpha  occ. eigenvalues --   -0.31585  -0.30984  -0.29888  -0.29537  -0.29197
 Alpha  occ. eigenvalues --   -0.28242  -0.27097  -0.26955  -0.26569  -0.25270
 Alpha  occ. eigenvalues --   -0.24793  -0.24554  -0.24408  -0.23056  -0.17276
 Alpha  occ. eigenvalues --   -0.16908  -0.13402  -0.12030   0.04247
 Alpha virt. eigenvalues --    0.06138   0.06852   0.07488   0.08235   0.08421
 Alpha virt. eigenvalues --    0.08895   0.09664   0.10051   0.10289   0.10769
 Alpha virt. eigenvalues --    0.11119   0.11401   0.11792   0.12173   0.13025

  Beta  occ. eigenvalues --  -14.26503 -14.21369 -14.18988 -10.12129 -10.10801
  Beta  occ. eigenvalues --  -10.10348 -10.10226 -10.09774 -10.09444 -10.07733
  Beta  occ. eigenvalues --  -10.07662 -10.07517 -10.07478 -10.05952 -10.05621
  Beta  occ. eigenvalues --   -0.91595  -0.84430  -0.78318  -0.70459  -0.67404
  Beta  occ. eigenvalues --   -0.65434  -0.63173  -0.61644  -0.61256  -0.56073
  Beta  occ. eigenvalues --   -0.51691  -0.49188  -0.48975  -0.48682  -0.44863
  Beta  occ. eigenvalues --   -0.41453  -0.40311  -0.39249  -0.37274  -0.35609
  Beta  occ. eigenvalues --   -0.34744  -0.34201  -0.33410  -0.33162  -0.31925
  Beta  occ. eigenvalues --   -0.31553  -0.30959  -0.29852  -0.29499  -0.29167
  Beta  occ. eigenvalues --   -0.28219  -0.27061  -0.26922  -0.26535  -0.25244
  Beta  occ. eigenvalues --   -0.24766  -0.24532  -0.24388  -0.23033  -0.17260
  Beta  occ. eigenvalues --   -0.16894  -0.13363  -0.12020
  Beta virt. eigenvalues --    0.06351   0.06929   0.07565   0.07911   0.08563
  Beta virt. eigenvalues --    0.08919   0.09234   0.09879   0.10487   0.10595
  Beta virt. eigenvalues --    0.11218   0.11281   0.11465   0.12164   0.12435

 Mulliken charges and spin densities:
               1          2
     1  C   -0.569597   0.019453
     2  C   -0.139085  -0.259219
     3  C    2.109751  -2.704078
     4  C   -0.921744   1.329794
     5  C   -0.890292   0.574930
     6  N    0.086295   0.006791
     7  C   -1.406630   1.266672
     8  N    0.071375   0.179135
     9  C    1.239419  -1.533226
    10  C    0.355164  -1.345377
    11  N    0.131606   0.100410
    12  C   -0.197117   0.096883
    13  C   -0.402251  -0.085271
    14  C    0.329949  -0.672782
    15  C    0.248324  -0.602571
    16  H    0.265699  -0.057651
    17  H   -0.050591   0.185896
    18  H    0.017148   0.106629
    19  H    0.720821  -0.530160
    20  H   -0.063276   0.176056
    21  H   -0.174168   0.314758
    22  H   -0.215042   0.368842
    23  H   -0.076196   0.233329
    24  H   -0.361775   0.545712
    25  H   -0.019845   0.149825
    26  H   -0.575120   0.764902
    27  H   -0.185527   0.351111
    28  H   -0.319852   0.508200
    29  H    0.087886   0.073195
    30  H   -0.058803   0.232619
    31  H    0.098106   0.044729
    32  H    0.278473  -0.091450
    33  H    0.173596  -0.032114
    34  H   -0.064285   0.188995
    35  H   -0.146149   0.303154
    36  H   -0.157190   0.298122
    37  H   -0.306579   0.481443
    38  H    0.087504   0.012313
 Sum of Mulliken charges =  -1.00000   1.00000

 Dipole moment (field-independent basis, Debye):
    X=             -2.4984    Y=              0.4430    Z=             -4.9969  Tot=              5.6042
 Quadrupole moment (field-independent basis, Debye-Ang):
   XX=           -164.2331   YY=           -138.0174   ZZ=           -146.3935
   XY=             -0.6414   XZ=             -3.9019   YZ=              0.2060

 Summary of Natural Population Analysis:

                                       Natural Population
                Natural  -----------------------------------------------
    Atom  No    Charge         Core      Valence    Rydberg      Total
 -----------------------------------------------------------------------
      C    1   -0.29019      0.99967     2.28533    0.00519     3.29019
      C    2   -0.28975      0.99967     2.28469    0.00538     3.28975
      C    3   -0.30231      0.99963     2.29707    0.00560     3.30231
      C    4    0.06403      0.99951     1.92366    0.01280     2.93597
      C    5   -0.04225      0.99950     2.02892    0.01383     3.04225
      N    6   -0.25824      0.99970     2.75012    0.00843     3.75824
      C    7    0.18644      0.99958     1.79550    0.01848     2.81356
      N    8   -0.20870      0.99959     2.69649    0.01262     3.70870
      C    9   -0.17973      0.99962     2.17109    0.00902     3.17973
      C   10   -0.10391      0.99958     2.09335    0.01099     3.10391
      N   11   -0.28441      0.99971     2.77184    0.01286     3.78441
      C   12   -0.08611      0.99963     2.07706    0.00942     3.08611
      C   13   -0.19551      0.99964     2.18819    0.00768     3.19551
      C   14   -0.19436      0.99964     2.18688    0.00784     3.19436
      C   15   -0.08245      0.99963     2.07161    0.01121     3.08245
      H   16    0.10330      0.00000     0.39538    0.00132     0.39670
      H   17    0.09305      0.00000     0.40617    0.00078     0.40695
      H   18    0.09220      0.00000     0.40696    0.00084     0.40780
      H   19    0.10135      0.00000     0.39597    0.00268     0.39865
      H   20    0.09484      0.00000     0.40377    0.00139     0.40516
      H   21    0.09226      0.00000     0.40672    0.00102     0.40774
      H   22    0.10852      0.00000     0.39060    0.00088     0.39148
      H   23    0.10668      0.00000     0.39167    0.00166     0.39332
      H   24    0.10803      0.00000     0.39023    0.00173     0.39197
      H   25    0.09422      0.00000     0.40487    0.00092     0.40578
      H   26    0.09953      0.00000     0.39840    0.00206     0.40047
      H   27    0.10483      0.00000     0.39323    0.00194     0.39517
      H   28    0.11177      0.00000     0.38561    0.00262     0.38823
      H   29    0.09661      0.00000     0.40189    0.00149     0.40339
      H   30    0.10351      0.00000     0.39515    0.00134     0.39649
      H   31    0.07928      0.00000     0.41942    0.00130     0.42072
      H   32    0.10413      0.00000     0.39388    0.00199     0.39587
      H   33    0.10110      0.00000     0.39776    0.00113     0.39890
      H   34    0.09661      0.00000     0.40253    0.00086     0.40339
      H   35    0.10105      0.00000     0.39767    0.00129     0.39895
      H   36    0.09738      0.00000     0.40160    0.00102     0.40262
      H   37    0.10021      0.00000     0.39823    0.00156     0.39979
      H   38    0.07698      0.00000     0.42158    0.00144     0.42302
 =======================================================================
   * Total *   -0.00000     14.99429    42.82110    0.18461    58.00000

 Normal termination of Gaussian 16 at Thu Dec 10 18:41:36 2020.
