 Gaussian 16, Revision A.03,

 -----------------------------------------------------------
 # opt freq B3LYP/6-31G(d) empiricaldispersion=gd3bj scf=xqc
 -----------------------------------------------------------

 ------------------------------
 CID_14925305_JID_4168_neutraal
 ------------------------------
 Symbolic Z-matrix:
 Charge =  0 Multiplicity = 1

 SCF Done:  E(RB3LYP) =  -670.539019503     A.U. after   15 cycles
 SCF Done:  E(RB3LYP) =  -670.542777805     A.U. after   12 cycles
 SCF Done:  E(RB3LYP) =  -670.543139017     A.U. after   12 cycles
 SCF Done:  E(RB3LYP) =  -670.543311751     A.U. after   12 cycles
 SCF Done:  E(RB3LYP) =  -670.543386999     A.U. after   11 cycles
 SCF Done:  E(RB3LYP) =  -670.543433615     A.U. after   11 cycles
 SCF Done:  E(RB3LYP) =  -670.543456115     A.U. after   11 cycles
 SCF Done:  E(RB3LYP) =  -670.543472572     A.U. after   10 cycles
 SCF Done:  E(RB3LYP) =  -670.543483135     A.U. after   11 cycles
 SCF Done:  E(RB3LYP) =  -670.543484713     A.U. after    8 cycles
 SCF Done:  E(RB3LYP) =  -670.543513918     A.U. after   10 cycles
 SCF Done:  E(RB3LYP) =  -670.543517243     A.U. after   11 cycles
 SCF Done:  E(RB3LYP) =  -670.543517459     A.U. after    8 cycles
 SCF Done:  E(RB3LYP) =  -670.543517540     A.U. after    8 cycles
 SCF Done:  E(RB3LYP) =  -670.543517574     A.U. after    7 cycles
 Optimization completed.
    -- Stationary point found.
 Normal termination of Gaussian 16 at Thu Dec 10 09:25:02 2020.

 --------------------------------------------------------------------
 #N Geom=AllCheck Guess=TCheck SCRF=Check GenChk RB3LYP/6-31G(d) Freq
 --------------------------------------------------------------------

 Structure from the checkpoint file:  "JID_4168.chk"
 ------------------------------
 CID_14925305_JID_4168_neutraal
 ------------------------------
 Charge =  0 Multiplicity = 1

 SCF Done:  E(RB3LYP) =  -670.543517573     A.U. after    1 cycles

  Exact polarizability: 166.049  -1.973 121.111   3.247   5.357  78.729
 Approx polarizability: 210.423   0.422 197.121   2.018  17.065 118.122

                      1                      2                      3
                      A                      A                      A
 Frequencies --     25.7588                36.0861                53.6454
 Red. masses --      3.7497                 4.6905                 4.0158
 Frc consts  --      0.0015                 0.0036                 0.0068
 IR Inten    --      2.4034                 0.2487                 1.6414

                      4                      5                      6
                      A                      A                      A
 Frequencies --     85.7215               103.9207               126.2981
 Red. masses --      2.9749                 2.8976                 5.4825
 Frc consts  --      0.0129                 0.0184                 0.0515
 IR Inten    --      0.0496                 0.8638                 2.2799

                      7                      8                      9
                      A                      A                      A
 Frequencies --    129.5985               155.5524               213.3110
 Red. masses --      3.8992                 2.6230                 4.6721
 Frc consts  --      0.0386                 0.0374                 0.1253
 IR Inten    --      0.7287                 6.2580                 1.5324

                     10                     11                     12
                      A                      A                      A
 Frequencies --    222.8020               232.8911               264.9813
 Red. masses --      1.1769                 1.1639                 2.0705
 Frc consts  --      0.0344                 0.0372                 0.0857
 IR Inten    --      2.6723                 4.7908                23.5461

                     13                     14                     15
                      A                      A                      A
 Frequencies --    307.1761               337.4449               344.5525
 Red. masses --      1.6084                 2.5370                 2.5825
 Frc consts  --      0.0894                 0.1702                 0.1806
 IR Inten    --     87.4797                 2.1326                12.2776

                     16                     17                     18
                      A                      A                      A
 Frequencies --    366.7519               424.8730               447.1688
 Red. masses --      2.7713                 3.1755                 4.8259
 Frc consts  --      0.2196                 0.3377                 0.5686
 IR Inten    --     23.7214                13.3794                17.2425

                     19                     20                     21
                      A                      A                      A
 Frequencies --    498.9238               538.2835               626.8155
 Red. masses --      4.1991                 3.3125                 5.7026
 Frc consts  --      0.6158                 0.5655                 1.3201
 IR Inten    --      5.0193                 2.6387                 3.4334

                     22                     23                     24
                      A                      A                      A
 Frequencies --    630.0879               672.6651               724.8672
 Red. masses --      3.5424                 3.9983                 2.5572
 Frc consts  --      0.8286                 1.0659                 0.7917
 IR Inten    --      9.5609                 2.8080                26.4568

                     25                     26                     27
                      A                      A                      A
 Frequencies --    742.8068               791.3703               792.2460
 Red. masses --      5.1163                 1.7578                 1.2925
 Frc consts  --      1.6633                 0.6486                 0.4780
 IR Inten    --     24.1689                 7.8419                 4.3213

                     28                     29                     30
                      A                      A                      A
 Frequencies --    801.8070               868.7744               878.1599
 Red. masses --      1.1868                 2.4804                 1.4933
 Frc consts  --      0.4495                 1.1030                 0.6785
 IR Inten    --      6.5091                47.7645                24.2566

                     31                     32                     33
                      A                      A                      A
 Frequencies --    953.7447               962.2523               965.9621
 Red. masses --      2.9791                 2.3969                 1.7006
 Frc consts  --      1.5966                 1.3076                 0.9349
 IR Inten    --     30.8475                12.3909                32.1651

                     34                     35                     36
                      A                      A                      A
 Frequencies --   1018.2519              1026.0360              1053.2679
 Red. masses --      2.7027                 3.6518                 5.0440
 Frc consts  --      1.6511                 2.2650                 3.2968
 IR Inten    --      5.5341                11.7529                88.4558

                     37                     38                     39
                      A                      A                      A
 Frequencies --   1102.7493              1110.2408              1121.9200
 Red. masses --      2.0132                 1.8770                 1.7886
 Frc consts  --      1.4424                 1.3632                 1.3264
 IR Inten    --     17.8515                 1.2039                16.3410

                     40                     41                     42
                      A                      A                      A
 Frequencies --   1132.5497              1171.1128              1186.2832
 Red. masses --      1.7227                 2.4381                 1.8452
 Frc consts  --      1.3019                 1.9701                 1.5299
 IR Inten    --     17.0888                 7.1082                28.9580

                     43                     44                     45
                      A                      A                      A
 Frequencies --   1213.4379              1243.2899              1266.9977
 Red. masses --      1.6539                 2.2456                 2.2453
 Frc consts  --      1.4348                 2.0452                 2.1236
 IR Inten    --     58.2116                41.6759                 4.0981

                     46                     47                     48
                      A                      A                      A
 Frequencies --   1293.7147              1334.2620              1361.1164
 Red. masses --      1.8405                 1.6106                 1.4779
 Frc consts  --      1.8150                 1.6894                 1.6131
 IR Inten    --     37.1366                92.7519                63.7477

                     49                     50                     51
                      A                      A                      A
 Frequencies --   1379.9889              1398.8692              1417.7098
 Red. masses --      1.2877                 1.2739                 1.2802
 Frc consts  --      1.4448                 1.4688                 1.5160
 IR Inten    --      5.6690                11.3012                16.8015

                     52                     53                     54
                      A                      A                      A
 Frequencies --   1428.8703              1434.8232              1440.0330
 Red. masses --      2.9149                 1.2916                 1.2699
 Frc consts  --      3.5063                 1.5666                 1.5516
 IR Inten    --      1.8978                18.7776                51.6860

                     55                     56                     57
                      A                      A                      A
 Frequencies --   1440.9671              1474.9941              1506.5754
 Red. masses --      1.3435                 2.3121                 1.1192
 Frc consts  --      1.6436                 2.9637                 1.4967
 IR Inten    --     57.2605               185.0219                18.8082

                     58                     59                     60
                      A                      A                      A
 Frequencies --   1520.1306              1522.3143              1528.3977
 Red. masses --      1.0460                 1.0721                 1.0859
 Frc consts  --      1.4241                 1.4638                 1.4946
 IR Inten    --      4.0922                 0.7907                13.0340

                     61                     62                     63
                      A                      A                      A
 Frequencies --   1536.2378              1536.4210              1539.6253
 Red. masses --      1.0946                 1.0834                 1.1324
 Frc consts  --      1.5220                 1.5068                 1.5816
 IR Inten    --      0.4153                 2.0393                 8.9087

                     64                     65                     66
                      A                      A                      A
 Frequencies --   1565.9595              1650.9437              1714.0412
 Red. masses --      4.3728                 6.4215                 9.8466
 Frc consts  --      6.3179                10.3122                17.0443
 IR Inten    --     80.1337                32.2286               246.0040

                     67                     68                     69
                      A                      A                      A
 Frequencies --   3013.4275              3053.0337              3056.0952
 Red. masses --      1.0714                 1.0386                 1.0377
 Frc consts  --      5.7321                 5.7038                 5.7100
 IR Inten    --     65.7073                14.9640                21.4991

                     70                     71                     72
                      A                      A                      A
 Frequencies --   3059.6179              3073.1439              3111.4927
 Red. masses --      1.0700                 1.0671                 1.0935
 Frc consts  --      5.9015                 5.9380                 6.2373
 IR Inten    --     36.7791                42.7563                27.0068

                     73                     74                     75
                      A                      A                      A
 Frequencies --   3112.8590              3117.6259              3141.2669
 Red. masses --      1.1017                 1.1020                 1.0969
 Frc consts  --      6.2895                 6.3105                 6.3772
 IR Inten    --     24.2601                26.7557                14.3779

                     76                     77                     78
                      A                      A                      A
 Frequencies --   3146.3615              3153.8296              3162.7810
 Red. masses --      1.0985                 1.1029                 1.0952
 Frc consts  --      6.4069                 6.4633                 6.4547
 IR Inten    --     20.4147                20.7807                20.3716

                     79                     80                     81
                      A                      A                      A
 Frequencies --   3283.0022              3291.4802              3739.0657
 Red. masses --      1.0966                 1.0986                 1.0663
 Frc consts  --      6.9639                 7.0124                 8.7831
 IR Inten    --      0.4128                 0.1307                10.6250

 - Thermochemistry -
 -------------------
 Temperature   298.150 Kelvin.  Pressure   1.00000 Atm.
 Atom     1 has atomic number  6 and mass  12.00000

 Molecular mass:   197.10519 amu.
 Principal axes and moments of inertia in atomic units:
                           1         2         3
     Eigenvalues --  1287.948185223.500246053.54643
           X            0.99995   0.00541   0.00887
           Y           -0.00526   0.99984  -0.01698
           Z           -0.00896   0.01694   0.99982
 This molecule is an asymmetric top.
 Rotational symmetry number  1.
 Warning -- assumption of classical behavior for rotation
           may cause significant error
 Rotational temperatures (Kelvin)      0.06725     0.01658     0.01431
 Rotational constants (GHZ):           1.40125     0.34550     0.29813
 Zero-point vibrational energy     643079.6 (Joules/Mol)
                                  153.69972 (Kcal/Mol)
 Warning -- explicit consideration of  20 degrees of freedom as
           vibrations may cause significant error
 Vibrational temperatures:     37.06    51.92    77.18   123.33   149.52
          (Kelvin)            181.71   186.46   223.81   306.91   320.56
                              335.08   381.25   441.96   485.51   495.73
                              527.67   611.30   643.38   717.84   774.47
                              901.85   906.56   967.82  1042.92  1068.73
                             1138.61  1139.87  1153.62  1249.97  1263.48
                             1372.23  1384.47  1389.80  1465.04  1476.24
                             1515.42  1586.61  1597.39  1614.19  1629.49
                             1684.97  1706.80  1745.87  1788.82  1822.93
                             1861.37  1919.71  1958.34  1985.50  2012.66
                             2039.77  2055.83  2064.39  2071.89  2073.23
                             2122.19  2167.63  2187.13  2190.27  2199.02
                             2210.30  2210.57  2215.18  2253.07  2375.34
                             2466.12  4335.65  4392.63  4397.04  4402.11
                             4421.57  4476.74  4478.71  4485.57  4519.58
                             4526.91  4537.66  4550.54  4723.51  4735.71
                             5379.68

 Zero-point correction=                           0.244936 (Hartree/Particle)
 Thermal correction to Energy=                    0.259843
 Thermal correction to Enthalpy=                  0.260788
 Thermal correction to Gibbs Free Energy=         0.201424
 Sum of electronic and zero-point Energies=           -670.298581
 Sum of electronic and thermal Energies=              -670.283674
 Sum of electronic and thermal Enthalpies=            -670.282730
 Sum of electronic and thermal Free Energies=         -670.342094

                     E (Thermal)             CV                S
                      KCal/Mol        Cal/Mol-Kelvin    Cal/Mol-Kelvin
 Total                  163.054             53.844            124.942
 Electronic               0.000              0.000              0.000
 Translational            0.889              2.981             41.741
 Rotational               0.889              2.981             32.077
 Vibrational            161.277             47.883             51.125
 Vibration     1          0.593              1.985              6.132
 Vibration     2          0.594              1.982              5.463
 Vibration     3          0.596              1.976              4.678
 Vibration     4          0.601              1.959              3.755
 Vibration     5          0.605              1.946              3.379
 Vibration     6          0.611              1.927              3.002
 Vibration     7          0.612              1.924              2.952
 Vibration     8          0.620              1.896              2.603
 Vibration     9          0.644              1.821              2.015
 Vibration    10          0.648              1.806              1.936
 Vibration    11          0.654              1.791              1.857
 Vibration    12          0.671              1.737              1.629
 Vibration    13          0.697              1.660              1.377
 Vibration    14          0.718              1.601              1.224
 Vibration    15          0.723              1.586              1.191
 Vibration    16          0.740              1.541              1.093
 Vibration    17          0.787              1.416              0.876
 Vibration    18          0.806              1.367              0.804
 Vibration    19          0.854              1.252              0.661
 Vibration    20          0.893              1.165              0.569

                           ! Non-Optimized Parameters !
 Normal termination of Gaussian 16 at Thu Dec 10 09:32:20 2020.

 ----------------------------------------------------------------------
 # B3LYP/6-311++G(d,p) empiricaldispersion=gd3bj scf=xqc pop=npa geom=c
 heck
 ----------------------------------------------------------------------

 --------------------------------------
 CID_14925305_JID_4168_Energie_neutraal
 --------------------------------------
 Structure from the checkpoint file:  "JID_4168.chk"
 Charge =  0 Multiplicity = 1

 SCF Done:  E(RB3LYP) =  -670.743804385     A.U. after   15 cycles
 Normal termination of Gaussian 16 at Thu Dec 10 09:35:09 2020.

 ----------------------------------------------------------------------
 # B3LYP/6-311++G(d,p) empiricaldispersion=gd3bj scf=xqc pop=npa geom=c
 heck
 ----------------------------------------------------------------------

 ------------------------------------
 CID_14925305_JID_4168_Energie_kation
 ------------------------------------
 Structure from the checkpoint file:  "JID_4168.chk"
 Charge =  1 Multiplicity = 2

 SCF Done:  E(UB3LYP) =  -670.435938981     A.U. after   26 cycles
 Normal termination of Gaussian 16 at Thu Dec 10 09:41:48 2020.
 Gaussian 16:  ES64L-G16RevA.03 25-Dec-2016

 ----------------------------------------------------------------------
 # B3LYP/6-311++G(d,p) empiricaldispersion=gd3bj scf=xqc pop=npa geom=c
 heck
 ----------------------------------------------------------------------

 -----------------------------------
 CID_14925305_JID_4168_Energie_anion
 -----------------------------------
 Structure from the checkpoint file:  "JID_4168.chk"
 Charge = -1 Multiplicity = 2

                         Standard orientation:
 ---------------------------------------------------------------------
 Center     Atomic      Atomic             Coordinates (Angstroms)
 Number     Number       Type             X           Y           Z
 ---------------------------------------------------------------------
      1          6           0        3.801331   -1.461690    0.893301
      2          6           0        3.345863   -0.581046   -0.271053
      3          7           0        2.030801    0.025123   -0.039787
      4          6           0        2.015450    1.311387    0.660112
      5          6           0        2.156818    2.507233   -0.282164
      6          6           0        0.942395   -0.739537   -0.359345
      7          8           0        1.057722   -1.899993   -0.765363
      8          6           0       -0.431889   -0.197426   -0.249332
      9          6           0       -1.604221   -0.891203   -0.366909
     10          6           0       -2.673047    0.056932   -0.261333
     11          6           0       -2.066313    1.269757   -0.089858
     12          8           0       -0.713074    1.140178   -0.082187
     13          6           0       -4.146555   -0.230128   -0.263827
     14          8           0       -4.663088   -0.519153    1.035290
     15          1           0        3.845814   -0.893947    1.830006
     16          1           0        4.799362   -1.869583    0.697097
     17          1           0        3.104015   -2.293704    1.020180
     18          1           0        4.055448    0.235454   -0.443453
     19          1           0        3.282971   -1.175239   -1.184392
     20          1           0        1.099646    1.395307    1.244266
     21          1           0        2.845457    1.295275    1.376470
     22          1           0        1.304658    2.555557   -0.964995
     23          1           0        2.196946    3.441083    0.290263
     24          1           0        3.073783    2.434786   -0.877260
     25          1           0       -1.675100   -1.956768   -0.531042
     26          1           0       -2.444190    2.273607    0.034018
     27          1           0       -4.705225    0.644819   -0.607907
     28          1           0       -4.358638   -1.052077   -0.964385
     29          1           0       -4.132027   -1.244366    1.400170
 ---------------------------------------------------------------------

 SCF Done:  E(UB3LYP) =  -670.736450892     A.U. after   33 cycles
 SCF Done:  E(UB3LYP) =  -670.736450892     a.u. after    1 cycles

 The electronic state is 2-A.
 Alpha  occ. eigenvalues --  -19.05699 -19.01853 -18.94442 -14.21380 -10.13437
 Alpha  occ. eigenvalues --  -10.11815 -10.09741 -10.09346 -10.08979 -10.08716
 Alpha  occ. eigenvalues --  -10.05983 -10.05588 -10.04946 -10.04267  -0.98702
 Alpha  occ. eigenvalues --   -0.91831  -0.90178  -0.81140  -0.69000  -0.66195
 Alpha  occ. eigenvalues --   -0.64477  -0.62238  -0.58014  -0.53414  -0.53215
 Alpha  occ. eigenvalues --   -0.47340  -0.46652  -0.43536  -0.41218  -0.38213
 Alpha  occ. eigenvalues --   -0.37233  -0.36297  -0.34471  -0.33392  -0.32941
 Alpha  occ. eigenvalues --   -0.32838  -0.31559  -0.30803  -0.29346  -0.28362
 Alpha  occ. eigenvalues --   -0.27788  -0.27198  -0.25781  -0.25468  -0.25147
 Alpha  occ. eigenvalues --   -0.24200  -0.23512  -0.22838  -0.17940  -0.16049
 Alpha  occ. eigenvalues --   -0.13199  -0.12136  -0.11168   0.04870
 Alpha virt. eigenvalues --    0.06627   0.07482   0.08101   0.08702   0.09114
 Alpha virt. eigenvalues --    0.09847   0.10635   0.11312   0.11473   0.12057
 Alpha virt. eigenvalues --    0.12654   0.13173   0.13796   0.14465   0.14748

  Beta  occ. eigenvalues --  -19.05437 -19.01825 -18.94280 -14.21328 -10.13301
  Beta  occ. eigenvalues --  -10.11802 -10.09736 -10.09103 -10.08860 -10.08711
  Beta  occ. eigenvalues --  -10.05975 -10.05659 -10.04912 -10.04176  -0.98271
  Beta  occ. eigenvalues --   -0.91764  -0.89894  -0.80989  -0.68855  -0.66145
  Beta  occ. eigenvalues --   -0.64199  -0.62091  -0.57867  -0.53327  -0.53030
  Beta  occ. eigenvalues --   -0.46969  -0.46531  -0.43414  -0.41150  -0.38110
  Beta  occ. eigenvalues --   -0.37112  -0.36145  -0.33904  -0.33273  -0.32838
  Beta  occ. eigenvalues --   -0.32491  -0.31370  -0.30578  -0.29240  -0.28247
  Beta  occ. eigenvalues --   -0.27663  -0.27142  -0.25689  -0.25248  -0.24678
  Beta  occ. eigenvalues --   -0.24107  -0.23360  -0.22689  -0.17886  -0.15378
  Beta  occ. eigenvalues --   -0.12914  -0.11662  -0.10003
  Beta virt. eigenvalues --    0.07032   0.07667   0.08132   0.09028   0.09098
  Beta virt. eigenvalues --    0.09647   0.10088   0.10734   0.11361   0.11545
  Beta virt. eigenvalues --    0.12111   0.12678   0.13217   0.13933   0.14774

 Mulliken charges and spin densities:
               1          2
     1  C    0.576364  -0.986808
     2  C   -0.395429   0.171129
     3  N    0.120868   0.021179
     4  C   -0.477601   0.194418
     5  C    0.054556  -0.502601
     6  C    0.263440  -0.154071
     7  O   -0.390211   0.058808
     8  C    0.405626  -0.311035
     9  C   -0.851163   0.586081
    10  C    0.585763  -0.284129
    11  C   -0.484940   0.275330
    12  O   -0.040524   0.054265
    13  C   -0.150072  -0.395599
    14  O   -0.216304  -0.014198
    15  H    0.042570   0.067653
    16  H   -0.371443   0.503325
    17  H    0.002592   0.180839
    18  H   -0.388240   0.510944
    19  H    0.207385  -0.027049
    20  H    0.223561  -0.028190
    21  H   -0.105805   0.246286
    22  H    0.076376   0.110777
    23  H    0.031982   0.074859
    24  H    0.078621   0.047769
    25  H    0.037871   0.136218
    26  H    0.000128   0.107190
    27  H   -0.009676   0.167806
    28  H    0.109099   0.022746
    29  H    0.064606   0.166057
 Sum of Mulliken charges =  -1.00000   1.00000

 Dipole moment (field-independent basis, Debye):
    X=             -1.7278    Y=              3.1124    Z=              0.0844  Tot=              3.5609
 Quadrupole moment (field-independent basis, Debye-Ang):
   XX=           -166.0182   YY=           -111.7249   ZZ=           -102.3384
   XY=              6.4133   XZ=              4.2899   YZ=              1.0414

 Summary of Natural Population Analysis:

                                       Natural Population
                Natural  -----------------------------------------------
    Atom  No    Charge         Core      Valence    Rydberg      Total
 -----------------------------------------------------------------------
      C    1   -0.29275      0.99966     2.28769    0.00540     3.29275
      C    2   -0.08655      0.99963     2.07511    0.01181     3.08655
      N    3   -0.24943      0.99964     2.73894    0.01085     3.74943
      C    4   -0.08600      0.99962     2.07567    0.01072     3.08600
      C    5   -0.28965      0.99966     2.28549    0.00451     3.28965
      C    6    0.33524      0.99958     1.64455    0.02063     2.66476
      O    7   -0.32137      0.99989     3.31654    0.00495     4.32137
      C    8    0.12011      0.99941     1.86716    0.01333     2.87989
      C    9   -0.11021      0.99948     2.10138    0.00935     3.11021
      C   10   -0.10587      0.99952     2.09760    0.00876     3.10587
      C   11    0.11719      0.99945     1.86954    0.01383     2.88281
      O   12   -0.21766      0.99986     3.20975    0.00805     4.21766
      C   13   -0.01561      0.99955     2.00301    0.01304     3.01561
      O   14   -0.37120      0.99990     3.36450    0.00680     4.37120
      H   15    0.09237      0.00000     0.40660    0.00102     0.40763
      H   16    0.09711      0.00000     0.40134    0.00155     0.40289
      H   17    0.10770      0.00000     0.39129    0.00101     0.39230
      H   18    0.09017      0.00000     0.40836    0.00147     0.40983
      H   19    0.10741      0.00000     0.39142    0.00117     0.39259
      H   20    0.10587      0.00000     0.39279    0.00133     0.39413
      H   21    0.08946      0.00000     0.40941    0.00113     0.41054
      H   22    0.10525      0.00000     0.39332    0.00144     0.39475
      H   23    0.09284      0.00000     0.40618    0.00098     0.40716
      H   24    0.09505      0.00000     0.40361    0.00133     0.40495
      H   25    0.11194      0.00000     0.38702    0.00104     0.38806
      H   26    0.08736      0.00000     0.41168    0.00095     0.41264
      H   27    0.08636      0.00000     0.41175    0.00189     0.41364
      H   28    0.07666      0.00000     0.42151    0.00183     0.42334
      H   29    0.22820      0.00000     0.26789    0.00391     0.27180
 =======================================================================
   * Total *   -0.00000     13.99483    38.84111    0.16406    53.00000

 Normal termination of Gaussian 16 at Thu Dec 10 09:50:28 2020.
