 Gaussian 16, Revision A.03,

 -----------------------------------------------------------
 # opt freq B3LYP/6-31G(d) empiricaldispersion=gd3bj scf=xqc
 -----------------------------------------------------------

 -------------------------------
 CID_141034681_JID_4229_neutraal
 -------------------------------
 Symbolic Z-matrix:
 Charge =  0 Multiplicity = 1

 SCF Done:  E(RB3LYP) =  -668.088608391     A.U. after   15 cycles
 SCF Done:  E(RB3LYP) =  -668.094967015     A.U. after   13 cycles
 SCF Done:  E(RB3LYP) =  -668.096050856     A.U. after   12 cycles
 SCF Done:  E(RB3LYP) =  -668.095648656     A.U. after   13 cycles
 SCF Done:  E(RB3LYP) =  -668.096528707     A.U. after   12 cycles
 SCF Done:  E(RB3LYP) =  -668.096603733     A.U. after   12 cycles
 SCF Done:  E(RB3LYP) =  -668.096645651     A.U. after   13 cycles
 SCF Done:  E(RB3LYP) =  -668.096792308     A.U. after   11 cycles
 SCF Done:  E(RB3LYP) =  -668.096980247     A.U. after   13 cycles
 SCF Done:  E(RB3LYP) =  -668.097081624     A.U. after   12 cycles
 SCF Done:  E(RB3LYP) =  -668.097194120     A.U. after   12 cycles
 SCF Done:  E(RB3LYP) =  -668.097201448     A.U. after    9 cycles
 SCF Done:  E(RB3LYP) =  -668.097203473     A.U. after    9 cycles
 SCF Done:  E(RB3LYP) =  -668.097203832     A.U. after    9 cycles
 SCF Done:  E(RB3LYP) =  -668.097204035     A.U. after    8 cycles
 SCF Done:  E(RB3LYP) =  -668.097204060     A.U. after    7 cycles
 Optimization completed.
    -- Stationary point found.
 Normal termination of Gaussian 16 at Thu Dec 10 09:21:42 2020.

 --------------------------------------------------------------------
 #N Geom=AllCheck Guess=TCheck SCRF=Check GenChk RB3LYP/6-31G(d) Freq
 --------------------------------------------------------------------

 Structure from the checkpoint file:  "JID_4229.chk"
 -------------------------------
 CID_141034681_JID_4229_neutraal
 -------------------------------
 Charge =  0 Multiplicity = 1

 SCF Done:  E(RB3LYP) =  -668.097204060     A.U. after    1 cycles

  Exact polarizability: 186.220  12.364 120.396  -8.620   7.186  66.294
 Approx polarizability: 261.042  33.524 227.398 -19.103  15.505 100.452

                      1                      2                      3
                      A                      A                      A
 Frequencies --     33.8447                55.2861                73.9523
 Red. masses --      4.2640                 5.2390                 5.5517
 Frc consts  --      0.0029                 0.0094                 0.0179
 IR Inten    --      2.5483                 2.5358                 6.9637

                      4                      5                      6
                      A                      A                      A
 Frequencies --     85.6486               124.5440               145.8435
 Red. masses --      5.9016                 4.5206                 1.3866
 Frc consts  --      0.0255                 0.0413                 0.0174
 IR Inten    --      0.2850                 1.4491                 1.6643

                      7                      8                      9
                      A                      A                      A
 Frequencies --    153.0639               165.4475               247.3941
 Red. masses --      2.4231                 4.7663                 6.3986
 Frc consts  --      0.0334                 0.0769                 0.2307
 IR Inten    --      1.9839                 6.2770                 5.1381

                     10                     11                     12
                      A                      A                      A
 Frequencies --    270.6622               329.0712               371.2400
 Red. masses --      3.6691                 4.1919                 1.5708
 Frc consts  --      0.1584                 0.2674                 0.1276
 IR Inten    --      3.1324                 2.9339                62.8259

                     13                     14                     15
                      A                      A                      A
 Frequencies --    388.5211               422.9274               443.1534
 Red. masses --      2.6815                 3.1212                 2.8661
 Frc consts  --      0.2385                 0.3289                 0.3316
 IR Inten    --      5.2901                 5.0343                10.9198

                     16                     17                     18
                      A                      A                      A
 Frequencies --    483.1088               502.3377               540.8274
 Red. masses --      4.0017                 2.9251                 3.5553
 Frc consts  --      0.5503                 0.4349                 0.6127
 IR Inten    --      5.4788                28.2687                 7.8308

                     19                     20                     21
                      A                      A                      A
 Frequencies --    560.4364               592.0302               648.2467
 Red. masses --      3.1961                 3.9944                 7.0535
 Frc consts  --      0.5915                 0.8249                 1.7464
 IR Inten    --     10.1759               108.6221                 1.3183

                     22                     23                     24
                      A                      A                      A
 Frequencies --    662.9229               709.6215               751.9478
 Red. masses --      3.4844                 3.4124                 3.7923
 Frc consts  --      0.9022                 1.0124                 1.2634
 IR Inten    --     66.1957                33.7851                67.3814

                     25                     26                     27
                      A                      A                      A
 Frequencies --    768.1558               827.5147               838.9394
 Red. masses --      2.7071                 2.6561                 1.4273
 Frc consts  --      0.9411                 1.0716                 0.5919
 IR Inten    --     97.8150                27.3407                 5.0303

                     28                     29                     30
                      A                      A                      A
 Frequencies --    867.0040               889.0477               916.1646
 Red. masses --      1.7952                 2.6410                 1.8266
 Frc consts  --      0.7951                 1.2299                 0.9033
 IR Inten    --     24.3619               103.4607                26.7969

                     31                     32                     33
                      A                      A                      A
 Frequencies --    973.2273               981.5203               994.3826
 Red. masses --      1.4566                 2.1680                 1.3194
 Frc consts  --      0.8129                 1.2306                 0.7687
 IR Inten    --      5.8018                46.4004                 6.0220

                     34                     35                     36
                      A                      A                      A
 Frequencies --   1029.5134              1056.0066              1058.8870
 Red. masses --      2.7996                 2.7777                 2.4066
 Frc consts  --      1.7483                 1.8250                 1.5898
 IR Inten    --      5.0501                 7.1295                27.1727

                     37                     38                     39
                      A                      A                      A
 Frequencies --   1080.5995              1153.3085              1164.6230
 Red. masses --      2.2663                 1.3284                 1.3952
 Frc consts  --      1.5592                 1.0411                 1.1150
 IR Inten    --     24.3254                 5.6567                13.8725

                     40                     41                     42
                      A                      A                      A
 Frequencies --   1214.0657              1239.4926              1272.0340
 Red. masses --      1.3153                 2.0910                 1.4828
 Frc consts  --      1.1423                 1.8928                 1.4136
 IR Inten    --    185.6299               139.7419                90.4674

                     43                     44                     45
                      A                      A                      A
 Frequencies --   1298.7470              1323.1980              1347.0541
 Red. masses --      2.7333                 2.7186                 1.3220
 Frc consts  --      2.7164                 2.8045                 1.4134
 IR Inten    --      5.8793               165.6580                 2.1987

                     46                     47                     48
                      A                      A                      A
 Frequencies --   1369.7334              1416.2884              1417.4438
 Red. masses --      6.8486                 1.3024                 1.2841
 Frc consts  --      7.5705                 1.5392                 1.5200
 IR Inten    --     26.7476               115.2193                57.8798

                     49                     50                     51
                      A                      A                      A
 Frequencies --   1464.4142              1493.5170              1500.9478
 Red. masses --      2.3509                 1.0598                 1.0582
 Frc consts  --      2.9704                 1.3929                 1.4046
 IR Inten    --      2.7529                14.1891                 4.0908

                     52                     53                     54
                      A                      A                      A
 Frequencies --   1507.5409              1512.3150              1562.3289
 Red. masses --      1.1005                 1.4183                 2.4573
 Frc consts  --      1.4736                 1.9112                 3.5339
 IR Inten    --     15.3042                17.1872                15.7118

                     55                     56                     57
                      A                      A                      A
 Frequencies --   1629.7659              1667.2571              1751.8018
 Red. masses --      5.1209                 5.5345                11.3989
 Frc consts  --      8.0140                 9.0643                20.6103
 IR Inten    --     27.5126               267.4748               250.4776

                     58                     59                     60
                      A                      A                      A
 Frequencies --   1813.6863              3052.3714              3095.8425
 Red. masses --     10.0653                 1.0394                 1.0580
 Frc consts  --     19.5075                 5.7058                 5.9747
 IR Inten    --     86.4455                 3.1590                 2.9784

                     61                     62                     63
                      A                      A                      A
 Frequencies --   3115.4662              3159.2643              3171.3517
 Red. masses --      1.0957                 1.1072                 1.1040
 Frc consts  --      6.2660                 6.5110                 6.5421
 IR Inten    --      3.8638                 8.2064                 7.9601

                     64                     65                     66
                      A                      A                      A
 Frequencies --   3183.7770              3221.6808              3226.9292
 Red. masses --      1.0894                 1.0887                 1.0924
 Frc consts  --      6.5063                 6.6577                 6.7024
 IR Inten    --     12.6619                 0.4004                 2.3662

                     67                     68                     69
                      A                      A                      A
 Frequencies --   3243.4344              3514.6007              3722.2747
 Red. masses --      1.0927                 1.0763                 1.0685
 Frc consts  --      6.7728                 7.8334                 8.7226
 IR Inten    --      4.7640                10.3557                55.8466

 - Thermochemistry -
 -------------------
 Temperature   298.150 Kelvin.  Pressure   1.00000 Atm.
 Atom     1 has atomic number  6 and mass  12.00000

 Molecular mass:   193.07389 amu.
 Principal axes and moments of inertia in atomic units:
                           1         2         3
     Eigenvalues --  1087.276515513.610756258.48888
           X            0.99999   0.00314   0.00144
           Y           -0.00317   0.99981   0.01912
           Z           -0.00138  -0.01912   0.99982
 This molecule is an asymmetric top.
 Rotational symmetry number  1.
 Warning -- assumption of classical behavior for rotation
           may cause significant error
 Rotational temperatures (Kelvin)      0.07966     0.01571     0.01384
 Rotational constants (GHZ):           1.65987     0.32732     0.28837
 Zero-point vibrational energy     519595.6 (Joules/Mol)
                                  124.18633 (Kcal/Mol)
 Warning -- explicit consideration of  20 degrees of freedom as
           vibrations may cause significant error
 Vibrational temperatures:     48.69    79.54   106.40   123.23   179.19
          (Kelvin)            209.84   220.22   238.04   355.94   389.42
                              473.46   534.13   559.00   608.50   637.60
                              695.09   722.75   778.13   806.34   851.80
                              932.68   953.80  1020.99  1081.89  1105.20
                             1190.61  1207.05  1247.43  1279.14  1318.16
                             1400.26  1412.19  1430.69  1481.24  1519.36
                             1523.50  1554.74  1659.35  1675.63  1746.77
                             1783.35  1830.17  1868.61  1903.79  1938.11
                             1970.74  2037.72  2039.39  2106.97  2148.84
                             2159.53  2169.02  2175.88  2247.84  2344.87
                             2398.81  2520.45  2609.49  4391.68  4454.23
                             4482.46  4545.48  4562.87  4580.75  4635.28
                             4642.83  4666.58  5056.73  5355.52

 Zero-point correction=                           0.197904 (Hartree/Particle)
 Thermal correction to Energy=                    0.211394
 Thermal correction to Enthalpy=                  0.212338
 Thermal correction to Gibbs Free Energy=         0.156664
 Sum of electronic and zero-point Energies=           -667.899301
 Sum of electronic and thermal Energies=              -667.885810
 Sum of electronic and thermal Enthalpies=            -667.884866
 Sum of electronic and thermal Free Energies=         -667.940540

                     E (Thermal)             CV                S
                      KCal/Mol        Cal/Mol-Kelvin    Cal/Mol-Kelvin
 Total                  132.652             49.862            117.176
 Electronic               0.000              0.000              0.000
 Translational            0.889              2.981             41.679
 Rotational               0.889              2.981             31.995
 Vibrational            130.874             43.901             43.501
 Vibration     1          0.594              1.983              5.590
 Vibration     2          0.596              1.975              4.619
 Vibration     3          0.599              1.966              4.045
 Vibration     4          0.601              1.959              3.757
 Vibration     5          0.610              1.928              3.029
 Vibration     6          0.617              1.907              2.726
 Vibration     7          0.619              1.899              2.634
 Vibration     8          0.624              1.885              2.487
 Vibration     9          0.661              1.767              1.749
 Vibration    10          0.674              1.727              1.592
 Vibration    11          0.712              1.617              1.265
 Vibration    12          0.743              1.531              1.075
 Vibration    13          0.757              1.495              1.006
 Vibration    14          0.785              1.420              0.882
 Vibration    15          0.803              1.376              0.817
 Vibration    16          0.839              1.288              0.702
 Vibration    17          0.858              1.245              0.652
 Vibration    18          0.896              1.160              0.564
 Vibration    19          0.916              1.117              0.523
 Vibration    20          0.950              1.049              0.464

 Optimization completed.
    -- Stationary point found.
 Normal termination of Gaussian 16 at Thu Dec 10 09:27:21 2020.

 ----------------------------------------------------------------------
 # B3LYP/6-311++G(d,p) empiricaldispersion=gd3bj scf=xqc pop=npa geom=c
 heck
 ----------------------------------------------------------------------

 ---------------------------------------
 CID_141034681_JID_4229_Energie_neutraal
 ---------------------------------------
 Structure from the checkpoint file:  "JID_4229.chk"
 Charge =  0 Multiplicity = 1

 SCF Done:  E(RB3LYP) =  -668.297881556     A.U. after   15 cycles
 Normal termination of Gaussian 16 at Thu Dec 10 09:29:48 2020.

 ----------------------------------------------------------------------
 # B3LYP/6-311++G(d,p) empiricaldispersion=gd3bj scf=xqc pop=npa geom=c
 heck
 ----------------------------------------------------------------------

 -------------------------------------
 CID_141034681_JID_4229_Energie_kation
 -------------------------------------
 Structure from the checkpoint file:  "JID_4229.chk"
 Charge =  1 Multiplicity = 2

 SCF Done:  E(UB3LYP) =  -667.994449369     A.U. after   27 cycles
 Normal termination of Gaussian 16 at Thu Dec 10 09:35:56 2020.
 Gaussian 16:  ES64L-G16RevA.03 25-Dec-2016

 ----------------------------------------------------------------------
 # B3LYP/6-311++G(d,p) empiricaldispersion=gd3bj scf=xqc pop=npa geom=c
 heck
 ----------------------------------------------------------------------

 ------------------------------------
 CID_141034681_JID_4229_Energie_anion
 ------------------------------------
 Structure from the checkpoint file:  "JID_4229.chk"
 Charge = -1 Multiplicity = 2

                         Standard orientation:
 ---------------------------------------------------------------------
 Center     Atomic      Atomic             Coordinates (Angstroms)
 Number     Number       Type             X           Y           Z
 ---------------------------------------------------------------------
      1          6           0        4.129883   -0.123973    1.039481
      2          6           0        3.146485   -0.787888    0.102165
      3          8           0        2.807765   -1.950757    0.212309
      4          6           0        2.570174    0.109793   -0.996080
      5          6           0        1.490430    1.032782   -0.408129
      6          8           0        1.800346    2.162505   -0.051980
      7          6           0        0.112828    0.512634   -0.265509
      8          6           0       -0.902980    1.409982    0.106061
      9          6           0       -2.213826    0.989793    0.261286
     10          6           0       -2.537384   -0.360713    0.055854
     11          6           0       -1.530155   -1.270229   -0.307761
     12          6           0       -0.222448   -0.837802   -0.468607
     13          7           0       -3.830608   -0.852713    0.288047
     14          8           0       -4.849462    0.129102    0.137881
     15          1           0        4.310059   -0.758003    1.909470
     16          1           0        3.758758    0.861006    1.343495
     17          1           0        5.077817    0.043708    0.511764
     18          1           0        3.351061    0.766541   -1.388290
     19          1           0        2.174931   -0.520612   -1.794463
     20          1           0       -0.635033    2.449323    0.263881
     21          1           0       -2.998114    1.688541    0.523754
     22          1           0       -1.776858   -2.319141   -0.452172
     23          1           0        0.544196   -1.562843   -0.718270
     24          1           0       -4.072331   -1.618043   -0.337034
     25          1           0       -5.247455    0.165436    1.023276
 ---------------------------------------------------------------------

 SCF Done:  E(UB3LYP) =  -668.315063399     A.U. after   30 cycles

 The electronic state is 2-A.
 Alpha  occ. eigenvalues --  -19.05895 -18.96977 -18.92629 -14.25675 -10.11690
 Alpha  occ. eigenvalues --  -10.07436 -10.07240 -10.04747 -10.04047 -10.03583
 Alpha  occ. eigenvalues --  -10.03329 -10.03297 -10.02777 -10.02228  -0.97524
 Alpha  occ. eigenvalues --   -0.90567  -0.86696  -0.76309  -0.69904  -0.64057
 Alpha  occ. eigenvalues --   -0.61441  -0.60363  -0.57817  -0.49083  -0.48085
 Alpha  occ. eigenvalues --   -0.42104  -0.41565  -0.40804  -0.39336  -0.35815
 Alpha  occ. eigenvalues --   -0.34103  -0.33215  -0.32506  -0.30980  -0.30551
 Alpha  occ. eigenvalues --   -0.29618  -0.28977  -0.26770  -0.25866  -0.25577
 Alpha  occ. eigenvalues --   -0.25109  -0.23037  -0.22382  -0.22144  -0.20960
 Alpha  occ. eigenvalues --   -0.20175  -0.17501  -0.12468  -0.11932  -0.09123
 Alpha  occ. eigenvalues --   -0.08893   0.03879
 Alpha virt. eigenvalues --    0.06623   0.08871   0.08981   0.10769   0.10899
 Alpha virt. eigenvalues --    0.11722   0.11744   0.12272   0.12884   0.13385
 Alpha virt. eigenvalues --    0.13990   0.14734   0.15754   0.15888   0.16324

  Beta  occ. eigenvalues --  -19.05840 -18.96814 -18.92146 -14.25635 -10.11508
  Beta  occ. eigenvalues --  -10.07093 -10.06947 -10.04762 -10.04126 -10.03671
  Beta  occ. eigenvalues --  -10.03377 -10.03167 -10.02599 -10.02214  -0.97380
  Beta  occ. eigenvalues --   -0.90246  -0.85804  -0.76068  -0.69716  -0.63766
  Beta  occ. eigenvalues --   -0.61273  -0.60073  -0.57685  -0.48625  -0.47896
  Beta  occ. eigenvalues --   -0.41756  -0.41333  -0.40637  -0.38970  -0.35524
  Beta  occ. eigenvalues --   -0.33811  -0.32967  -0.32321  -0.30815  -0.30371
  Beta  occ. eigenvalues --   -0.29354  -0.28934  -0.26442  -0.25493  -0.25297
  Beta  occ. eigenvalues --   -0.24563  -0.22495  -0.21774  -0.21018  -0.20431
  Beta  occ. eigenvalues --   -0.19882  -0.16549  -0.11990  -0.11694  -0.08541
  Beta  occ. eigenvalues --   -0.08009
  Beta virt. eigenvalues --    0.06734   0.08645   0.08965   0.09667   0.10834
  Beta virt. eigenvalues --    0.11339   0.11892   0.12358   0.12635   0.13164
  Beta virt. eigenvalues --    0.13369   0.13998   0.14683   0.15723   0.15940

 Mulliken charges and spin densities:
               1          2
     1  C   -0.571100  -0.018564
     2  C    0.038009   0.082096
     3  O   -0.312219   0.059470
     4  C    0.097064  -0.069875
     5  C   -0.387623   0.283837
     6  O   -0.370242   0.179767
     7  C    1.111428  -0.081915
     8  C    0.286745   0.174608
     9  C   -0.271375   0.051820
    10  C   -0.146465   0.105598
    11  C   -0.452408  -0.135289
    12  C   -1.190595   0.071618
    13  N   -0.314016   0.017307
    14  O   -0.130062  -0.003147
    15  H    0.126940   0.002487
    16  H    0.195856   0.001082
    17  H    0.107385   0.025173
    18  H    0.126008   0.073393
    19  H    0.102227   0.063889
    20  H    0.174089  -0.011177
    21  H    0.105306   0.034621
    22  H    0.122069   0.003179
    23  H    0.145396  -0.008601
    24  H    0.254823   0.001455
    25  H    0.152762   0.097168
 Sum of Mulliken charges =  -1.00000   1.00000

 Dipole moment (field-independent basis, Debye):
    X=             -2.8476    Y=             -1.8051    Z=             -0.0254  Tot=              3.3716
 Quadrupole moment (field-independent basis, Debye-Ang):
   XX=           -117.1055   YY=           -106.7856   ZZ=            -90.4176
   XY=              3.4153   XZ=             -2.9882   YZ=              3.8247

 Summary of Natural Population Analysis:

                                       Natural Population
                Natural  -----------------------------------------------
    Atom  No    Charge         Core      Valence    Rydberg      Total
 -----------------------------------------------------------------------
      C    1   -0.33643      0.99962     2.33264    0.00418     3.33643
      C    2    0.31290      0.99969     1.66587    0.02154     2.68710
      O    3   -0.28632      0.99987     3.27911    0.00734     4.28632
      C    4   -0.27696      0.99956     2.26755    0.00985     3.27696
      C    5    0.31528      0.99961     1.66495    0.02017     2.68472
      O    6   -0.26154      0.99988     3.25545    0.00621     4.26154
      C    7   -0.08436      0.99947     2.07417    0.01072     3.08436
      C    8   -0.03277      0.99955     2.02461    0.00861     3.03277
      C    9   -0.15302      0.99953     2.14424    0.00926     3.15302
      C   10    0.11791      0.99948     1.86946    0.01315     2.88209
      C   11   -0.15047      0.99953     2.14267    0.00827     3.15047
      C   12   -0.05401      0.99955     2.04695    0.00751     3.05401
      N   13   -0.16217      0.99964     2.64793    0.01459     3.66217
      O   14   -0.28922      0.99990     3.28143    0.00789     4.28922
      H   15    0.10122      0.00000     0.39766    0.00113     0.39878
      H   16    0.11829      0.00000     0.38075    0.00096     0.38171
      H   17    0.10302      0.00000     0.39607    0.00092     0.39698
      H   18    0.10854      0.00000     0.38937    0.00210     0.39146
      H   19    0.10752      0.00000     0.39069    0.00178     0.39248
      H   20    0.10495      0.00000     0.39395    0.00110     0.39505
      H   21    0.10149      0.00000     0.39721    0.00130     0.39851
      H   22    0.09169      0.00000     0.40695    0.00136     0.40831
      H   23    0.10760      0.00000     0.39083    0.00157     0.39240
      H   24    0.16940      0.00000     0.32828    0.00232     0.33060
      H   25    0.22747      0.00000     0.26928    0.00325     0.27253
 =======================================================================
   * Total *    0.00000     13.99488    36.83806    0.16706    51.00000

 Normal termination of Gaussian 16 at Thu Dec 10 09:42:42 2020.
