 Gaussian 16, Revision A.03,

 -----------------------------------------------------------
 # opt freq B3LYP/6-31G(d) empiricaldispersion=gd3bj scf=xqc
 -----------------------------------------------------------

 ------------------------------
 CID_81538392_JID_6437_neutraal
 ------------------------------
 Symbolic Z-matrix:
 Charge =  0 Multiplicity = 1

 SCF Done:  E(RB3LYP) =  -668.704295599     A.U. after   15 cycles
 SCF Done:  E(RB3LYP) =  -668.707865840     A.U. after   12 cycles
 SCF Done:  E(RB3LYP) =  -668.708085301     A.U. after   11 cycles
 SCF Done:  E(RB3LYP) =  -668.708314355     A.U. after   11 cycles
 SCF Done:  E(RB3LYP) =  -668.708387030     A.U. after   11 cycles
 SCF Done:  E(RB3LYP) =  -668.708444813     A.U. after   11 cycles
 SCF Done:  E(RB3LYP) =  -668.708469858     A.U. after   11 cycles
 SCF Done:  E(RB3LYP) =  -668.708491397     A.U. after   11 cycles
 SCF Done:  E(RB3LYP) =  -668.708512914     A.U. after   11 cycles
 SCF Done:  E(RB3LYP) =  -668.708529474     A.U. after   11 cycles
 SCF Done:  E(RB3LYP) =  -668.708744062     A.U. after   11 cycles
 SCF Done:  E(RB3LYP) =  -668.708748912     A.U. after   10 cycles
 SCF Done:  E(RB3LYP) =  -668.708749823     A.U. after   10 cycles
 SCF Done:  E(RB3LYP) =  -668.708750437     A.U. after    9 cycles
 SCF Done:  E(RB3LYP) =  -668.708750509     A.U. after    8 cycles
 Optimization completed.
    -- Stationary point found.
 Normal termination of Gaussian 16 at Thu Dec 10 23:05:59 2020.

 --------------------------------------------------------------------
 #N Geom=AllCheck Guess=TCheck SCRF=Check GenChk RB3LYP/6-31G(d) Freq
 --------------------------------------------------------------------

 Structure from the checkpoint file:  "JID_6437.chk"
 ------------------------------
 CID_81538392_JID_6437_neutraal
 ------------------------------
 Charge =  0 Multiplicity = 1

 SCF Done:  E(RB3LYP) =  -668.708750509     A.U. after    1 cycles

  Exact polarizability: 215.805  -2.867 157.272   3.793  -6.784  81.546
 Approx polarizability: 295.862   3.896 264.539   8.185 -14.222 127.259

                      1                      2                      3
                      A                      A                      A
 Frequencies --     17.3715                55.0912                77.8139
 Red. masses --      3.8817                 3.2358                 3.9012
 Frc consts  --      0.0007                 0.0058                 0.0139
 IR Inten    --      0.0188                 0.0835                 0.8238

                      4                      5                      6
                      A                      A                      A
 Frequencies --     89.4504               119.9870               126.0645
 Red. masses --      4.2858                 3.0791                 3.1365
 Frc consts  --      0.0202                 0.0261                 0.0294
 IR Inten    --      2.6213                 0.5784                 1.1297

                      7                      8                      9
                      A                      A                      A
 Frequencies --    168.6497               193.3746               225.1615
 Red. masses --      3.5426                 3.0745                 1.1484
 Frc consts  --      0.0594                 0.0677                 0.0343
 IR Inten    --      0.5009                 0.8261                 0.2185

                     10                     11                     12
                      A                      A                      A
 Frequencies --    278.3115               317.2834               332.0662
 Red. masses --      4.0519                 4.8147                 3.5486
 Frc consts  --      0.1849                 0.2856                 0.2305
 IR Inten    --      2.8332                 0.6584                 1.0494

                     13                     14                     15
                      A                      A                      A
 Frequencies --    378.0898               409.3401               418.0073
 Red. masses --      3.2649                 4.0016                 4.5068
 Frc consts  --      0.2750                 0.3951                 0.4640
 IR Inten    --      2.1833                 1.4122                 0.8554

                     16                     17                     18
                      A                      A                      A
 Frequencies --    484.8282               520.1600               523.7966
 Red. masses --      3.4381                 3.9980                 1.8273
 Frc consts  --      0.4762                 0.6373                 0.2954
 IR Inten    --      9.4571                 2.8039                39.9411

                     19                     20                     21
                      A                      A                      A
 Frequencies --    549.2093               583.9438               663.1355
 Red. masses --      2.2074                 3.6247                 4.0304
 Frc consts  --      0.3923                 0.7282                 1.0442
 IR Inten    --     29.3723                 2.3518                 1.9232

                     22                     23                     24
                      A                      A                      A
 Frequencies --    707.7946               726.8958               754.7203
 Red. masses --      3.4760                 3.6785                 4.0470
 Frc consts  --      1.0260                 1.1452                 1.3582
 IR Inten    --      8.2009                20.0521                 5.4950

                     25                     26                     27
                      A                      A                      A
 Frequencies --    770.1132               799.4011               802.2436
 Red. masses --      1.5900                 1.5080                 2.8393
 Frc consts  --      0.5556                 0.5678                 1.0767
 IR Inten    --     28.3514                 3.6785                 3.5037

                     28                     29                     30
                      A                      A                      A
 Frequencies --    805.6973               811.0176               830.5544
 Red. masses --      1.3460                 1.6538                 1.6498
 Frc consts  --      0.5148                 0.6409                 0.6705
 IR Inten    --      4.4586                 3.9379                 7.3771

                     31                     32                     33
                      A                      A                      A
 Frequencies --    893.0803               919.3288               923.6712
 Red. masses --      1.4285                 2.9197                 3.7000
 Frc consts  --      0.6713                 1.4539                 1.8599
 IR Inten    --      0.1383                 0.1107                20.4172

                     34                     35                     36
                      A                      A                      A
 Frequencies --    958.7799               985.0233               986.5669
 Red. masses --      1.3598                 2.1608                 1.3882
 Frc consts  --      0.7365                 1.2352                 0.7961
 IR Inten    --      1.4731                 1.1207                 0.3404

                     37                     38                     39
                      A                      A                      A
 Frequencies --    995.9586              1051.7928              1064.2506
 Red. masses --      6.9195                 2.7444                 2.3375
 Frc consts  --      4.0440                 1.7888                 1.5598
 IR Inten    --      5.3863                30.1838                 4.6167

                     40                     41                     42
                      A                      A                      A
 Frequencies --   1078.1420              1090.0082              1097.0640
 Red. masses --      1.2844                 2.1519                 1.8937
 Frc consts  --      0.8796                 1.5064                 1.3429
 IR Inten    --     11.6994                10.9943                 6.3344

                     43                     44                     45
                      A                      A                      A
 Frequencies --   1098.4271              1105.4391              1126.1699
 Red. masses --      1.3383                 2.4950                 1.1079
 Frc consts  --      0.9513                 1.7963                 0.8279
 IR Inten    --      3.7887                 3.9414                 2.2663

                     46                     47                     48
                      A                      A                      A
 Frequencies --   1133.5196              1166.5834              1191.9534
 Red. masses --      1.9935                 1.7256                 3.7103
 Frc consts  --      1.5091                 1.3836                 3.1059
 IR Inten    --     24.4503                 2.7072                15.5613

                     49                     50                     51
                      A                      A                      A
 Frequencies --   1198.6406              1219.4073              1229.1748
 Red. masses --      1.1142                 1.3607                 2.6166
 Frc consts  --      0.9432                 1.1921                 2.3293
 IR Inten    --      0.5878                 0.6076                 2.2873

                     52                     53                     54
                      A                      A                      A
 Frequencies --   1231.9272              1253.0656              1283.5297
 Red. masses --      2.2773                 1.9622                 1.4157
 Frc consts  --      2.0363                 1.8152                 1.3742
 IR Inten    --      0.5132                 8.7870                 1.1628

                     55                     56                     57
                      A                      A                      A
 Frequencies --   1321.1023              1366.3185              1374.7883
 Red. masses --      1.9352                 2.5326                 1.5992
 Frc consts  --      1.9900                 2.7856                 1.7808
 IR Inten    --      0.7323                 3.9881                11.5098

                     58                     59                     60
                      A                      A                      A
 Frequencies --   1375.8206              1426.0143              1427.3044
 Red. masses --      2.5654                 1.9966                 1.2242
 Frc consts  --      2.8611                 2.3922                 1.4694
 IR Inten    --     45.8564                 4.7718                 3.4846

                     61                     62                     63
                      A                      A                      A
 Frequencies --   1462.3746              1484.6778              1495.6882
 Red. masses --      2.9191                 1.0883                 3.0099
 Frc consts  --      3.6781                 1.4135                 3.9672
 IR Inten    --     26.9386                 2.6919                45.4356

                     64                     65                     66
                      A                      A                      A
 Frequencies --   1503.9550              1517.0038              1526.3095
 Red. masses --      2.2081                 1.0817                 1.0750
 Frc consts  --      2.9426                 1.4667                 1.4755
 IR Inten    --     24.1667                 9.7609                 8.5532

                     67                     68                     69
                      A                      A                      A
 Frequencies --   1534.6497              1540.3645              1558.3140
 Red. masses --      1.7114                 1.0755                 3.3361
 Frc consts  --      2.3747                 1.5035                 4.7731
 IR Inten    --      3.9553                 5.2947                 9.2171

                     70                     71                     72
                      A                      A                      A
 Frequencies --   1606.1963              1634.4773              1666.8427
 Red. masses --      5.0744                 6.2841                 5.6626
 Frc consts  --      7.7131                 9.8913                 9.2694
 IR Inten    --     97.7094                 3.9431                 0.3109

                     73                     74                     75
                      A                      A                      A
 Frequencies --   3046.9662              3050.7092              3106.6070
 Red. masses --      1.0498                 1.0570                 1.1018
 Frc consts  --      5.7425                 5.7962                 6.2648
 IR Inten    --     34.6614                43.1260                27.3084

                     76                     77                     78
                      A                      A                      A
 Frequencies --   3133.8326              3148.5123              3157.7825
 Red. masses --      1.0922                 1.1008                 1.0507
 Frc consts  --      6.3198                 6.4292                 6.1727
 IR Inten    --     20.0152                24.0292                14.7499

                     79                     80                     81
                      A                      A                      A
 Frequencies --   3159.6909              3173.4833              3174.2027
 Red. masses --      1.0585                 1.0866                 1.0895
 Frc consts  --      6.2261                 6.4474                 6.4676
 IR Inten    --     11.5903                 9.4879                13.8702

                     82                     83                     84
                      A                      A                      A
 Frequencies --   3188.9363              3204.0964              3223.8193
 Red. masses --      1.0890                 1.0948                 1.0934
 Frc consts  --      6.5246                 6.6224                 6.6951
 IR Inten    --     16.3405                35.9228                 8.1185

                     85                     86                     87
                      A                      A                      A
 Frequencies --   3241.9037              3254.7451              3654.3656
 Red. masses --      1.1202                 1.1169                 1.0814
 Frc consts  --      6.9368                 6.9713                 8.5090
 IR Inten    --      0.5273                11.8565                70.6834

 - Thermochemistry -
 -------------------
 Temperature   298.150 Kelvin.  Pressure   1.00000 Atm.
 Atom     1 has atomic number  6 and mass  12.00000

 Molecular mass:   213.12660 amu.
 Principal axes and moments of inertia in atomic units:
                           1         2         3
     Eigenvalues --  1717.976605276.880646690.51545
           X            0.99999  -0.00368   0.00009
           Y            0.00368   0.99999  -0.00184
           Z           -0.00009   0.00184   1.00000
 This molecule is an asymmetric top.
 Rotational symmetry number  1.
 Warning -- assumption of classical behavior for rotation
           may cause significant error
 Rotational temperatures (Kelvin)      0.05042     0.01641     0.01295
 Rotational constants (GHZ):           1.05050     0.34201     0.26975
 Zero-point vibrational energy     685238.5 (Joules/Mol)
                                  163.77593 (Kcal/Mol)
 Warning -- explicit consideration of  20 degrees of freedom as
           vibrations may cause significant error
 Vibrational temperatures:     24.99    79.26   111.96   128.70   172.63
          (Kelvin)            181.38   242.65   278.22   323.96   400.43
                              456.50   477.77   543.99   588.95   601.42
                              697.56   748.39   753.63   790.19   840.16
                              954.10  1018.36  1045.84  1085.87  1108.02
                             1150.16  1154.25  1159.22  1166.87  1194.98
                             1284.94  1322.71  1328.96  1379.47  1417.23
                             1419.45  1432.96  1513.30  1531.22  1551.21
                             1568.28  1578.43  1580.39  1590.48  1620.31
                             1630.88  1678.45  1714.96  1724.58  1754.46
                             1768.51  1772.47  1802.88  1846.71  1900.77
                             1965.83  1978.01  1979.50  2051.72  2053.57
                             2104.03  2136.12  2151.96  2163.86  2182.63
                             2196.02  2208.02  2216.24  2242.07  2310.96
                             2351.65  2398.21  4383.90  4389.29  4469.71
                             4508.89  4530.01  4543.34  4546.09  4565.93
                             4566.97  4588.17  4609.98  4638.36  4664.38
                             4682.85  5257.82

 Zero-point correction=                           0.260994 (Hartree/Particle)
 Thermal correction to Energy=                    0.275007
 Thermal correction to Enthalpy=                  0.275951
 Thermal correction to Gibbs Free Energy=         0.218685
 Sum of electronic and zero-point Energies=           -668.447757
 Sum of electronic and thermal Energies=              -668.433744
 Sum of electronic and thermal Enthalpies=            -668.432800
 Sum of electronic and thermal Free Energies=         -668.490066

                     E (Thermal)             CV                S
                      KCal/Mol        Cal/Mol-Kelvin    Cal/Mol-Kelvin
 Total                  172.569             54.213            120.526
 Electronic               0.000              0.000              0.000
 Translational            0.889              2.981             41.974
 Rotational               0.889              2.981             32.472
 Vibrational            170.792             48.252             46.080
 Vibration     1          0.593              1.986              6.914
 Vibration     2          0.596              1.976              4.626
 Vibration     3          0.599              1.964              3.945
 Vibration     4          0.602              1.957              3.672
 Vibration     5          0.609              1.933              3.101
 Vibration     6          0.611              1.927              3.005
 Vibration     7          0.625              1.881              2.450
 Vibration     8          0.635              1.849              2.195
 Vibration     9          0.650              1.803              1.917
 Vibration    10          0.679              1.714              1.544
 Vibration    11          0.704              1.641              1.324
 Vibration    12          0.714              1.611              1.250
 Vibration    13          0.748              1.517              1.047
 Vibration    14          0.774              1.450              0.929
 Vibration    15          0.781              1.431              0.899
 Vibration    16          0.841              1.284              0.697
 Vibration    17          0.875              1.205              0.610
 Vibration    18          0.879              1.197              0.601
 Vibration    19          0.904              1.141              0.546
 Vibration    20          0.941              1.066              0.478

 Optimization completed.
    -- Stationary point found.
 Normal termination of Gaussian 16 at Thu Dec 10 23:16:50 2020.

 ----------------------------------------------------------------------
 # B3LYP/6-311++G(d,p) empiricaldispersion=gd3bj scf=xqc pop=npa geom=c
 heck
 ----------------------------------------------------------------------

 --------------------------------------
 CID_81538392_JID_6437_Energie_neutraal
 --------------------------------------
 Structure from the checkpoint file:  "JID_6437.chk"
 Charge =  0 Multiplicity = 1

 SCF Done:  E(RB3LYP) =  -668.881252877     A.U. after   15 cycles
 Normal termination of Gaussian 16 at Thu Dec 10 23:21:59 2020.

 ----------------------------------------------------------------------
 # B3LYP/6-311++G(d,p) empiricaldispersion=gd3bj scf=xqc pop=npa geom=c
 heck
 ----------------------------------------------------------------------

 ------------------------------------
 CID_81538392_JID_6437_Energie_kation
 ------------------------------------
 Structure from the checkpoint file:  "JID_6437.chk"
 Charge =  1 Multiplicity = 2

 SCF Done:  E(UB3LYP) =  -668.593868054     A.U. after   25 cycles
 Normal termination of Gaussian 16 at Thu Dec 10 23:34:08 2020.
 Gaussian 16:  ES64L-G16RevA.03 25-Dec-2016

 ----------------------------------------------------------------------
 # B3LYP/6-311++G(d,p) empiricaldispersion=gd3bj scf=xqc pop=npa geom=c
 heck
 ----------------------------------------------------------------------

 -----------------------------------
 CID_81538392_JID_6437_Energie_anion
 -----------------------------------
 Structure from the checkpoint file:  "JID_6437.chk"
 Charge = -1 Multiplicity = 2

                         Standard orientation:
 ---------------------------------------------------------------------
 Center     Atomic      Atomic             Coordinates (Angstroms)
 Number     Number       Type             X           Y           Z
 ---------------------------------------------------------------------
      1          6           0        0.495289    2.744927    0.563662
      2          6           0        0.973428    1.969552   -0.673987
      3          6           0        1.864660    0.799784   -0.313895
      4          6           0        3.245202    1.031724   -0.234772
      5          6           0        4.149122    0.028428    0.099883
      6          6           0        3.678573   -1.258840    0.362648
      7          6           0        2.315532   -1.515070    0.293035
      8          6           0        1.394813   -0.504037   -0.037090
      9          6           0       -0.027455   -0.886933   -0.090347
     10          7           0       -0.395845   -2.163531   -0.219140
     11          7           0       -1.751943   -2.078711   -0.187352
     12          6           0       -2.155892   -0.794101   -0.051157
     13          7           0       -1.085190   -0.016579    0.015072
     14          6           0       -3.557322   -0.358073    0.015270
     15          6           0       -3.905288    0.826917    0.899416
     16          6           0       -3.926418    0.985484   -0.588975
     17          1           0       -0.112288    2.096970    1.200267
     18          1           0       -0.114897    3.606711    0.268298
     19          1           0        1.345927    3.112940    1.148838
     20          1           0        0.101754    1.629732   -1.236409
     21          1           0        1.542293    2.645734   -1.324532
     22          1           0        3.611550    2.032719   -0.450877
     23          1           0        5.212073    0.248109    0.150794
     24          1           0        4.368190   -2.056617    0.623433
     25          1           0        1.934076   -2.509604    0.496832
     26          1           0       -2.306204   -2.918044   -0.274501
     27          1           0       -4.291274   -1.156072   -0.059157
     28          1           0       -4.848635    0.788177    1.435988
     29          1           0       -3.078756    1.274467    1.441749
     30          1           0       -3.114053    1.539883   -1.047620
     31          1           0       -4.884367    1.058080   -1.095301
 ---------------------------------------------------------------------

 SCF Done:  E(UB3LYP) =  -668.872023841     A.U. after   33 cycles
 SCF Done:  E(UB3LYP) =  -668.872023841     a.u. after    1 cycles

 The electronic state is 2-A.
 Alpha  occ. eigenvalues --  -14.27825 -14.21894 -14.18948 -10.13723 -10.11244
 Alpha  occ. eigenvalues --  -10.08994 -10.07852 -10.07793 -10.07765 -10.07496
 Alpha  occ. eigenvalues --  -10.07062 -10.06899 -10.06827 -10.06810 -10.06454
 Alpha  occ. eigenvalues --  -10.06066  -0.96274  -0.79081  -0.77148  -0.75450
 Alpha  occ. eigenvalues --   -0.71884  -0.68547  -0.64611  -0.62302  -0.55915
 Alpha  occ. eigenvalues --   -0.54338  -0.52486  -0.50560  -0.49121  -0.48609
 Alpha  occ. eigenvalues --   -0.46584  -0.43495  -0.39953  -0.38615  -0.37854
 Alpha  occ. eigenvalues --   -0.36004  -0.35802  -0.34958  -0.33042  -0.32238
 Alpha  occ. eigenvalues --   -0.31503  -0.29729  -0.28584  -0.27306  -0.27211
 Alpha  occ. eigenvalues --   -0.25607  -0.25492  -0.23725  -0.23621  -0.22713
 Alpha  occ. eigenvalues --   -0.22493  -0.20485  -0.19761  -0.16969  -0.16161
 Alpha  occ. eigenvalues --   -0.14703  -0.12210   0.04586
 Alpha virt. eigenvalues --    0.06141   0.06886   0.07640   0.08107   0.08795
 Alpha virt. eigenvalues --    0.08983   0.09194   0.09978   0.10561   0.11051
 Alpha virt. eigenvalues --    0.11633   0.11983   0.12974   0.13239   0.13449

  Beta  occ. eigenvalues --  -14.27742 -14.21775 -14.18927 -10.13738 -10.11228
  Beta  occ. eigenvalues --  -10.08955 -10.07827 -10.07782 -10.07753 -10.07405
  Beta  occ. eigenvalues --  -10.07079 -10.06889 -10.06829 -10.06698 -10.06408
  Beta  occ. eigenvalues --  -10.06061  -0.96155  -0.78986  -0.77054  -0.75352
  Beta  occ. eigenvalues --   -0.71752  -0.68488  -0.64422  -0.62242  -0.55839
  Beta  occ. eigenvalues --   -0.54177  -0.52422  -0.50522  -0.49031  -0.48541
  Beta  occ. eigenvalues --   -0.46489  -0.43422  -0.39890  -0.38539  -0.37791
  Beta  occ. eigenvalues --   -0.35875  -0.35692  -0.34851  -0.32995  -0.32198
  Beta  occ. eigenvalues --   -0.31451  -0.29646  -0.28505  -0.27254  -0.27165
  Beta  occ. eigenvalues --   -0.25528  -0.25301  -0.23667  -0.23573  -0.22578
  Beta  occ. eigenvalues --   -0.22420  -0.20428  -0.19432  -0.16895  -0.15839
  Beta  occ. eigenvalues --   -0.14461  -0.11721
  Beta virt. eigenvalues --    0.06776   0.07371   0.07648   0.08031   0.08857
  Beta virt. eigenvalues --    0.09072   0.09224   0.09444   0.10124   0.10765
  Beta virt. eigenvalues --    0.11399   0.11826   0.12041   0.13152   0.13383

 Mulliken charges and spin densities:
               1          2
     1  C   -0.684627  -0.011491
     2  C   -0.276046  -0.039008
     3  C    0.711269  -0.014628
     4  C   -0.436558  -0.024001
     5  C   -0.342018   0.111341
     6  C   -0.544929  -0.025138
     7  C   -0.294087   0.044348
     8  C    0.491330   0.106939
     9  C   -0.816735   0.390256
    10  N   -0.111302   0.087874
    11  N    0.032827  -0.141958
    12  C    1.092427  -0.790810
    13  N   -0.025794  -0.060732
    14  C    0.062953  -0.057671
    15  C    0.640323  -1.089189
    16  C    0.575542  -1.062857
    17  H    0.157623   0.000241
    18  H    0.108778  -0.001285
    19  H    0.110219   0.005847
    20  H    0.168467   0.005585
    21  H    0.141208  -0.000650
    22  H    0.115918   0.000593
    23  H    0.124210  -0.007833
    24  H    0.124839  -0.000522
    25  H    0.180204   0.016494
    26  H   -0.241758   0.598629
    27  H   -1.777616   2.075020
    28  H   -0.200399   0.363601
    29  H    0.077729   0.055060
    30  H    0.132260   0.003128
    31  H   -0.296256   0.462818
 Sum of Mulliken charges =  -1.00000   1.00000

 Dipole moment (field-independent basis, Debye):
    X=             10.3983    Y=              6.0229    Z=              0.3584  Tot=             12.0220
 Quadrupole moment (field-independent basis, Debye-Ang):
   XX=           -193.9233   YY=           -132.2500   ZZ=           -114.9186
   XY=            -19.2942   XZ=             -0.8189   YZ=             -3.1699

 Summary of Natural Population Analysis:

                                       Natural Population
                Natural  -----------------------------------------------
    Atom  No    Charge         Core      Valence    Rydberg      Total
 -----------------------------------------------------------------------
      C    1   -0.27979      0.99966     2.27615    0.00398     3.27979
      C    2   -0.19954      0.99961     2.19248    0.00745     3.19954
      C    3    0.00514      0.99949     1.98665    0.00872     2.99486
      C    4   -0.10641      0.99953     2.09791    0.00898     3.10641
      C    5   -0.08573      0.99957     2.07665    0.00951     3.08573
      C    6   -0.11451      0.99957     2.10601    0.00893     3.11451
      C    7   -0.07507      0.99955     2.06772    0.00781     3.07507
      C    8   -0.02894      0.99944     2.01947    0.01004     3.02894
      C    9    0.16772      0.99960     1.81389    0.01878     2.83228
      N   10   -0.15048      0.99970     2.63924    0.01154     3.65048
      N   11   -0.16642      0.99964     2.65388    0.01290     3.66642
      C   12    0.19542      0.99960     1.78778    0.01720     2.80458
      N   13   -0.28093      0.99968     2.77298    0.00827     3.78093
      C   14   -0.14080      0.99957     2.12712    0.01411     3.14080
      C   15   -0.18792      0.99962     2.17890    0.00939     3.18792
      C   16   -0.18827      0.99962     2.17919    0.00945     3.18827
      H   17    0.10873      0.00000     0.39040    0.00087     0.39127
      H   18    0.09164      0.00000     0.40745    0.00091     0.40836
      H   19    0.09034      0.00000     0.40869    0.00097     0.40966
      H   20    0.11285      0.00000     0.38613    0.00102     0.38715
      H   21    0.09033      0.00000     0.40846    0.00121     0.40967
      H   22    0.09290      0.00000     0.40606    0.00104     0.40710
      H   23    0.09228      0.00000     0.40671    0.00101     0.40772
      H   24    0.09494      0.00000     0.40413    0.00092     0.40506
      H   25    0.10850      0.00000     0.39041    0.00110     0.39150
      H   26    0.20821      0.00000     0.28524    0.00655     0.29179
      H   27    0.12125      0.00000     0.36158    0.01717     0.37875
      H   28    0.10508      0.00000     0.39387    0.00105     0.39492
      H   29    0.10707      0.00000     0.39179    0.00114     0.39293
      H   30    0.10672      0.00000     0.39219    0.00109     0.39328
      H   31    0.10568      0.00000     0.39312    0.00120     0.39432
 =======================================================================
   * Total *   -0.00000     15.99346    40.80224    0.20430    57.00000

 Normal termination of Gaussian 16 at Thu Dec 10 23:50:24 2020.
