 Gaussian 16, Revision A.03,

 -----------------------------------------------------------
 # opt freq B3LYP/6-31G(d) empiricaldispersion=gd3bj scf=xqc
 -----------------------------------------------------------

 -----------------------------
 CID_17801157_JID_711_neutraal
 -----------------------------
 Symbolic Z-matrix:
 Charge =  0 Multiplicity = 1

 SCF Done:  E(RB3LYP) =  -390.716133370     A.U. after   14 cycles
 SCF Done:  E(RB3LYP) =  -390.718527410     A.U. after   11 cycles
 SCF Done:  E(RB3LYP) =  -390.718737303     A.U. after   10 cycles
 SCF Done:  E(RB3LYP) =  -390.718754497     A.U. after   10 cycles
 SCF Done:  E(RB3LYP) =  -390.718767351     A.U. after    9 cycles
 SCF Done:  E(RB3LYP) =  -390.718768015     A.U. after    7 cycles
 SCF Done:  E(RB3LYP) =  -390.718768350     A.U. after    7 cycles
 SCF Done:  E(RB3LYP) =  -390.718768487     A.U. after    6 cycles
 SCF Done:  E(RB3LYP) =  -390.718768551     A.U. after    7 cycles
 SCF Done:  E(RB3LYP) =  -390.718768592     A.U. after    7 cycles
 SCF Done:  E(RB3LYP) =  -390.718770765     A.U. after    8 cycles
 SCF Done:  E(RB3LYP) =  -390.718771345     A.U. after    8 cycles
 SCF Done:  E(RB3LYP) =  -390.718771541     A.U. after    7 cycles
 SCF Done:  E(RB3LYP) =  -390.718771625     A.U. after    7 cycles
 SCF Done:  E(RB3LYP) =  -390.718771636     A.U. after    6 cycles
 Optimization completed.
    -- Stationary point found.
 Normal termination of Gaussian 16 at Tue Dec  8 12:32:35 2020.

 --------------------------------------------------------------------
 #N Geom=AllCheck Guess=TCheck SCRF=Check GenChk RB3LYP/6-31G(d) Freq
 --------------------------------------------------------------------

 Structure from the checkpoint file:  "JID_711.chk"
 -----------------------------
 CID_17801157_JID_711_neutraal
 -----------------------------
 Charge =  0 Multiplicity = 1

 SCF Done:  E(RB3LYP) =  -390.718771636     A.U. after    1 cycles

  Exact polarizability: 122.486   2.880 107.191   0.007  -0.136  73.361
 Approx polarizability: 173.912  10.011 157.672  -0.037  -0.145 107.627

                      1                      2                      3
                      A                      A                      A
 Frequencies --     30.9997                72.1101               136.3716
 Red. masses --      2.3460                 1.1742                 2.4100
 Frc consts  --      0.0013                 0.0036                 0.0264
 IR Inten    --      0.1718                 0.1266                 0.4878

                      4                      5                      6
                      A                      A                      A
 Frequencies --    214.7584               234.0168               249.4804
 Red. masses --      1.4745                 2.3602                 1.4567
 Frc consts  --      0.0401                 0.0762                 0.0534
 IR Inten    --      0.0124                 0.0710                 0.0107

                      7                      8                      9
                      A                      A                      A
 Frequencies --    271.5020               275.7752               335.7216
 Red. masses --      1.6629                 1.5483                 1.4601
 Frc consts  --      0.0722                 0.0694                 0.0970
 IR Inten    --      0.0004                 0.1522                 1.6996

                     10                     11                     12
                      A                      A                      A
 Frequencies --    342.0609               353.4844               382.1894
 Red. masses --      2.7478                 1.4624                 2.2619
 Frc consts  --      0.1894                 0.1077                 0.1947
 IR Inten    --      0.3933                 1.6652                 1.2069

                     13                     14                     15
                      A                      A                      A
 Frequencies --    387.1039               421.0620               471.5855
 Red. masses --      1.8923                 2.5848                 2.7789
 Frc consts  --      0.1671                 0.2700                 0.3641
 IR Inten    --      5.6582                 0.5312                 0.2730

                     16                     17                     18
                      A                      A                      A
 Frequencies --    585.3470               648.7791               652.8813
 Red. masses --      2.9040                 1.6921                 4.1711
 Frc consts  --      0.5862                 0.4196                 1.0475
 IR Inten    --      1.2983                17.7955                 1.1494

                     19                     20                     21
                      A                      A                      A
 Frequencies --    742.8164               819.8375               857.3227
 Red. masses --      2.1603                 3.3528                 3.7946
 Frc consts  --      0.7023                 1.3277                 1.6433
 IR Inten    --      7.7914                 1.0284                 5.6620

                     22                     23                     24
                      A                      A                      A
 Frequencies --    887.3292               932.9921               937.3716
 Red. masses --      1.8171                 1.9931                 1.8013
 Frc consts  --      0.8430                 1.0222                 0.9325
 IR Inten    --      4.2306                 5.5252                 0.2666

                     25                     26                     27
                      A                      A                      A
 Frequencies --    950.7832               951.7749               972.6315
 Red. masses --      1.2761                 1.6981                 1.1984
 Frc consts  --      0.6797                 0.9063                 0.6679
 IR Inten    --      2.3065                 0.6242                 0.1358

                     28                     29                     30
                      A                      A                      A
 Frequencies --    992.1018              1046.2069              1048.4419
 Red. masses --      1.8070                 1.4632                 1.4555
 Frc consts  --      1.0479                 0.9436                 0.9427
 IR Inten    --      7.4914                 0.1833                 1.1140

                     31                     32                     33
                      A                      A                      A
 Frequencies --   1061.6203              1072.3394              1144.6991
 Red. masses --      1.3911                 1.5405                 3.0396
 Frc consts  --      0.9238                 1.0437                 2.3467
 IR Inten    --      0.2622                 8.1263                 3.8301

                     34                     35                     36
                      A                      A                      A
 Frequencies --   1150.8174              1158.5075              1212.2751
 Red. masses --      1.2037                 1.3491                 1.9883
 Frc consts  --      0.9392                 1.0668                 1.7216
 IR Inten    --      0.4804                 7.9919                 0.6625

                     37                     38                     39
                      A                      A                      A
 Frequencies --   1240.9446              1259.6403              1289.5095
 Red. masses --      2.6721                 2.6089                 2.5918
 Frc consts  --      2.4244                 2.4389                 2.5392
 IR Inten    --      5.9560                 4.4156                 6.7923

                     40                     41                     42
                      A                      A                      A
 Frequencies --   1347.8388              1400.0875              1424.4224
 Red. masses --      3.0172                 2.0927                 1.2154
 Frc consts  --      3.2295                 2.4169                 1.4529
 IR Inten    --      6.2803                 3.6313                 4.6589

                     43                     44                     45
                      A                      A                      A
 Frequencies --   1425.9513              1444.3111              1451.3230
 Red. masses --      1.2430                 1.2417                 1.1164
 Frc consts  --      1.4891                 1.5261                 1.3855
 IR Inten    --      5.3914                 0.2542                 8.5855

                     46                     47                     48
                      A                      A                      A
 Frequencies --   1458.2508              1509.6916              1510.9551
 Red. masses --      1.2157                 1.0494                 1.0543
 Frc consts  --      1.5231                 1.4093                 1.4181
 IR Inten    --      1.9896                 0.4337                 7.2737

                     49                     50                     51
                      A                      A                      A
 Frequencies --   1516.8883              1521.5735              1529.8750
 Red. masses --      1.0459                 1.0509                 1.0567
 Frc consts  --      1.4180                 1.4336                 1.4572
 IR Inten    --      0.5357                 1.0002                10.1743

                     52                     53                     54
                      A                      A                      A
 Frequencies --   1534.4018              1543.1921              1553.6695
 Red. masses --      1.0641                 1.0509                 1.0586
 Frc consts  --      1.4760                 1.4746                 1.5056
 IR Inten    --      3.2943                 9.8743                 5.7834

                     55                     56                     57
                      A                      A                      A
 Frequencies --   1610.6926              1690.6458              3018.1300
 Red. masses --      6.5368                 7.1289                 1.0603
 Frc consts  --      9.9917                12.0055                 5.6907
 IR Inten    --      2.2427                 3.5928                17.6753

                     58                     59                     60
                      A                      A                      A
 Frequencies --   3042.2100              3042.7192              3043.1225
 Red. masses --      1.0976                 1.0362                 1.0398
 Frc consts  --      5.9854                 5.6520                 5.6734
 IR Inten    --      8.7376                32.2784                17.2333

                     61                     62                     63
                      A                      A                      A
 Frequencies --   3046.3380              3056.6108              3097.0176
 Red. masses --      1.0365                 1.0375                 1.0973
 Frc consts  --      5.6673                 5.7109                 6.2010
 IR Inten    --     40.0841                33.0568                21.0858

                     64                     65                     66
                      A                      A                      A
 Frequencies --   3109.0008              3109.6334              3115.9337
 Red. masses --      1.1016                 1.1016                 1.1015
 Frc consts  --      6.2734                 6.2764                 6.3008
 IR Inten    --     11.0961                 3.7750               100.0289

                     67                     68                     69
                      A                      A                      A
 Frequencies --   3121.6781              3122.2188              3124.9898
 Red. masses --      1.1024                 1.0986                 1.1014
 Frc consts  --      6.3295                 6.3100                 6.3369
 IR Inten    --     10.3963                 8.5428                48.3680

                     70                     71                     72
                      A                      A                      A
 Frequencies --   3138.3860              3209.8574              3240.3384
 Red. masses --      1.1022                 1.0872                 1.1017
 Frc consts  --      6.3964                 6.5997                 6.8157
 IR Inten    --     39.4310                14.4732                17.0505

 - Thermochemistry -
 -------------------
 Temperature   298.150 Kelvin.  Pressure   1.00000 Atm.
 Atom     1 has atomic number  6 and mass  12.00000

 Molecular mass:   136.12520 amu.
 Principal axes and moments of inertia in atomic units:
                           1         2         3
     Eigenvalues --   950.736761617.042162147.29217
           X            0.99972   0.02363  -0.00023
           Y           -0.02363   0.99972  -0.00015
           Z            0.00023   0.00016   1.00000
 This molecule is an asymmetric top.
 Rotational symmetry number  1.
 Warning -- assumption of classical behavior for rotation
           may cause significant error
 Rotational temperatures (Kelvin)      0.09110     0.05356     0.04034
 Rotational constants (GHZ):           1.89826     1.11608     0.84047
 Zero-point vibrational energy     615521.4 (Joules/Mol)
                                  147.11315 (Kcal/Mol)
 Warning -- explicit consideration of  16 degrees of freedom as
           vibrations may cause significant error
 Vibrational temperatures:     44.60   103.75   196.21   308.99   336.70
          (Kelvin)            358.95   390.63   396.78   483.03   492.15
                              508.59   549.89   556.96   605.81   678.51
                              842.18   933.45   939.35  1068.75  1179.56
                             1233.50  1276.67  1342.37  1348.67  1367.96
                             1369.39  1399.40  1427.41  1505.26  1508.47
                             1527.43  1542.86  1646.97  1655.77  1666.83
                             1744.19  1785.44  1812.34  1855.32  1939.24
                             2014.41  2049.43  2051.63  2078.04  2088.13
                             2098.10  2172.11  2173.93  2182.46  2189.20
                             2201.15  2207.66  2220.31  2235.38  2317.43
                             2432.46  4342.42  4377.06  4377.79  4378.37
                             4383.00  4397.78  4455.92  4473.16  4474.07
                             4483.13  4491.40  4492.18  4496.16  4515.44
                             4618.27  4662.12

 Zero-point correction=                           0.234440 (Hartree/Particle)
 Thermal correction to Energy=                    0.245648
 Thermal correction to Enthalpy=                  0.246592
 Thermal correction to Gibbs Free Energy=         0.197958
 Sum of electronic and zero-point Energies=           -390.484332
 Sum of electronic and thermal Energies=              -390.473124
 Sum of electronic and thermal Enthalpies=            -390.472180
 Sum of electronic and thermal Free Energies=         -390.520813

                     E (Thermal)             CV                S
                      KCal/Mol        Cal/Mol-Kelvin    Cal/Mol-Kelvin
 Total                  154.146             43.101            102.358
 Electronic               0.000              0.000              0.000
 Translational            0.889              2.981             40.637
 Rotational               0.889              2.981             29.580
 Vibrational            152.369             37.140             32.140
 Vibration     1          0.594              1.984              5.764
 Vibration     2          0.598              1.967              4.095
 Vibration     3          0.614              1.917              2.854
 Vibration     4          0.645              1.819              2.003
 Vibration     5          0.654              1.789              1.848
 Vibration     6          0.662              1.764              1.734
 Vibration     7          0.675              1.726              1.587
 Vibration     8          0.677              1.718              1.560
 Vibration     9          0.717              1.604              1.232
 Vibration    10          0.721              1.591              1.203
 Vibration    11          0.730              1.568              1.151
 Vibration    12          0.752              1.508              1.030
 Vibration    13          0.756              1.498              1.011
 Vibration    14          0.784              1.424              0.888
 Vibration    15          0.829              1.313              0.733
 Vibration    16          0.942              1.063              0.476

 Optimization completed.
    -- Stationary point found.
 Normal termination of Gaussian 16 at Tue Dec  8 12:43:38 2020.

 ----------------------------------------------------------------------
 # B3LYP/6-311++G(d,p) empiricaldispersion=gd3bj scf=xqc pop=npa geom=c
 heck
 ----------------------------------------------------------------------

 -------------------------------------
 CID_17801157_JID_711_Energie_neutraal
 -------------------------------------
 Structure from the checkpoint file:  "JID_711.chk"
 Charge =  0 Multiplicity = 1

 SCF Done:  E(RB3LYP) =  -390.824310944     A.U. after   14 cycles
 Normal termination of Gaussian 16 at Tue Dec  8 12:49:40 2020.

 ----------------------------------------------------------------------
 # B3LYP/6-311++G(d,p) empiricaldispersion=gd3bj scf=xqc pop=npa geom=c
 heck
 ----------------------------------------------------------------------

 -----------------------------------
 CID_17801157_JID_711_Energie_kation
 -----------------------------------
 Structure from the checkpoint file:  "JID_711.chk"
 Charge =  1 Multiplicity = 2

 SCF Done:  E(UB3LYP) =  -390.543660556     A.U. after   17 cycles
 Normal termination of Gaussian 16 at Tue Dec  8 13:04:45 2020.
 Gaussian 16:  ES64L-G16RevA.03 25-Dec-2016

 ----------------------------------------------------------------------
 # B3LYP/6-311++G(d,p) empiricaldispersion=gd3bj scf=xqc pop=npa geom=c
 heck
 ----------------------------------------------------------------------

 ----------------------------------
 CID_17801157_JID_711_Energie_anion
 ----------------------------------
 Structure from the checkpoint file:  "JID_711.chk"
 Charge = -1 Multiplicity = 2

                         Standard orientation:
 ---------------------------------------------------------------------
 Center     Atomic      Atomic             Coordinates (Angstroms)
 Number     Number       Type             X           Y           Z
 ---------------------------------------------------------------------
      1          6           0        1.196165    2.195692   -0.001196
      2          6           0        1.181131    0.690044    0.012236
      3          6           0        0.165983   -0.215453    0.012238
      4          6           0        0.761164   -1.571492    0.003790
      5          6           0        2.104166   -1.501957   -0.000991
      6          6           0        2.498904   -0.056277    0.004366
      7          6           0       -1.347290   -0.048598    0.000725
      8          6           0       -1.903275   -0.682867   -1.294339
      9          6           0       -1.944891   -0.783960    1.221412
     10          6           0       -1.808029    1.416455    0.055443
     11          1           0        0.815396    2.610149   -0.942999
     12          1           0        2.222705    2.559996    0.115573
     13          1           0        0.602423    2.636468    0.805306
     14          1           0        0.176095   -2.485280    0.001576
     15          1           0        2.802742   -2.330277   -0.005247
     16          1           0        3.105055    0.215224   -0.874381
     17          1           0        3.110559    0.207444    0.881554
     18          1           0       -1.634914   -1.741367   -1.374101
     19          1           0       -2.997522   -0.610425   -1.316448
     20          1           0       -1.507704   -0.169654   -2.177796
     21          1           0       -1.565194   -0.355996    2.155779
     22          1           0       -3.037946   -0.694082    1.222506
     23          1           0       -1.697429   -1.850284    1.216431
     24          1           0       -1.484447    1.907191    0.978365
     25          1           0       -1.430918    1.994219   -0.793344
     26          1           0       -2.903069    1.457154    0.025122
 ---------------------------------------------------------------------

 SCF Done:  E(UB3LYP) =  -390.806436043     A.U. after   33 cycles
 SCF Done:  E(UB3LYP) =  -390.806436043     a.u. after    1 cycles

 The electronic state is 2-A.
 Alpha  occ. eigenvalues --  -10.08207 -10.06476 -10.06445 -10.06029 -10.05918
 Alpha  occ. eigenvalues --  -10.05716 -10.05607 -10.05145 -10.05113 -10.04813
 Alpha  occ. eigenvalues --   -0.75705  -0.70499  -0.64026  -0.59066  -0.57939
 Alpha  occ. eigenvalues --   -0.57649  -0.55578  -0.46789  -0.44122  -0.38838
 Alpha  occ. eigenvalues --   -0.38251  -0.34215  -0.33046  -0.32614  -0.32228
 Alpha  occ. eigenvalues --   -0.30942  -0.29267  -0.28616  -0.27335  -0.26602
 Alpha  occ. eigenvalues --   -0.25886  -0.25767  -0.24518  -0.23074  -0.21517
 Alpha  occ. eigenvalues --   -0.20823  -0.17966  -0.10374   0.04777
 Alpha virt. eigenvalues --    0.07055   0.07437   0.08079   0.09041   0.09382
 Alpha virt. eigenvalues --    0.09485   0.10214   0.10393   0.11110   0.11666
 Alpha virt. eigenvalues --    0.12473   0.13200   0.13355   0.14348   0.14936

  Beta  occ. eigenvalues --  -10.08204 -10.06459 -10.06433 -10.06025 -10.05909
  Beta  occ. eigenvalues --  -10.05708 -10.05568 -10.05119 -10.05085 -10.04782
  Beta  occ. eigenvalues --   -0.75690  -0.70479  -0.63988  -0.59026  -0.57885
  Beta  occ. eigenvalues --   -0.57592  -0.55522  -0.46738  -0.44082  -0.38793
  Beta  occ. eigenvalues --   -0.38203  -0.34179  -0.33013  -0.32583  -0.32189
  Beta  occ. eigenvalues --   -0.30907  -0.29227  -0.28584  -0.27298  -0.26567
  Beta  occ. eigenvalues --   -0.25856  -0.25732  -0.24483  -0.23043  -0.21491
  Beta  occ. eigenvalues --   -0.20794  -0.17949  -0.10361
  Beta virt. eigenvalues --    0.06983   0.08009   0.08200   0.08359   0.09762
  Beta virt. eigenvalues --    0.09807   0.10031   0.10743   0.10942   0.11598
  Beta virt. eigenvalues --    0.12150   0.13014   0.13574   0.13766   0.14689

 Mulliken charges and spin densities:
               1          2
     1  C    3.415588  -4.169591
     2  C   -4.304997   4.716158
     3  C    0.957636  -0.026235
     4  C    2.977162  -3.693653
     5  C   -1.644709   1.820351
     6  C    2.628994  -3.737657
     7  C   -3.861197   4.384804
     8  C    0.622690  -1.291196
     9  C    0.551926  -1.207148
    10  C    0.826235  -1.355613
    11  H   -0.091492   0.257448
    12  H   -0.635082   0.801622
    13  H   -0.139407   0.289029
    14  H    0.086589   0.053957
    15  H   -0.558573   0.723632
    16  H   -0.169950   0.335381
    17  H   -0.132927   0.293035
    18  H   -0.172673   0.311389
    19  H   -0.139712   0.288684
    20  H   -0.169347   0.316476
    21  H   -0.124219   0.271705
    22  H   -0.156526   0.307617
    23  H   -0.178484   0.312451
    24  H   -0.111046   0.239576
    25  H   -0.076058   0.206033
    26  H   -0.400420   0.551743
 Sum of Mulliken charges =  -1.00000   1.00000

 Dipole moment (field-independent basis, Debye):
    X=             -0.1821    Y=             -1.7842    Z=              0.0766  Tot=              1.7951
 Quadrupole moment (field-independent basis, Debye-Ang):
   XX=           -124.1237   YY=           -109.2012   ZZ=            -97.2115
   XY=             -3.2507   XZ=             -0.1776   YZ=             -0.2396

 Summary of Natural Population Analysis:

                                       Natural Population
                Natural  -----------------------------------------------
    Atom  No    Charge         Core      Valence    Rydberg      Total
 -----------------------------------------------------------------------
      C    1   -0.29844      0.99962     2.29291    0.00591     3.29844
      C    2   -0.00108      0.99946     1.99041    0.01122     3.00108
      C    3   -0.02904      0.99940     2.01535    0.01429     3.02904
      C    4   -0.10196      0.99949     2.09368    0.00878     3.10196
      C    5   -0.09476      0.99954     2.08527    0.00995     3.09476
      C    6   -0.21816      0.99959     2.21004    0.00853     3.21816
      C    7   -0.05571      0.99956     2.04383    0.01233     3.05571
      C    8   -0.27907      0.99963     2.27223    0.00720     3.27907
      C    9   -0.27938      0.99963     2.27248    0.00726     3.27938
      C   10   -0.28200      0.99964     2.27496    0.00740     3.28200
      H   11    0.10564      0.00000     0.39301    0.00135     0.39436
      H   12    0.10219      0.00000     0.39634    0.00146     0.39781
      H   13    0.10650      0.00000     0.39220    0.00130     0.39350
      H   14    0.09951      0.00000     0.39934    0.00115     0.40049
      H   15    0.09743      0.00000     0.40160    0.00098     0.40257
      H   16    0.11483      0.00000     0.38363    0.00153     0.38517
      H   17    0.11457      0.00000     0.38398    0.00145     0.38543
      H   18    0.09911      0.00000     0.39969    0.00120     0.40089
      H   19    0.09825      0.00000     0.40065    0.00111     0.40175
      H   20    0.10141      0.00000     0.39747    0.00112     0.39859
      H   21    0.10125      0.00000     0.39767    0.00109     0.39875
      H   22    0.09842      0.00000     0.40050    0.00108     0.40158
      H   23    0.09879      0.00000     0.40001    0.00120     0.40121
      H   24    0.10071      0.00000     0.39799    0.00129     0.39929
      H   25    0.10178      0.00000     0.39688    0.00135     0.39822
      H   26    0.09923      0.00000     0.39959    0.00118     0.40077
 =======================================================================
   * Total *    0.00000      9.99556    27.89171    0.11273    38.00000

 Normal termination of Gaussian 16 at Tue Dec  8 13:16:58 2020.
