 Gaussian 16, Revision A.03,

 -----------------------------------------------------------
 # opt freq B3LYP/6-31G(d) empiricaldispersion=gd3bj scf=xqc
 -----------------------------------------------------------

 -------------------------------
 CID_130787048_JID_3707_neutraal
 -------------------------------
 Symbolic Z-matrix:
 Charge =  0 Multiplicity = 1

 SCF Done:  E(RB3LYP) =  -606.507130649     A.U. after   15 cycles
 SCF Done:  E(RB3LYP) =  -606.509704202     A.U. after   13 cycles
 SCF Done:  E(RB3LYP) =  -606.510224699     A.U. after   12 cycles
 SCF Done:  E(RB3LYP) =  -606.510460571     A.U. after   12 cycles
 SCF Done:  E(RB3LYP) =  -606.510588351     A.U. after   12 cycles
 SCF Done:  E(RB3LYP) =  -606.510616953     A.U. after   10 cycles
 SCF Done:  E(RB3LYP) =  -606.510626309     A.U. after   10 cycles
 SCF Done:  E(RB3LYP) =  -606.510627072     A.U. after    8 cycles
 SCF Done:  E(RB3LYP) =  -606.510627247     A.U. after    8 cycles
 Optimization completed.
    -- Stationary point found.
 Normal termination of Gaussian 16 at Wed Dec  9 23:59:49 2020.

 --------------------------------------------------------------------
 #N Geom=AllCheck Guess=TCheck SCRF=Check GenChk RB3LYP/6-31G(d) Freq
 --------------------------------------------------------------------

 Structure from the checkpoint file:  "JID_3707.chk"
 -------------------------------
 CID_130787048_JID_3707_neutraal
 -------------------------------
 Charge =  0 Multiplicity = 1

 SCF Done:  E(RB3LYP) =  -606.510627247     A.U. after    1 cycles

  Exact polarizability: 172.345  14.809 118.722   0.002  -0.001  45.474
 Approx polarizability: 268.410  35.234 212.492   0.004  -0.006  69.308

                      1                      2                      3
                      A                      A                      A
 Frequencies --     78.5537               101.8206               116.3021
 Red. masses --      4.0783                 5.5814                 7.9750
 Frc consts  --      0.0148                 0.0341                 0.0636
 IR Inten    --      1.1489                 2.3853                 1.1437

                      4                      5                      6
                      A                      A                      A
 Frequencies --    185.9338               215.5410               242.5316
 Red. masses --      3.5662                 5.1654                 2.1738
 Frc consts  --      0.0726                 0.1414                 0.0753
 IR Inten    --      3.0815                 4.3754                 0.0467

                      7                      8                      9
                      A                      A                      A
 Frequencies --    259.6701               313.4391               345.9097
 Red. masses --      2.4633                 3.5677                 4.0814
 Frc consts  --      0.0979                 0.2065                 0.2877
 IR Inten    --      2.3421                 0.6322                 0.2726

                     10                     11                     12
                      A                      A                      A
 Frequencies --    444.3456               465.1599               479.3350
 Red. masses --      8.0074                 8.6426                10.8746
 Frc consts  --      0.9315                 1.1018                 1.4721
 IR Inten    --      1.5477                 5.4431                 6.4219

                     13                     14                     15
                      A                      A                      A
 Frequencies --    558.3252               591.3692               604.5483
 Red. masses --      4.2743                 8.7222                 4.9113
 Frc consts  --      0.7850                 1.7972                 1.0576
 IR Inten    --      0.0098                 6.6391                 0.0472

                     16                     17                     18
                      A                      A                      A
 Frequencies --    616.0204               654.1404               712.7818
 Red. masses --      9.3459                 5.0128                11.8375
 Frc consts  --      2.0896                 1.2638                 3.5434
 IR Inten    --      1.6141                 3.3659                 3.9773

                     19                     20                     21
                      A                      A                      A
 Frequencies --    736.5845               758.8163               789.6773
 Red. masses --      2.4456                 8.0698                 1.9580
 Frc consts  --      0.7818                 2.7377                 0.7194
 IR Inten    --     12.8389                 8.6742                44.8229

                     22                     23                     24
                      A                      A                      A
 Frequencies --    874.2923               878.6872               963.5482
 Red. masses --      1.4144                 6.2734                 1.2548
 Frc consts  --      0.6370                 2.8538                 0.6864
 IR Inten    --      0.0794                 7.5757                 0.5028

                     25                     26                     27
                      A                      A                      A
 Frequencies --    972.0391              1019.0852              1090.3664
 Red. masses --     14.2562                 6.8203                 1.8909
 Frc consts  --      7.9364                 4.1733                 1.3246
 IR Inten    --     17.1183                 9.8861                 8.8394

                     28                     29                     30
                      A                      A                      A
 Frequencies --   1142.2108              1186.0948              1191.2646
 Red. masses --      2.8792                 1.2681                 3.8907
 Frc consts  --      2.2132                 1.0511                 3.2531
 IR Inten    --     99.8667                 0.9084                19.9148

                     31                     32                     33
                      A                      A                      A
 Frequencies --   1213.4469              1235.2169              1292.8038
 Red. masses --      1.5112                 1.6912                 5.2416
 Frc consts  --      1.3111                 1.5203                 5.1616
 IR Inten    --     33.6333                68.1564                 3.8204

                     34                     35                     36
                      A                      A                      A
 Frequencies --   1303.6109              1333.4989              1408.0404
 Red. masses --      2.8104                 3.4438                 7.8010
 Frc consts  --      2.8140                 3.6081                 9.1124
 IR Inten    --      0.5345               216.7552                 4.3872

                     37                     38                     39
                      A                      A                      A
 Frequencies --   1461.9035              1498.2152              1521.1186
 Red. masses --      2.7578                 1.2145                 1.0473
 Frc consts  --      3.4726                 1.6062                 1.4277
 IR Inten    --      3.1076                19.0366                 7.0267

                     40                     41                     42
                      A                      A                      A
 Frequencies --   1533.1095              1557.2480              1585.2222
 Red. masses --      1.0594                 3.0482                11.7855
 Frc consts  --      1.4671                 4.3553                17.4493
 IR Inten    --     38.0835                89.9091                32.8985

                     43                     44                     45
                      A                      A                      A
 Frequencies --   1654.0714              1678.3379              2371.0297
 Red. masses --      7.2441                 8.1770                12.6649
 Frc consts  --     11.6773                13.5707                41.9493
 IR Inten    --     17.8455                79.2332                15.8360

                     46                     47                     48
                      A                      A                      A
 Frequencies --   3036.0527              3099.1592              3173.5415
 Red. masses --      1.0343                 1.1072                 1.1006
 Frc consts  --      5.6172                 6.2659                 6.5309
 IR Inten    --     47.7999                35.8338                16.8721

                     49                     50                     51
                      A                      A                      A
 Frequencies --   3204.5880              3233.6310              3240.0954
 Red. masses --      1.0885                 1.0904                 1.0949
 Frc consts  --      6.5860                 6.7175                 6.7721
 IR Inten    --      9.8398                 6.2318                 4.4416

 - Thermochemistry -
 -------------------
 Temperature   298.150 Kelvin.  Pressure   1.00000 Atm.
 Atom     1 has atomic number  6 and mass  12.00000

 Molecular mass:   174.04293 amu.
 Principal axes and moments of inertia in atomic units:
                           1         2         3
     Eigenvalues --  1181.460193148.632724318.54452
           X            0.99976  -0.02183  -0.00000
           Y            0.02183   0.99976   0.00000
           Z            0.00000  -0.00000   1.00000
 This molecule is an asymmetric top.
 Rotational symmetry number  1.
 Warning -- assumption of classical behavior for rotation
           may cause significant error
 Rotational temperatures (Kelvin)      0.07331     0.02751     0.02006
 Rotational constants (GHZ):           1.52755     0.57318     0.41790
 Zero-point vibrational energy     360209.6 (Joules/Mol)
                                   86.09215 (Kcal/Mol)
 Warning -- explicit consideration of  16 degrees of freedom as
           vibrations may cause significant error
 Vibrational temperatures:    113.02   146.50   167.33   267.52   310.12
          (Kelvin)            348.95   373.61   450.97   497.69   639.31
                              669.26   689.66   803.31   850.85   869.81
                              886.32   941.16  1025.53  1059.78  1091.77
                             1136.17  1257.91  1264.23  1386.33  1398.55
                             1466.24  1568.79  1643.39  1706.53  1713.96
                             1745.88  1777.20  1860.06  1875.61  1918.61
                             2025.86  2103.35  2155.60  2188.55  2205.80
                             2240.53  2280.78  2379.84  2414.75  3411.38
                             4368.20  4459.00  4566.02  4610.69  4652.47
                             4661.77

 Zero-point correction=                           0.137197 (Hartree/Particle)
 Thermal correction to Energy=                    0.147449
 Thermal correction to Enthalpy=                  0.148393
 Thermal correction to Gibbs Free Energy=         0.100955
 Sum of electronic and zero-point Energies=           -606.373431
 Sum of electronic and thermal Energies=              -606.363178
 Sum of electronic and thermal Enthalpies=            -606.362234
 Sum of electronic and thermal Free Energies=         -606.409672

                     E (Thermal)             CV                S
                      KCal/Mol        Cal/Mol-Kelvin    Cal/Mol-Kelvin
 Total                   92.525             38.923             99.842
 Electronic               0.000              0.000              0.000
 Translational            0.889              2.981             41.370
 Rotational               0.889              2.981             31.152
 Vibrational             90.748             32.961             27.320
 Vibration     1          0.600              1.964              3.927
 Vibration     2          0.604              1.948              3.419
 Vibration     3          0.608              1.936              3.161
 Vibration     4          0.632              1.859              2.268
 Vibration     5          0.645              1.817              1.996
 Vibration     6          0.659              1.775              1.784
 Vibration     7          0.668              1.746              1.664
 Vibration     8          0.701              1.648              1.344
 Vibration     9          0.724              1.584              1.185
 Vibration    10          0.804              1.373              0.813
 Vibration    11          0.823              1.327              0.751
 Vibration    12          0.836              1.296              0.712
 Vibration    13          0.914              1.122              0.527
 Vibration    14          0.949              1.050              0.465
 Vibration    15          0.963              1.022              0.442
 Vibration    16          0.976              0.998              0.423

 Optimization completed.
    -- Stationary point found.
 Normal termination of Gaussian 16 at Thu Dec 10 00:03:49 2020.

 ----------------------------------------------------------------------
 # B3LYP/6-311++G(d,p) empiricaldispersion=gd3bj scf=xqc pop=npa geom=c
 heck
 ----------------------------------------------------------------------

 ---------------------------------------
 CID_130787048_JID_3707_Energie_neutraal
 ---------------------------------------
 Structure from the checkpoint file:  "JID_3707.chk"
 Charge =  0 Multiplicity = 1

 SCF Done:  E(RB3LYP) =  -606.671754848     A.U. after   15 cycles
 Normal termination of Gaussian 16 at Thu Dec 10 00:05:27 2020.

 ----------------------------------------------------------------------
 # B3LYP/6-311++G(d,p) empiricaldispersion=gd3bj scf=xqc pop=npa geom=c
 heck
 ----------------------------------------------------------------------

 -------------------------------------
 CID_130787048_JID_3707_Energie_kation
 -------------------------------------
 Structure from the checkpoint file:  "JID_3707.chk"
 Charge =  1 Multiplicity = 2

 SCF Done:  E(UB3LYP) =  -606.352511807     A.U. after   25 cycles
 Normal termination of Gaussian 16 at Thu Dec 10 00:09:08 2020.
 Gaussian 16:  ES64L-G16RevA.03 25-Dec-2016

 ----------------------------------------------------------------------
 # B3LYP/6-311++G(d,p) empiricaldispersion=gd3bj scf=xqc pop=npa geom=c
 heck
 ----------------------------------------------------------------------

 ------------------------------------
 CID_130787048_JID_3707_Energie_anion
 ------------------------------------
 Structure from the checkpoint file:  "JID_3707.chk"
 Charge = -1 Multiplicity = 2

                         Standard orientation:
 ---------------------------------------------------------------------
 Center     Atomic      Atomic             Coordinates (Angstroms)
 Number     Number       Type             X           Y           Z
 ---------------------------------------------------------------------
      1          6           0        3.165245   -1.997175   -0.000216
      2          8           0        1.778611   -1.680161    0.000170
      3          6           0        1.438723   -0.369641    0.000138
      4          6           0        2.308108    0.724753    0.000127
      5          6           0        1.825930    2.052189    0.000003
      6          6           0        0.472197    2.355626   -0.000099
      7          6           0       -0.408772    1.265431   -0.000046
      8          6           0        0.077568   -0.047467    0.000084
      9          8           0       -0.993788   -0.902122   -0.000005
     10          6           0       -2.073730   -0.052126   -0.000008
     11          7           0       -1.801393    1.217535   -0.000045
     12          6           0       -3.362405   -0.654650   -0.000003
     13          7           0       -4.415061   -1.146351   -0.000004
     14          1           0        3.219625   -3.086156   -0.000572
     15          1           0        3.662156   -1.604205    0.895454
     16          1           0        3.661825   -1.603713   -0.895848
     17          1           0        3.378791    0.559889    0.000286
     18          1           0        2.553353    2.858039   -0.000012
     19          1           0        0.103655    3.374485   -0.000176
 ---------------------------------------------------------------------

 SCF Done:  E(UB3LYP) =  -606.695570599     A.U. after   22 cycles

 The electronic state is 2-A.
 Alpha  occ. eigenvalues --  -19.04544 -19.03790 -14.14707 -14.14432 -10.13177
 Alpha  occ. eigenvalues --  -10.10723 -10.10340 -10.08911 -10.06199 -10.05019
 Alpha  occ. eigenvalues --  -10.04515 -10.04296 -10.03386  -0.98080  -0.96118
 Alpha  occ. eigenvalues --   -0.77636  -0.74680  -0.71918  -0.64357  -0.61998
 Alpha  occ. eigenvalues --   -0.59127  -0.52949  -0.48764  -0.46789  -0.41220
 Alpha  occ. eigenvalues --   -0.39853  -0.39196  -0.37386  -0.34708  -0.34432
 Alpha  occ. eigenvalues --   -0.33544  -0.31008  -0.27814  -0.26485  -0.25852
 Alpha  occ. eigenvalues --   -0.23360  -0.22474  -0.21514  -0.21395  -0.20871
 Alpha  occ. eigenvalues --   -0.18419  -0.17090  -0.14401  -0.10684  -0.09996
 Alpha  occ. eigenvalues --    0.04084
 Alpha virt. eigenvalues --    0.06826   0.08823   0.10291   0.10752   0.11965
 Alpha virt. eigenvalues --    0.12229   0.12648   0.14112   0.14453   0.14524
 Alpha virt. eigenvalues --    0.16396   0.16788   0.16865   0.17481   0.17815

  Beta  occ. eigenvalues --  -19.04512 -19.03531 -14.14383 -14.13928 -10.13178
  Beta  occ. eigenvalues --  -10.10617 -10.09860 -10.08897 -10.06220 -10.05080
  Beta  occ. eigenvalues --  -10.04540 -10.04159 -10.03212  -0.97653  -0.95995
  Beta  occ. eigenvalues --   -0.77011  -0.73968  -0.71623  -0.64213  -0.61507
  Beta  occ. eigenvalues --   -0.58937  -0.52185  -0.48614  -0.46581  -0.41069
  Beta  occ. eigenvalues --   -0.39519  -0.38979  -0.37267  -0.34586  -0.34237
  Beta  occ. eigenvalues --   -0.32277  -0.30840  -0.27671  -0.26383  -0.25131
  Beta  occ. eigenvalues --   -0.23197  -0.22405  -0.20841  -0.20568  -0.18963
  Beta  occ. eigenvalues --   -0.18141  -0.15631  -0.13973  -0.09515  -0.08612
  Beta virt. eigenvalues --    0.06803   0.08799   0.10277   0.10540   0.10794
  Beta virt. eigenvalues --    0.11950   0.12232   0.13010   0.14095   0.14552
  Beta virt. eigenvalues --    0.16050   0.16513   0.16792   0.17083   0.17626

 Mulliken charges and spin densities:
               1          2
     1  C   -0.277601   0.001259
     2  O   -0.189017   0.005188
     3  C   -0.475608   0.039089
     4  C    0.115242   0.114727
     5  C   -0.292631  -0.046595
     6  C   -0.511503   0.137516
     7  C    0.389493  -0.005554
     8  C    0.102534   0.023022
     9  O   -0.131640   0.047988
    10  C    0.911888   0.387304
    11  N   -0.138546   0.133838
    12  C   -0.912778  -0.081154
    13  N   -0.383402   0.259226
    14  H    0.156918  -0.000080
    15  H    0.135562  -0.000186
    16  H    0.135573  -0.000190
    17  H    0.133081  -0.009273
    18  H    0.117710   0.002899
    19  H    0.114725  -0.009024
 Sum of Mulliken charges =  -1.00000   1.00000

 Dipole moment (field-independent basis, Debye):
    X=             11.0795    Y=             -0.1858    Z=             -0.0004  Tot=             11.0811
 Quadrupole moment (field-independent basis, Debye-Ang):
   XX=           -125.2101   YY=            -88.5251   ZZ=            -80.8945
   XY=            -11.9103   XZ=             -0.0012   YZ=              0.0012

 Summary of Natural Population Analysis:

                                       Natural Population
                Natural  -----------------------------------------------
    Atom  No    Charge         Core      Valence    Rydberg      Total
 -----------------------------------------------------------------------
      C    1   -0.10062      0.99962     2.09283    0.00818     3.10062
      O    2   -0.26538      0.99985     3.25596    0.00957     4.26538
      C    3    0.15049      0.99935     1.83858    0.01159     2.84951
      C    4   -0.12947      0.99947     2.12146    0.00854     3.12947
      C    5   -0.12588      0.99962     2.11634    0.00991     3.12588
      C    6   -0.08782      0.99953     2.07895    0.00934     3.08782
      C    7    0.04422      0.99946     1.94369    0.01263     2.95578
      C    8    0.12308      0.99932     1.86562    0.01198     2.87692
      O    9   -0.21268      0.99986     3.20482    0.00801     4.21268
      C   10    0.28002      0.99947     1.69749    0.02301     2.71998
      N   11   -0.20151      0.99967     2.69295    0.00889     3.70151
      C   12    0.11179      0.99963     1.87154    0.01704     2.88821
      N   13   -0.11557      0.99979     2.60621    0.00957     3.61557
      H   14    0.08815      0.00000     0.41102    0.00083     0.41185
      H   15    0.08060      0.00000     0.41776    0.00165     0.41940
      H   16    0.08060      0.00000     0.41775    0.00165     0.41940
      H   17    0.09235      0.00000     0.40643    0.00122     0.40765
      H   18    0.09084      0.00000     0.40803    0.00114     0.40916
      H   19    0.09681      0.00000     0.40152    0.00167     0.40319
 =======================================================================
   * Total *    0.00001     12.99463    31.84895    0.15641    44.99999

 Normal termination of Gaussian 16 at Thu Dec 10 00:12:27 2020.
