 Gaussian 16, Revision A.03,

 -----------------------------------------------------------
 # opt freq B3LYP/6-31G(d) empiricaldispersion=gd3bj scf=xqc
 -----------------------------------------------------------

 -------------------------------
 CID_136990393_JID_7468_neutraal
 -------------------------------
 Symbolic Z-matrix:
 Charge =  0 Multiplicity = 1

 SCF Done:  E(RB3LYP) =  -816.970744870     A.U. after   15 cycles
 SCF Done:  E(RB3LYP) =  -816.977984407     A.U. after   13 cycles
 SCF Done:  E(RB3LYP) =  -816.978984459     A.U. after   12 cycles
 SCF Done:  E(RB3LYP) =  -816.979268486     A.U. after   12 cycles
 SCF Done:  E(RB3LYP) =  -816.979687587     A.U. after   12 cycles
 SCF Done:  E(RB3LYP) =  -816.980028615     A.U. after   12 cycles
 SCF Done:  E(RB3LYP) =  -816.980251525     A.U. after   12 cycles
 SCF Done:  E(RB3LYP) =  -816.980425281     A.U. after   11 cycles
 SCF Done:  E(RB3LYP) =  -816.980523561     A.U. after   11 cycles
 SCF Done:  E(RB3LYP) =  -816.980519203     A.U. after   10 cycles
 SCF Done:  E(RB3LYP) =  -816.981185929     A.U. after    9 cycles
 SCF Done:  E(RB3LYP) =  -816.981186374     A.U. after    8 cycles
 SCF Done:  E(RB3LYP) =  -816.981186420     A.U. after    7 cycles
 SCF Done:  E(RB3LYP) =  -816.981186452     A.U. after    7 cycles
 SCF Done:  E(RB3LYP) =  -816.981186466     A.U. after    7 cycles
 Optimization completed.
    -- Stationary point found.
 Normal termination of Gaussian 16 at Fri Dec 11 12:15:32 2020.

 --------------------------------------------------------------------
 #N Geom=AllCheck Guess=TCheck SCRF=Check GenChk RB3LYP/6-31G(d) Freq
 --------------------------------------------------------------------

 Structure from the checkpoint file:  "JID_7468.chk"
 -------------------------------
 CID_136990393_JID_7468_neutraal
 -------------------------------
 Charge =  0 Multiplicity = 1

 SCF Done:  E(RB3LYP) =  -816.981186466     A.U. after    1 cycles

  Exact polarizability: 227.223   4.696 156.198  -1.119  -5.130  72.511
 Approx polarizability: 313.682   5.703 276.026  -7.866 -18.204 111.984

                      1                      2                      3
                      A                      A                      A
 Frequencies --     44.5732                62.0222                83.2900
 Red. masses --      3.9798                 3.6276                 3.1170
 Frc consts  --      0.0047                 0.0082                 0.0127
 IR Inten    --      4.2221                 4.6975                 0.8335

                      4                      5                      6
                      A                      A                      A
 Frequencies --     93.0787               107.6877               132.6593
 Red. masses --      2.9657                 2.8524                 2.6244
 Frc consts  --      0.0151                 0.0195                 0.0272
 IR Inten    --      6.1990                 2.6468                 0.8035

                      7                      8                      9
                      A                      A                      A
 Frequencies --    153.6303               160.1326               161.0784
 Red. masses --      1.3995                 2.0156                 1.4611
 Frc consts  --      0.0195                 0.0305                 0.0223
 IR Inten    --      0.4155                 1.4383                 1.6186

                     10                     11                     12
                      A                      A                      A
 Frequencies --    174.6215               194.5208               199.9748
 Red. masses --      3.3488                 1.4241                 2.9567
 Frc consts  --      0.0602                 0.0317                 0.0697
 IR Inten    --      2.9410                 0.5168                 7.1516

                     13                     14                     15
                      A                      A                      A
 Frequencies --    249.9862               287.5684               325.6120
 Red. masses --      4.5621                 5.2723                 7.5018
 Frc consts  --      0.1680                 0.2569                 0.4686
 IR Inten    --      6.1546                 1.1256                 3.5817

                     16                     17                     18
                      A                      A                      A
 Frequencies --    338.2825               355.2742               411.4098
 Red. masses --      6.7950                 5.4178                 6.0404
 Frc consts  --      0.4581                 0.4029                 0.6024
 IR Inten    --      1.1429                 2.8792                 4.6406

                     19                     20                     21
                      A                      A                      A
 Frequencies --    436.0835               450.8787               524.4615
 Red. masses --      3.8720                 2.5535                 2.8120
 Frc consts  --      0.4338                 0.3058                 0.4557
 IR Inten    --     12.2169                37.8814                63.4752

                     22                     23                     24
                      A                      A                      A
 Frequencies --    532.5606               554.9746               570.5272
 Red. masses --      3.9330                 2.6038                 6.1507
 Frc consts  --      0.6572                 0.4725                 1.1796
 IR Inten    --     40.1114                23.7781                 5.3742

                     25                     26                     27
                      A                      A                      A
 Frequencies --    608.9304               618.7680               635.8305
 Red. masses --      3.3713                 1.9228                 5.3573
 Frc consts  --      0.7365                 0.4338                 1.2761
 IR Inten    --     12.7810                37.6014                15.9560

                     28                     29                     30
                      A                      A                      A
 Frequencies --    672.2350               709.1498               727.7598
 Red. masses --      4.5042                 3.8398                 5.2362
 Frc consts  --      1.1993                 1.1377                 1.6340
 IR Inten    --     20.3933                26.4097                11.2575

                     31                     32                     33
                      A                      A                      A
 Frequencies --    746.1827               791.4653               810.1158
 Red. masses --      6.0660                 6.5594                10.2653
 Frc consts  --      1.9900                 2.4209                 3.9693
 IR Inten    --     12.2191                 4.0418                11.2376

                     34                     35                     36
                      A                      A                      A
 Frequencies --    857.0365               929.1072               968.1433
 Red. masses --      1.6213                 5.9917                 1.2973
 Frc consts  --      0.7016                 3.0474                 0.7164
 IR Inten    --     23.2135                18.0428                 0.7161

                     37                     38                     39
                      A                      A                      A
 Frequencies --   1002.6087              1020.6028              1060.9980
 Red. masses --      5.0598                 4.4382                 6.3847
 Frc consts  --      2.9967                 2.7238                 4.2347
 IR Inten    --     27.4546                22.1732               135.5404

                     40                     41                     42
                      A                      A                      A
 Frequencies --   1097.0813              1122.2216              1160.9233
 Red. masses --      3.3139                 1.8684                 1.8027
 Frc consts  --      2.3500                 1.3863                 1.4314
 IR Inten    --     59.2568                50.1508                21.0608

                     43                     44                     45
                      A                      A                      A
 Frequencies --   1161.9571              1180.8044              1184.1658
 Red. masses --      1.3249                 1.2526                 1.2519
 Frc consts  --      1.0540                 1.0290                 1.0343
 IR Inten    --     21.0639                 1.0163                 6.6053

                     46                     47                     48
                      A                      A                      A
 Frequencies --   1200.4497              1206.4570              1224.4325
 Red. masses --      2.0488                 2.1601                 1.4042
 Frc consts  --      1.7395                 1.8525                 1.2404
 IR Inten    --     38.2928                20.3640                 0.5649

                     49                     50                     51
                      A                      A                      A
 Frequencies --   1236.2072              1266.0099              1295.6790
 Red. masses --      1.9866                 3.4500                 3.0634
 Frc consts  --      1.7887                 3.2579                 3.0300
 IR Inten    --     12.8942                83.5392                88.6615

                     52                     53                     54
                      A                      A                      A
 Frequencies --   1335.2282              1341.5172              1360.0806
 Red. masses --      7.0383                 1.9825                 4.0541
 Frc consts  --      7.3931                 2.1021                 4.4185
 IR Inten    --    104.9073               132.0909                13.1656

                     55                     56                     57
                      A                      A                      A
 Frequencies --   1432.0267              1470.0026              1487.9723
 Red. masses --      4.0628                 1.5287                 1.4823
 Frc consts  --      4.9088                 1.9463                 1.9336
 IR Inten    --     15.8155                76.9623                23.0786

                     58                     59                     60
                      A                      A                      A
 Frequencies --   1491.3752              1499.9659              1513.4865
 Red. masses --      1.2479                 1.2881                 1.1068
 Frc consts  --      1.6353                 1.7075                 1.4938
 IR Inten    --     29.2653                 1.4807                20.9739

                     61                     62                     63
                      A                      A                      A
 Frequencies --   1517.8555              1521.1795              1528.3255
 Red. masses --      1.0531                 1.0472                 1.2088
 Frc consts  --      1.4295                 1.4277                 1.6635
 IR Inten    --      0.7417                10.6014                83.8748

                     64                     65                     66
                      A                      A                      A
 Frequencies --   1533.1529              1543.7977              1552.1158
 Red. masses --      1.9488                 1.0574                 1.1260
 Frc consts  --      2.6988                 1.4848                 1.5983
 IR Inten    --    229.6878                25.2964                 8.5208

                     67                     68                     69
                      A                      A                      A
 Frequencies --   1560.6760              1612.8981              1655.4926
 Red. masses --      3.2465                 6.1284                 7.5199
 Frc consts  --      4.6589                 9.3931                12.1427
 IR Inten    --     83.5866                44.4064               192.0974

                     70                     71                     72
                      A                      A                      A
 Frequencies --   1694.3097              1786.6006              3017.7330
 Red. masses --      5.2066                 9.2824                 1.0457
 Frc consts  --      8.8062                17.4569                 5.6106
 IR Inten    --    834.7922               469.6091                71.0197

                     73                     74                     75
                      A                      A                      A
 Frequencies --   3034.7732              3048.7650              3077.2434
 Red. masses --      1.0395                 1.0329                 1.0980
 Frc consts  --      5.6407                 5.6568                 6.1261
 IR Inten    --     77.7952                55.8837                32.8830

                     76                     77                     78
                      A                      A                      A
 Frequencies --   3118.1013              3128.2385              3155.8790
 Red. masses --      1.0943                 1.1037                 1.1067
 Frc consts  --      6.2686                 6.3634                 6.4943
 IR Inten    --     33.1263                21.5026                30.7000

                     79                     80                     81
                      A                      A                      A
 Frequencies --   3156.0990              3160.4086              3206.3296
 Red. masses --      1.0968                 1.1050                 1.0885
 Frc consts  --      6.4369                 6.5028                 6.5930
 IR Inten    --     11.6003                28.1866                 7.0971

                     82                     83                     84
                      A                      A                      A
 Frequencies --   3225.6803              3606.5629              3625.6049
 Red. masses --      1.0946                 1.0768                 1.0765
 Frc consts  --      6.7102                 8.2519                 8.3372
 IR Inten    --      8.5081                37.5467                52.1833

 - Thermochemistry -
 -------------------
 Temperature   298.150 Kelvin.  Pressure   1.00000 Atm.
 Atom     1 has atomic number  6 and mass  12.00000

 Molecular mass:   235.09569 amu.
 Principal axes and moments of inertia in atomic units:
                           1         2         3
     Eigenvalues --  1800.953785975.921457472.66394
           X            0.99999  -0.00021   0.00438
           Y            0.00014   0.99989   0.01468
           Z           -0.00439  -0.01468   0.99988
 This molecule is an asymmetric top.
 Rotational symmetry number  1.
 Warning -- assumption of classical behavior for rotation
           may cause significant error
 Rotational temperatures (Kelvin)      0.04809     0.01449     0.01159
 Rotational constants (GHZ):           1.00210     0.30200     0.24151
 Zero-point vibrational energy     628635.7 (Joules/Mol)
                                  150.24755 (Kcal/Mol)
 Warning -- explicit consideration of  26 degrees of freedom as
           vibrations may cause significant error
 Vibrational temperatures:     64.13    89.24   119.84   133.92   154.94
          (Kelvin)            190.87   221.04   230.40   231.76   251.24
                              279.87   287.72   359.67   413.75   468.48
                              486.71   511.16   591.93   627.43   648.71
                              754.58   766.24   798.48   820.86   876.12
                              890.27   914.82   967.20  1020.31  1047.08
                             1073.59  1138.74  1165.58  1233.08  1336.78
                             1392.94  1442.53  1468.42  1526.54  1578.46
                             1614.63  1670.31  1671.80  1698.91  1703.75
                             1727.18  1735.82  1761.69  1778.63  1821.51
                             1864.19  1921.10  1930.14  1956.85  2060.37
                             2115.01  2140.86  2145.76  2158.12  2177.57
                             2183.86  2188.64  2198.92  2205.87  2221.18
                             2233.15  2245.46  2320.60  2381.88  2437.73
                             2570.52  4341.84  4366.36  4386.49  4427.47
                             4486.25  4500.84  4540.61  4540.92  4547.12
                             4613.19  4641.03  5189.04  5216.44

 Zero-point correction=                           0.239435 (Hartree/Particle)
 Thermal correction to Energy=                    0.255697
 Thermal correction to Enthalpy=                  0.256641
 Thermal correction to Gibbs Free Energy=         0.195653
 Sum of electronic and zero-point Energies=           -816.741752
 Sum of electronic and thermal Energies=              -816.725490
 Sum of electronic and thermal Enthalpies=            -816.724546
 Sum of electronic and thermal Free Energies=         -816.785533

                     E (Thermal)             CV                S
                      KCal/Mol        Cal/Mol-Kelvin    Cal/Mol-Kelvin
 Total                  160.452             59.946            128.359
 Electronic               0.000              0.000              0.000
 Translational            0.889              2.981             42.266
 Rotational               0.889              2.981             32.753
 Vibrational            158.675             53.985             53.341
 Vibration     1          0.595              1.980              5.045
 Vibration     2          0.597              1.972              4.392
 Vibration     3          0.600              1.961              3.812
 Vibration     4          0.602              1.954              3.594
 Vibration     5          0.606              1.943              3.310
 Vibration     6          0.613              1.921              2.907
 Vibration     7          0.619              1.899              2.627
 Vibration     8          0.622              1.891              2.548
 Vibration     9          0.622              1.890              2.537
 Vibration    10          0.627              1.874              2.385
 Vibration    11          0.635              1.847              2.184
 Vibration    12          0.638              1.840              2.133
 Vibration    13          0.663              1.763              1.731
 Vibration    14          0.685              1.697              1.488
 Vibration    15          0.710              1.624              1.282
 Vibration    16          0.719              1.599              1.220
 Vibration    17          0.731              1.564              1.143
 Vibration    18          0.775              1.445              0.922
 Vibration    19          0.797              1.392              0.839
 Vibration    20          0.810              1.359              0.793
 Vibration    21          0.879              1.196              0.600
 Vibration    22          0.888              1.178              0.582
 Vibration    23          0.910              1.129              0.534
 Vibration    24          0.927              1.095              0.503
 Vibration    25          0.968              1.013              0.435
 Vibration    26          0.979              0.992              0.418

 Optimization completed.
    -- Stationary point found.
 Normal termination of Gaussian 16 at Fri Dec 11 12:25:52 2020.

 ----------------------------------------------------------------------
 # B3LYP/6-311++G(d,p) empiricaldispersion=gd3bj scf=xqc pop=npa geom=c
 heck
 ----------------------------------------------------------------------

 ---------------------------------------
 CID_136990393_JID_7468_Energie_neutraal
 ---------------------------------------
 Structure from the checkpoint file:  "JID_7468.chk"
 Charge =  0 Multiplicity = 1

 SCF Done:  E(RB3LYP) =  -817.211264589     A.U. after   16 cycles
 Normal termination of Gaussian 16 at Fri Dec 11 12:31:02 2020.

 ----------------------------------------------------------------------
 # B3LYP/6-311++G(d,p) empiricaldispersion=gd3bj scf=xqc pop=npa geom=c
 heck
 ----------------------------------------------------------------------

 -------------------------------------
 CID_136990393_JID_7468_Energie_kation
 -------------------------------------
 Structure from the checkpoint file:  "JID_7468.chk"
 Charge =  1 Multiplicity = 2

 SCF Done:  E(UB3LYP) =  -816.940872766     A.U. after   23 cycles
 Normal termination of Gaussian 16 at Fri Dec 11 12:41:26 2020.
 Gaussian 16:  ES64L-G16RevA.03 25-Dec-2016

 ----------------------------------------------------------------------
 # B3LYP/6-311++G(d,p) empiricaldispersion=gd3bj scf=xqc pop=npa geom=c
 heck
 ----------------------------------------------------------------------

 ------------------------------------
 CID_136990393_JID_7468_Energie_anion
 ------------------------------------
 Structure from the checkpoint file:  "JID_7468.chk"
 Charge = -1 Multiplicity = 2

                         Standard orientation:
 ---------------------------------------------------------------------
 Center     Atomic      Atomic             Coordinates (Angstroms)
 Number     Number       Type             X           Y           Z
 ---------------------------------------------------------------------
      1          6           0        5.047420    0.317598   -0.018111
      2          7           0        4.035882   -0.709196   -0.181498
      3          6           0        2.688969   -0.481401   -0.085319
      4          7           0        1.881884   -1.484617    0.101516
      5          6           0        0.527494   -1.216310    0.126303
      6          6           0       -0.017920    0.092831   -0.020382
      7          6           0       -1.421218    0.274611   -0.015700
      8          6           0       -2.264193   -0.824241    0.166739
      9          6           0       -1.718242   -2.105198    0.329705
     10          6           0       -0.349526   -2.302151    0.312018
     11          8           0       -3.628482   -0.668277    0.241302
     12          6           0       -4.262376   -0.340230   -0.998649
     13          8           0       -1.991066    1.498452   -0.238027
     14          6           0       -2.188146    2.286984    0.939174
     15          6           0        0.907552    1.219010   -0.163967
     16          8           0        0.654969    2.414621   -0.224652
     17          7           0        2.256053    0.815872   -0.218139
     18          1           0        4.966177    0.857330    0.937169
     19          1           0        5.006017    1.045175   -0.838067
     20          1           0        6.029066   -0.157547   -0.061192
     21          1           0        4.274625   -1.657370    0.074260
     22          1           0       -2.403341   -2.935070    0.473921
     23          1           0        0.082597   -3.289683    0.430246
     24          1           0       -3.894546    0.613115   -1.388110
     25          1           0       -4.094395   -1.132512   -1.740363
     26          1           0       -5.330755   -0.267204   -0.782793
     27          1           0       -1.225969    2.559768    1.381951
     28          1           0       -2.703747    3.191855    0.611762
     29          1           0       -2.810657    1.747121    1.662407
     30          1           0        2.905943    1.583213   -0.334203
 ---------------------------------------------------------------------

 SCF Done:  E(UB3LYP) =  -817.210736456     A.U. after   33 cycles
 SCF Done:  E(UB3LYP) =  -817.210736456     a.u. after    1 cycles

 The electronic state is 2-A.
 Alpha  occ. eigenvalues --  -19.03476 -19.02214 -18.96145 -14.24172 -14.23410
 Alpha  occ. eigenvalues --  -14.17630 -10.17393 -10.14798 -10.11926 -10.10863
 Alpha  occ. eigenvalues --  -10.10572 -10.10564 -10.10470 -10.09151 -10.05661
 Alpha  occ. eigenvalues --  -10.05123 -10.04631  -0.95627  -0.93471  -0.92462
 Alpha  occ. eigenvalues --   -0.88768  -0.80926  -0.78312  -0.72408  -0.65015
 Alpha  occ. eigenvalues --   -0.64084  -0.61071  -0.59438  -0.56568  -0.54382
 Alpha  occ. eigenvalues --   -0.52586  -0.47516  -0.45702  -0.43414  -0.43211
 Alpha  occ. eigenvalues --   -0.40187  -0.38213  -0.37814  -0.36743  -0.36291
 Alpha  occ. eigenvalues --   -0.36088  -0.34616  -0.33709  -0.33360  -0.32491
 Alpha  occ. eigenvalues --   -0.32234  -0.30414  -0.29888  -0.28914  -0.26516
 Alpha  occ. eigenvalues --   -0.26352  -0.25869  -0.24731  -0.23073  -0.18980
 Alpha  occ. eigenvalues --   -0.17184  -0.16663  -0.16178  -0.15843  -0.13843
 Alpha  occ. eigenvalues --   -0.13470  -0.09033   0.04066
 Alpha virt. eigenvalues --    0.05610   0.07242   0.08374   0.08816   0.09176
 Alpha virt. eigenvalues --    0.09886   0.10033   0.10409   0.10711   0.11544
 Alpha virt. eigenvalues --    0.12275   0.12831   0.13317   0.13616   0.14048

  Beta  occ. eigenvalues --  -19.03481 -19.02209 -18.95970 -14.24098 -14.23400
  Beta  occ. eigenvalues --  -14.17628 -10.17393 -10.14634 -10.11931 -10.10797
  Beta  occ. eigenvalues --  -10.10563 -10.10537 -10.10358 -10.09081 -10.05604
  Beta  occ. eigenvalues --  -10.04902 -10.04613  -0.95602  -0.93400  -0.92246
  Beta  occ. eigenvalues --   -0.88623  -0.80844  -0.78175  -0.72211  -0.64794
  Beta  occ. eigenvalues --   -0.63856  -0.61020  -0.59291  -0.56459  -0.54092
  Beta  occ. eigenvalues --   -0.52435  -0.47432  -0.45575  -0.43316  -0.43102
  Beta  occ. eigenvalues --   -0.40118  -0.38118  -0.37735  -0.36609  -0.36213
  Beta  occ. eigenvalues --   -0.35975  -0.34513  -0.33586  -0.33270  -0.32373
  Beta  occ. eigenvalues --   -0.31905  -0.30308  -0.29755  -0.28810  -0.26331
  Beta  occ. eigenvalues --   -0.25770  -0.25708  -0.24572  -0.22797  -0.18913
  Beta  occ. eigenvalues --   -0.17077  -0.16125  -0.15929  -0.15795  -0.13477
  Beta  occ. eigenvalues --   -0.12718  -0.08630
  Beta virt. eigenvalues --    0.06916   0.07170   0.08136   0.08721   0.09033
  Beta virt. eigenvalues --    0.09345   0.10145   0.10289   0.10717   0.11083
  Beta virt. eigenvalues --    0.11531   0.12289   0.12809   0.13416   0.13816

 Mulliken charges and spin densities:
               1          2
     1  C    1.409297  -1.801901
     2  N   -0.372372   0.234357
     3  C    0.161251   0.000770
     4  N   -0.229536   0.018732
     5  C   -0.481271   0.058234
     6  C    0.063213   0.103966
     7  C   -0.606957   0.154009
     8  C   -0.690034  -0.057784
     9  C    0.605036   0.167413
    10  C   -0.291004   0.009963
    11  O   -0.157080   0.003667
    12  C   -0.244619  -0.001217
    13  O   -0.131873  -0.002265
    14  C   -0.268872  -0.025586
    15  C    0.675120   0.030102
    16  O   -0.392790   0.059132
    17  N   -0.242868  -0.035831
    18  H   -0.117814   0.287230
    19  H   -0.505599   0.652431
    20  H   -0.918902   1.085681
    21  H    0.151669   0.149247
    22  H    0.162116  -0.015076
    23  H    0.129687   0.008378
    24  H    0.182138   0.002360
    25  H    0.099510   0.003376
    26  H    0.119698   0.002505
    27  H    0.171872   0.002281
    28  H    0.112632   0.011173
    29  H    0.142005   0.007645
    30  H    0.466348  -0.112993
 Sum of Mulliken charges =  -1.00000   1.00000

 Dipole moment (field-independent basis, Debye):
    X=             -8.7100    Y=             -0.6577    Z=              0.4285  Tot=              8.7453
 Quadrupole moment (field-independent basis, Debye-Ang):
   XX=           -189.0900   YY=           -128.4241   ZZ=           -114.7418
   XY=             -1.5465   XZ=              5.0800   YZ=              4.3240

 Summary of Natural Population Analysis:

                                       Natural Population
                Natural  -----------------------------------------------
    Atom  No    Charge         Core      Valence    Rydberg      Total
 -----------------------------------------------------------------------
      C    1   -0.18423      0.99965     2.17627    0.00831     3.18423
      N    2   -0.31347      0.99968     2.80275    0.01105     3.81347
      C    3    0.31578      0.99960     1.66662    0.01799     2.68422
      N    4   -0.31058      0.99966     2.79416    0.01676     3.81058
      C    5    0.16995      0.99950     1.81679    0.01376     2.83005
      C    6   -0.11878      0.99943     2.10504    0.01430     3.11878
      C    7    0.19042      0.99932     1.79700    0.01326     2.80958
      C    8    0.10196      0.99932     1.88568    0.01304     2.89804
      C    9   -0.06415      0.99953     2.05624    0.00838     3.06415
      C   10   -0.13504      0.99960     2.11732    0.01812     3.13504
      O   11   -0.29483      0.99986     3.28369    0.01128     4.29483
      C   12   -0.09870      0.99960     2.09119    0.00790     3.09870
      O   13   -0.28971      0.99986     3.27940    0.01046     4.28971
      C   14   -0.09374      0.99960     2.08639    0.00776     3.09374
      C   15    0.35337      0.99963     1.62260    0.02440     2.64663
      O   16   -0.30715      0.99988     3.30150    0.00577     4.30715
      N   17   -0.30764      0.99964     2.79992    0.00808     3.80764
      H   18    0.08967      0.00000     0.40868    0.00165     0.41033
      H   19    0.09406      0.00000     0.40401    0.00193     0.40594
      H   20    0.10826      0.00000     0.38763    0.00411     0.39174
      H   21    0.19646      0.00000     0.30032    0.00322     0.30354
      H   22    0.09549      0.00000     0.40302    0.00149     0.40451
      H   23    0.09945      0.00000     0.39901    0.00155     0.40055
      H   24    0.09217      0.00000     0.40643    0.00140     0.40783
      H   25    0.07780      0.00000     0.42087    0.00134     0.42220
      H   26    0.08170      0.00000     0.41734    0.00095     0.41830
      H   27    0.09242      0.00000     0.40639    0.00119     0.40758
      H   28    0.08334      0.00000     0.41579    0.00088     0.41666
      H   29    0.07901      0.00000     0.41974    0.00125     0.42099
      H   30    0.20133      0.00000     0.29589    0.00278     0.29867
 =======================================================================
   * Total *    0.00461     16.99335    44.76766    0.23437    61.99539

 Normal termination of Gaussian 16 at Fri Dec 11 12:58:21 2020.
