 Gaussian 16, Revision A.03,

 -----------------------------------------------------------
 # opt freq B3LYP/6-31G(d) empiricaldispersion=gd3bj scf=xqc
 -----------------------------------------------------------

 -------------------------------
 CID_130906279_JID_4063_neutraal
 -------------------------------
 Symbolic Z-matrix:
 Charge =  0 Multiplicity = 1

 SCF Done:  E(RB3LYP) =  -1009.54167329     A.U. after   14 cycles
 SCF Done:  E(RB3LYP) =  -1009.54577352     A.U. after   12 cycles
 SCF Done:  E(RB3LYP) =  -1009.54639012     A.U. after   12 cycles
 SCF Done:  E(RB3LYP) =  -1009.54667649     A.U. after   11 cycles
 SCF Done:  E(RB3LYP) =  -1009.54682554     A.U. after   10 cycles
 SCF Done:  E(RB3LYP) =  -1009.54690929     A.U. after   10 cycles
 SCF Done:  E(RB3LYP) =  -1009.54695915     A.U. after   11 cycles
 SCF Done:  E(RB3LYP) =  -1009.54700031     A.U. after   11 cycles
 SCF Done:  E(RB3LYP) =  -1009.54703337     A.U. after   11 cycles
 SCF Done:  E(RB3LYP) =  -1009.54704417     A.U. after   10 cycles
 SCF Done:  E(RB3LYP) =  -1009.54743178     A.U. after    8 cycles
 SCF Done:  E(RB3LYP) =  -1009.54743218     A.U. after    8 cycles
 SCF Done:  E(RB3LYP) =  -1009.54743235     A.U. after    8 cycles
 SCF Done:  E(RB3LYP) =  -1009.54743238     A.U. after    7 cycles
 SCF Done:  E(RB3LYP) =  -1009.54743239     A.U. after    7 cycles
 Optimization completed.
    -- Stationary point found.
 Normal termination of Gaussian 16 at Mon Dec 14 13:36:22 2020.

 --------------------------------------------------------------------
 #N Geom=AllCheck Guess=TCheck SCRF=Check GenChk RB3LYP/6-31G(d) Freq
 --------------------------------------------------------------------

 Structure from the checkpoint file:  "JID_4063.chk"
 -------------------------------
 CID_130906279_JID_4063_neutraal
 -------------------------------
 Charge =  0 Multiplicity = 1

 SCF Done:  E(RB3LYP) =  -1009.54743239     A.U. after    1 cycles

  Exact polarizability: 154.357  12.727 115.331  -6.709   2.590 103.486
 Approx polarizability: 198.141  16.346 177.145 -16.326  11.850 167.992

                      1                      2                      3
                      A                      A                      A
 Frequencies --     23.0339                43.8422                62.8359
 Red. masses --      6.0897                 5.0084                 3.2166
 Frc consts  --      0.0019                 0.0057                 0.0075
 IR Inten    --      0.4367                 1.9725                 2.4719

                      4                      5                      6
                      A                      A                      A
 Frequencies --     75.4372               124.3740               128.8239
 Red. masses --      4.8221                 4.3849                 5.1736
 Frc consts  --      0.0162                 0.0400                 0.0506
 IR Inten    --      0.9678                 1.2885                 1.7380

                      7                      8                      9
                      A                      A                      A
 Frequencies --    178.2355               190.6631               231.0434
 Red. masses --      2.3210                 3.7030                 1.2142
 Frc consts  --      0.0434                 0.0793                 0.0382
 IR Inten    --      4.0896                 1.7143                 0.4625

                     10                     11                     12
                      A                      A                      A
 Frequencies --    253.2786               262.2506               316.8134
 Red. masses --      2.7704                 2.9568                 2.9050
 Frc consts  --      0.1047                 0.1198                 0.1718
 IR Inten    --      1.2438                 6.2987                 2.6071

                     13                     14                     15
                      A                      A                      A
 Frequencies --    342.4244               353.8379               412.5175
 Red. masses --      3.5981                 3.0849                 1.3680
 Frc consts  --      0.2486                 0.2276                 0.1372
 IR Inten    --      0.1248                 0.4128               124.0456

                     16                     17                     18
                      A                      A                      A
 Frequencies --    416.9587               462.6711               518.0597
 Red. masses --      3.0628                 4.3762                 4.6665
 Frc consts  --      0.3137                 0.5519                 0.7379
 IR Inten    --      7.5958                26.8070                 7.0005

                     19                     20                     21
                      A                      A                      A
 Frequencies --    599.7699               628.3912               666.5312
 Red. masses --      3.5114                 3.1805                 1.4568
 Frc consts  --      0.7442                 0.7399                 0.3813
 IR Inten    --      4.4378                 6.5078                34.5740

                     22                     23                     24
                      A                      A                      A
 Frequencies --    706.8305               727.1750               737.5525
 Red. masses --      4.7358                 3.3364                 5.8363
 Frc consts  --      1.3940                 1.0395                 1.8706
 IR Inten    --      1.5326                 1.7562                10.2832

                     25                     26                     27
                      A                      A                      A
 Frequencies --    759.4555               794.3771               857.7856
 Red. masses --      5.3534                 4.8313                 1.8929
 Frc consts  --      1.8192                 1.7962                 0.8206
 IR Inten    --      6.3965                10.9427                 3.2925

                     28                     29                     30
                      A                      A                      A
 Frequencies --    926.9398               930.3757               950.4187
 Red. masses --      3.1122                 3.4318                 1.9997
 Frc consts  --      1.5755                 1.7502                 1.0642
 IR Inten    --      2.6141                15.5950                 1.1626

                     31                     32                     33
                      A                      A                      A
 Frequencies --    986.5403               991.0918               997.9388
 Red. masses --      1.1892                 2.8490                 1.5759
 Frc consts  --      0.6819                 1.6488                 0.9247
 IR Inten    --      5.5374                25.3390                12.9320

                     34                     35                     36
                      A                      A                      A
 Frequencies --   1016.1872              1026.6854              1054.2065
 Red. masses --      1.6040                 2.5162                 2.8743
 Frc consts  --      0.9759                 1.5627                 1.8820
 IR Inten    --     16.8675                 1.0701                30.1576

                     37                     38                     39
                      A                      A                      A
 Frequencies --   1071.6733              1090.3088              1101.4769
 Red. masses --      4.2024                 3.7849                 1.8696
 Frc consts  --      2.8437                 2.6510                 1.3364
 IR Inten    --     79.2163                15.7530                 4.0306

                     40                     41                     42
                      A                      A                      A
 Frequencies --   1108.6560              1199.2392              1213.1875
 Red. masses --      2.0268                 1.7177                 1.5981
 Frc consts  --      1.4678                 1.4555                 1.3858
 IR Inten    --     11.0766                 5.1974                42.0817

                     43                     44                     45
                      A                      A                      A
 Frequencies --   1218.7576              1232.6375              1239.0246
 Red. masses --      1.1837                 1.8648                 1.3107
 Frc consts  --      1.0359                 1.6693                 1.1856
 IR Inten    --      4.3304                 8.2476                29.8446

                     46                     47                     48
                      A                      A                      A
 Frequencies --   1255.5499              1288.3616              1318.7730
 Red. masses --      1.6284                 1.2651                 1.4083
 Frc consts  --      1.5125                 1.2372                 1.4430
 IR Inten    --      4.1449                 2.5248                11.8661

                     49                     50                     51
                      A                      A                      A
 Frequencies --   1331.0225              1345.1972              1374.6321
 Red. masses --      3.3659                 1.3146                 1.2346
 Frc consts  --      3.5133                 1.4016                 1.3745
 IR Inten    --     44.6871                 1.2950                 5.2368

                     52                     53                     54
                      A                      A                      A
 Frequencies --   1377.5164              1395.7548              1403.2429
 Red. masses --      1.4229                 1.2180                 1.4850
 Frc consts  --      1.5908                 1.3981                 1.7228
 IR Inten    --      3.2406                 2.2291                28.2656

                     55                     56                     57
                      A                      A                      A
 Frequencies --   1448.9475              1458.5482              1502.8523
 Red. masses --      4.2415                 1.4231                 1.0561
 Frc consts  --      5.2465                 1.7837                 1.4054
 IR Inten    --     94.7716               134.5141                 6.4127

                     58                     59                     60
                      A                      A                      A
 Frequencies --   1514.5448              1517.1504              1534.7816
 Red. masses --      1.0612                 1.0823                 1.1010
 Frc consts  --      1.4342                 1.4677                 1.5281
 IR Inten    --      8.6641                13.4265                 0.8731

                     61                     62                     63
                      A                      A                      A
 Frequencies --   1552.6390              1564.1759              1658.5282
 Red. masses --      1.0799                 1.0896                 7.3547
 Frc consts  --      1.5338                 1.5707                11.9196
 IR Inten    --     11.4025                24.2383               134.1950

                     64                     65                     66
                      A                      A                      A
 Frequencies --   1695.0279              2980.8417              3028.0243
 Red. masses --      9.4394                 1.0730                 1.0735
 Frc consts  --     15.9789                 5.6171                 5.7991
 IR Inten    --    562.8386                68.3640                56.2892

                     67                     68                     69
                      A                      A                      A
 Frequencies --   3055.8897              3060.0297              3073.5572
 Red. masses --      1.0735                 1.0593                 1.0304
 Frc consts  --      5.9066                 5.8443                 5.7349
 IR Inten    --     27.8679                19.9362                15.0852

                     70                     71                     72
                      A                      A                      A
 Frequencies --   3096.7317              3104.0757              3109.7310
 Red. masses --      1.1035                 1.0905                 1.0867
 Frc consts  --      6.2348                 6.1909                 6.1915
 IR Inten    --     38.0440                34.1563                21.8837

                     73                     74                     75
                      A                      A                      A
 Frequencies --   3138.0960              3147.6916              3154.6063
 Red. masses --      1.0920                 1.0966                 1.1045
 Frc consts  --      6.3360                 6.4013                 6.4758
 IR Inten    --      5.7909                10.5464                 8.3896

                     76                     77                     78
                      A                      A                      A
 Frequencies --   3165.3296              3323.4415              3704.9027
 Red. masses --      1.1067                 1.1001                 1.0656
 Frc consts  --      6.5330                 7.1590                 8.6178
 IR Inten    --      8.3270                 0.6067                31.3815

 - Thermochemistry -
 -------------------
 Temperature   298.150 Kelvin.  Pressure   1.00000 Atm.
 Atom     1 has atomic number  6 and mass  12.00000

 Molecular mass:   214.07760 amu.
 Principal axes and moments of inertia in atomic units:
                           1         2         3
     Eigenvalues --  1399.174285562.275425801.12015
           X            0.99987   0.01448  -0.00690
           Y           -0.01458   0.99980  -0.01403
           Z            0.00670   0.01413   0.99988
 This molecule is an asymmetric top.
 Rotational symmetry number  1.
 Warning -- assumption of classical behavior for rotation
           may cause significant error
 Rotational temperatures (Kelvin)      0.06190     0.01557     0.01493
 Rotational constants (GHZ):           1.28986     0.32446     0.31110
 Zero-point vibrational energy     609560.2 (Joules/Mol)
                                  145.68839 (Kcal/Mol)
 Warning -- explicit consideration of  19 degrees of freedom as
           vibrations may cause significant error
 Vibrational temperatures:     33.14    63.08    90.41   108.54   178.95
          (Kelvin)            185.35   256.44   274.32   332.42   364.41
                              377.32   455.82   492.67   509.09   593.52
                              599.91   665.68   745.37   862.94   904.11
                              958.99  1016.97  1046.24  1061.17  1092.69
                             1142.93  1234.16  1333.66  1338.60  1367.44
                             1419.41  1425.96  1435.81  1462.07  1477.17
                             1516.77  1541.90  1568.71  1584.78  1595.11
                             1725.44  1745.51  1753.52  1773.49  1782.68
                             1806.46  1853.66  1897.42  1915.04  1935.44
                             1977.79  1981.94  2008.18  2018.95  2084.71
                             2098.53  2162.27  2179.09  2182.84  2208.21
                             2233.90  2250.50  2386.25  2438.77  4288.77
                             4356.65  4396.74  4402.70  4422.16  4455.51
                             4466.07  4474.21  4515.02  4528.83  4538.77
                             4554.20  4781.69  5330.53

 Zero-point correction=                           0.232169 (Hartree/Particle)
 Thermal correction to Energy=                    0.246159
 Thermal correction to Enthalpy=                  0.247103
 Thermal correction to Gibbs Free Energy=         0.189638
 Sum of electronic and zero-point Energies=          -1009.315263
 Sum of electronic and thermal Energies=             -1009.301273
 Sum of electronic and thermal Enthalpies=           -1009.300329
 Sum of electronic and thermal Free Energies=        -1009.357794

                     E (Thermal)             CV                S
                      KCal/Mol        Cal/Mol-Kelvin    Cal/Mol-Kelvin
 Total                  154.467             51.624            120.945
 Electronic               0.000              0.000              0.000
 Translational            0.889              2.981             41.987
 Rotational               0.889              2.981             32.179
 Vibrational            152.690             45.663             46.779
 Vibration     1          0.593              1.985              6.354
 Vibration     2          0.595              1.980              5.077
 Vibration     3          0.597              1.972              4.366
 Vibration     4          0.599              1.965              4.006
 Vibration     5          0.610              1.929              3.031
 Vibration     6          0.611              1.924              2.964
 Vibration     7          0.629              1.869              2.347
 Vibration     8          0.634              1.853              2.221
 Vibration     9          0.653              1.794              1.871
 Vibration    10          0.664              1.757              1.708
 Vibration    11          0.670              1.742              1.647
 Vibration    12          0.704              1.641              1.327
 Vibration    13          0.722              1.591              1.201
 Vibration    14          0.730              1.567              1.149
 Vibration    15          0.776              1.443              0.918
 Vibration    16          0.780              1.433              0.902
 Vibration    17          0.820              1.333              0.758
 Vibration    18          0.873              1.210              0.614
 Vibration    19          0.958              1.032              0.450

                           ! Non-Optimized Parameters !
 Normal termination of Gaussian 16 at Mon Dec 14 13:44:12 2020.

 ----------------------------------------------------------------------
 # B3LYP/6-311++G(d,p) empiricaldispersion=gd3bj scf=xqc pop=npa geom=c
 heck
 ----------------------------------------------------------------------

 ---------------------------------------
 CID_130906279_JID_4063_Energie_neutraal
 ---------------------------------------
 Structure from the checkpoint file:  "JID_4063.chk"
 Charge =  0 Multiplicity = 1

 SCF Done:  E(RB3LYP) =  -1009.75369447     A.U. after   14 cycles
 Normal termination of Gaussian 16 at Mon Dec 14 13:47:02 2020.

 ----------------------------------------------------------------------
 # B3LYP/6-311++G(d,p) empiricaldispersion=gd3bj scf=xqc pop=npa geom=c
 heck
 ----------------------------------------------------------------------

 -------------------------------------
 CID_130906279_JID_4063_Energie_kation
 -------------------------------------
 Structure from the checkpoint file:  "JID_4063.chk"
 Charge =  1 Multiplicity = 2

 SCF Done:  E(UB3LYP) =  -1009.47629637     A.U. after   23 cycles
 Normal termination of Gaussian 16 at Mon Dec 14 13:53:18 2020.
 Gaussian 16:  ES64L-G16RevA.03 25-Dec-2016

 ----------------------------------------------------------------------
 # B3LYP/6-311++G(d,p) empiricaldispersion=gd3bj scf=xqc pop=npa geom=c
 heck
 ----------------------------------------------------------------------

 ------------------------------------
 CID_130906279_JID_4063_Energie_anion
 ------------------------------------
 Structure from the checkpoint file:  "JID_4063.chk"
 Charge = -1 Multiplicity = 2

                         Standard orientation:
 ---------------------------------------------------------------------
 Center     Atomic      Atomic             Coordinates (Angstroms)
 Number     Number       Type             X           Y           Z
 ---------------------------------------------------------------------
      1          6           0        1.581744   -1.542030    1.245212
      2         16           0        3.215642   -0.935633    0.688780
      3          6           0        2.822976    0.435780   -0.483892
      4          6           0        2.446932    1.773797    0.182885
      5          6           0        0.926666    1.691503    0.387032
      6          7           0        0.496586    0.747637   -0.649975
      7          6           0        1.614674    0.160217   -1.390601
      8          6           0       -0.720932    0.167846   -0.560068
      9          7           0       -1.681354    0.460753    0.278307
     10          6           0       -2.707018   -0.432105   -0.056860
     11          6           0       -2.309969   -1.218973   -1.079761
     12          8           0       -1.007057   -0.846716   -1.419604
     13          6           0       -3.986602   -0.363672    0.716193
     14          8           0       -4.450150    0.974822    0.817028
     15          1           0        1.800869   -2.383474    1.907825
     16          1           0        0.976999   -1.909662    0.412811
     17          1           0        1.021122   -0.792902    1.807309
     18          1           0        3.743058    0.526487   -1.067140
     19          1           0        2.689651    2.593412   -0.504924
     20          1           0        2.986657    1.942400    1.116241
     21          1           0        0.657263    1.307691    1.377903
     22          1           0        0.426455    2.657734    0.265476
     23          1           0        1.742818    0.661999   -2.359889
     24          1           0        1.443369   -0.900041   -1.584685
     25          1           0       -2.743816   -2.014791   -1.661138
     26          1           0       -4.769748   -0.947562    0.223003
     27          1           0       -3.829246   -0.797665    1.718292
     28          1           0       -3.655514    1.508745    0.989892
 ---------------------------------------------------------------------

 SCF Done:  E(UB3LYP) =  -1009.74305545     A.U. after   33 cycles
 SCF Done:  E(UB3LYP) =  -1009.74305545     a.u. after    1 cycles

 The electronic state is 2-A.
 Alpha  occ. eigenvalues --  -88.74249 -19.10120 -19.03402 -14.25228 -14.20637
 Alpha  occ. eigenvalues --  -10.20075 -10.13799 -10.12855 -10.11687 -10.11487
 Alpha  occ. eigenvalues --  -10.11312 -10.11212 -10.09643 -10.08056  -7.82844
 Alpha  occ. eigenvalues --   -5.79255  -5.78874  -5.78196  -1.03892  -0.93797
 Alpha  occ. eigenvalues --   -0.87896  -0.82452  -0.73256  -0.68319  -0.66038
 Alpha  occ. eigenvalues --   -0.64649  -0.60557  -0.56742  -0.53572  -0.51511
 Alpha  occ. eigenvalues --   -0.48207  -0.46960  -0.45959  -0.41902  -0.40621
 Alpha  occ. eigenvalues --   -0.39489  -0.37658  -0.36804  -0.35182  -0.34820
 Alpha  occ. eigenvalues --   -0.33335  -0.32730  -0.32503  -0.31266  -0.30862
 Alpha  occ. eigenvalues --   -0.29874  -0.27981  -0.27313  -0.26576  -0.24836
 Alpha  occ. eigenvalues --   -0.22641  -0.21208  -0.20726  -0.19629  -0.19018
 Alpha  occ. eigenvalues --   -0.13137  -0.11321   0.04183
 Alpha virt. eigenvalues --    0.06029   0.06998   0.07658   0.08433   0.08690
 Alpha virt. eigenvalues --    0.09300   0.09791   0.10308   0.10670   0.11154
 Alpha virt. eigenvalues --    0.11595   0.11881   0.12715   0.13124   0.13558

  Beta  occ. eigenvalues --  -88.74245 -19.10114 -19.03399 -14.25231 -14.20630
  Beta  occ. eigenvalues --  -10.20074 -10.13789 -10.12842 -10.11648 -10.11475
  Beta  occ. eigenvalues --  -10.11313 -10.11190 -10.09602 -10.08021  -7.82840
  Beta  occ. eigenvalues --   -5.79248  -5.78870  -5.78194  -1.03883  -0.93789
  Beta  occ. eigenvalues --   -0.87882  -0.82441  -0.73219  -0.68289  -0.66001
  Beta  occ. eigenvalues --   -0.64595  -0.60529  -0.56691  -0.53519  -0.51487
  Beta  occ. eigenvalues --   -0.48175  -0.46910  -0.45917  -0.41853  -0.40601
  Beta  occ. eigenvalues --   -0.39450  -0.37628  -0.36782  -0.35137  -0.34790
  Beta  occ. eigenvalues --   -0.33311  -0.32693  -0.32467  -0.31224  -0.30835
  Beta  occ. eigenvalues --   -0.29830  -0.27928  -0.27280  -0.26558  -0.24772
  Beta  occ. eigenvalues --   -0.22626  -0.21178  -0.20715  -0.19612  -0.19005
  Beta  occ. eigenvalues --   -0.13117  -0.11304
  Beta virt. eigenvalues --    0.06297   0.07159   0.07659   0.08041   0.08907
  Beta virt. eigenvalues --    0.09214   0.09650   0.10094   0.10568   0.11012
  Beta virt. eigenvalues --    0.11485   0.11875   0.12039   0.12953   0.13371

 Mulliken charges and spin densities:
               1          2
     1  C   -0.131232  -0.499237
     2  S    0.276601  -0.433246
     3  C   -0.540536   1.175985
     4  C    0.852337  -1.666298
     5  C    0.368576  -0.477771
     6  N   -0.091488   0.168074
     7  C    1.106636  -1.746205
     8  C   -0.251794  -0.113196
     9  N   -0.251531   0.141362
    10  C    0.879660  -0.560818
    11  C   -0.853836   0.704556
    12  O   -0.082706   0.038991
    13  C    0.294478  -0.812228
    14  O   -0.287427   0.019356
    15  H   -0.165720   0.382841
    16  H    0.025068   0.146476
    17  H   -0.061832   0.209012
    18  H   -0.473156   0.787992
    19  H   -0.447901   0.638501
    20  H   -0.175192   0.341283
    21  H    0.056687   0.112912
    22  H   -0.079196   0.268016
    23  H   -0.604530   0.811784
    24  H    0.046133   0.175971
    25  H   -0.673048   0.852872
    26  H    0.068303   0.116491
    27  H   -0.011187   0.160696
    28  H    0.207833   0.055829
 Sum of Mulliken charges =  -1.00000   1.00000

 Dipole moment (field-independent basis, Debye):
    X=             -2.6882    Y=             -2.0519    Z=              2.5169  Tot=              4.2156
 Quadrupole moment (field-independent basis, Debye-Ang):
   XX=           -166.7704   YY=           -135.0973   ZZ=           -131.5465
   XY=             -3.8812   XZ=              7.4568   YZ=              4.7825

 Summary of Natural Population Analysis:

                                       Natural Population
                Natural  -----------------------------------------------
    Atom  No    Charge         Core      Valence    Rydberg      Total
 -----------------------------------------------------------------------
      C    1   -0.35361      0.99961     2.34783    0.00617     3.35361
      S    2    0.08855      4.99962     2.89426    0.01757     7.91145
      C    3   -0.17242      0.99956     2.15732    0.01554     3.17242
      C    4   -0.19995      0.99960     2.19033    0.01002     3.19995
      C    5   -0.07825      0.99962     2.06765    0.01098     3.07825
      N    6   -0.25628      0.99963     2.74417    0.01248     3.75628
      C    7   -0.08542      0.99958     2.07348    0.01236     3.08542
      C    8    0.37297      0.99956     1.60843    0.01905     2.62703
      N    9   -0.30560      0.99966     2.79652    0.00941     3.80560
      C   10    0.03290      0.99954     1.95400    0.01356     2.96710
      C   11    0.02377      0.99940     1.96241    0.01442     2.97623
      O   12   -0.24655      0.99986     3.23945    0.00724     4.24655
      C   13   -0.01813      0.99956     2.00662    0.01195     3.01813
      O   14   -0.36915      0.99990     3.36280    0.00645     4.36915
      H   15    0.10891      0.00000     0.38999    0.00110     0.39109
      H   16    0.10271      0.00000     0.39540    0.00189     0.39729
      H   17    0.10270      0.00000     0.39548    0.00182     0.39730
      H   18    0.11601      0.00000     0.38160    0.00239     0.38399
      H   19    0.10733      0.00000     0.38882    0.00385     0.39267
      H   20    0.10836      0.00000     0.39003    0.00161     0.39164
      H   21    0.09683      0.00000     0.40135    0.00182     0.40317
      H   22    0.10234      0.00000     0.39624    0.00142     0.39766
      H   23    0.10529      0.00000     0.39134    0.00337     0.39471
      H   24    0.10875      0.00000     0.38917    0.00208     0.39125
      H   25    0.10084      0.00000     0.39782    0.00134     0.39916
      H   26    0.08976      0.00000     0.40873    0.00151     0.41024
      H   27    0.08206      0.00000     0.41628    0.00166     0.41794
      H   28    0.23529      0.00000     0.26106    0.00365     0.26471
 =======================================================================
   * Total *   -0.00000     17.99470    38.80857    0.19672    57.00000

 Normal termination of Gaussian 16 at Mon Dec 14 14:03:35 2020.
