 Gaussian 16, Revision A.03,

 -----------------------------------------------------------
 # opt freq B3LYP/6-31G(d) empiricaldispersion=gd3bj scf=xqc
 -----------------------------------------------------------

 -------------------------------
 CID_20709497_JID_10145_neutraal
 -------------------------------
 Symbolic Z-matrix:
 Charge =  0 Multiplicity = 1

 SCF Done:  E(RB3LYP) =  -865.716801430     A.U. after   14 cycles
 SCF Done:  E(RB3LYP) =  -865.720759317     A.U. after   12 cycles
 SCF Done:  E(RB3LYP) =  -865.721172294     A.U. after   12 cycles
 SCF Done:  E(RB3LYP) =  -865.721533753     A.U. after   11 cycles
 SCF Done:  E(RB3LYP) =  -865.721669935     A.U. after   11 cycles
 SCF Done:  E(RB3LYP) =  -865.721751533     A.U. after   11 cycles
 SCF Done:  E(RB3LYP) =  -865.721790046     A.U. after   10 cycles
 SCF Done:  E(RB3LYP) =  -865.721800006     A.U. after   10 cycles
 SCF Done:  E(RB3LYP) =  -865.721802807     A.U. after    9 cycles
 SCF Done:  E(RB3LYP) =  -865.721803661     A.U. after    9 cycles
 SCF Done:  E(RB3LYP) =  -865.721804218     A.U. after    8 cycles
 SCF Done:  E(RB3LYP) =  -865.721804388     A.U. after    7 cycles
 SCF Done:  E(RB3LYP) =  -865.721804438     A.U. after    7 cycles
 SCF Done:  E(RB3LYP) =  -865.721804472     A.U. after    6 cycles
 Optimization completed.
    -- Stationary point found.
 Normal termination of Gaussian 16 at Mon Dec 14 18:54:37 2020.

 --------------------------------------------------------------------
 #N Geom=AllCheck Guess=TCheck SCRF=Check GenChk RB3LYP/6-31G(d) Freq
 --------------------------------------------------------------------

 Structure from the checkpoint file:  "JID_10145.chk"
 -------------------------------
 CID_20709497_JID_10145_neutraal
 -------------------------------
 Charge =  0 Multiplicity = 1

 SCF Done:  E(RB3LYP) =  -865.721804472     A.U. after    1 cycles

  Exact polarizability: 221.376   5.287 177.413  10.172   2.846 165.238
 Approx polarizability: 283.296  11.970 274.555  30.179  18.480 290.765

                      1                      2                      3
                      A                      A                      A
 Frequencies --     16.4635                21.0608                31.4149
 Red. masses --      4.3450                 2.9954                 3.6077
 Frc consts  --      0.0007                 0.0008                 0.0021
 IR Inten    --      0.0597                 0.0985                 1.1870

                      4                      5                      6
                      A                      A                      A
 Frequencies --     53.9817                70.5741                85.1471
 Red. masses --      4.0027                 4.2637                 3.6929
 Frc consts  --      0.0069                 0.0125                 0.0158
 IR Inten    --      0.5769                 1.6015                 1.4468

                      7                      8                      9
                      A                      A                      A
 Frequencies --    130.9481               151.4636               179.4392
 Red. masses --      4.6243                 4.2653                 3.8277
 Frc consts  --      0.0467                 0.0577                 0.0726
 IR Inten    --      2.5055                 1.5004                 0.4394

                     10                     11                     12
                      A                      A                      A
 Frequencies --    218.1645               237.0217               244.1027
 Red. masses --      1.4506                 1.7090                 1.4968
 Frc consts  --      0.0407                 0.0566                 0.0525
 IR Inten    --      0.8031                 0.4245                 0.3721

                     13                     14                     15
                      A                      A                      A
 Frequencies --    264.8218               272.7792               277.4136
 Red. masses --      1.5993                 2.9967                 1.3050
 Frc consts  --      0.0661                 0.1314                 0.0592
 IR Inten    --      0.5428                 0.6228                 0.2106

                     16                     17                     18
                      A                      A                      A
 Frequencies --    290.8426               295.1883               336.1096
 Red. masses --      1.9321                 1.4030                 3.0966
 Frc consts  --      0.0963                 0.0720                 0.2061
 IR Inten    --      0.9052                 0.2042                 1.2137

                     19                     20                     21
                      A                      A                      A
 Frequencies --    350.5545               355.5336               367.7898
 Red. masses --      3.2096                 2.8301                 2.5063
 Frc consts  --      0.2324                 0.2108                 0.1997
 IR Inten    --      0.0257                 4.1729                 2.7153

                     22                     23                     24
                      A                      A                      A
 Frequencies --    420.7689               425.4546               437.6696
 Red. masses --      3.2970                 3.1804                 4.0122
 Frc consts  --      0.3439                 0.3392                 0.4528
 IR Inten    --      0.2196                 0.7645                 2.2063

                     25                     26                     27
                      A                      A                      A
 Frequencies --    461.2919               477.4074               511.1588
 Red. masses --      5.1524                 3.2312                 3.2143
 Frc consts  --      0.6460                 0.4339                 0.4948
 IR Inten    --      5.8635                 0.8051                 5.7585

                     28                     29                     30
                      A                      A                      A
 Frequencies --    526.0581               541.5441               565.7164
 Red. masses --      3.4014                 3.3173                 2.4281
 Frc consts  --      0.5546                 0.5732                 0.4578
 IR Inten    --      7.4363                 4.6982                 4.2036

                     31                     32                     33
                      A                      A                      A
 Frequencies --    605.9050               650.2120               657.3334
 Red. masses --      4.7701                 7.1663                 6.0348
 Frc consts  --      1.0318                 1.7851                 1.5363
 IR Inten    --     14.9032                 2.4741                 8.6636

                     34                     35                     36
                      A                      A                      A
 Frequencies --    671.6259               713.4836               765.7436
 Red. masses --      5.0390                 3.6132                 4.3942
 Frc consts  --      1.3392                 1.0837                 1.5181
 IR Inten    --      3.4359                 1.7340                10.3651

                     37                     38                     39
                      A                      A                      A
 Frequencies --    781.8148               818.6754               831.3014
 Red. masses --      5.2109                 3.8232                 1.3169
 Frc consts  --      1.8766                 1.5097                 0.5362
 IR Inten    --      0.2788                 0.1393                12.8706

                     40                     41                     42
                      A                      A                      A
 Frequencies --    838.5644               847.3350               855.9191
 Red. masses --      1.7038                 1.5652                 4.1336
 Frc consts  --      0.7059                 0.6621                 1.7842
 IR Inten    --     51.4228                30.4071                 6.2874

                     43                     44                     45
                      A                      A                      A
 Frequencies --    871.9977               929.4373               942.7349
 Red. masses --      3.1468                 1.4132                 1.7475
 Frc consts  --      1.4098                 0.7193                 0.9151
 IR Inten    --      0.5921                 4.7745                 1.4793

                     46                     47                     48
                      A                      A                      A
 Frequencies --    952.2448               955.1108               958.6787
 Red. masses --      1.2654                 1.6678                 1.3148
 Frc consts  --      0.6760                 0.8964                 0.7119
 IR Inten    --      1.5560                 1.3088                 0.5480

                     49                     50                     51
                      A                      A                      A
 Frequencies --    961.6705               976.6443              1033.3546
 Red. masses --      1.3083                 1.2007                 2.7574
 Frc consts  --      0.7129                 0.6748                 1.7348
 IR Inten    --      0.6753                 0.0364                 4.8303

                     52                     53                     54
                      A                      A                      A
 Frequencies --   1035.9862              1047.2275              1057.6253
 Red. masses --      3.2190                 1.9706                 1.4172
 Frc consts  --      2.0355                 1.2733                 0.9340
 IR Inten    --      2.9724                 1.0041                 0.8025

                     55                     56                     57
                      A                      A                      A
 Frequencies --   1061.6995              1068.6276              1083.2602
 Red. masses --      1.4030                 5.1914                 5.8436
 Frc consts  --      0.9318                 3.4929                 4.0401
 IR Inten    --      0.0089               107.9431                57.6324

                     58                     59                     60
                      A                      A                      A
 Frequencies --   1147.8635              1171.0760              1186.6575
 Red. masses --      1.3128                 2.0065                 1.2712
 Frc consts  --      1.0191                 1.6213                 1.0547
 IR Inten    --      4.5201                 6.1741                 0.6655

                     61                     62                     63
                      A                      A                      A
 Frequencies --   1187.8131              1207.1100              1219.5062
 Red. masses --      1.4698                 1.1832                 1.4021
 Frc consts  --      1.2218                 1.0158                 1.2285
 IR Inten    --     18.1167                46.6970                 9.4960

                     64                     65                     66
                      A                      A                      A
 Frequencies --   1236.1088              1243.4217              1244.7992
 Red. masses --      2.6442                 2.6795                 2.5213
 Frc consts  --      2.3804                 2.4409                 2.3018
 IR Inten    --      9.1817                 3.8171                 1.0926

                     67                     68                     69
                      A                      A                      A
 Frequencies --   1269.9137              1294.7076              1305.4032
 Red. masses --      2.1294                 2.3807                 4.3154
 Frc consts  --      2.0233                 2.3513                 4.3327
 IR Inten    --    226.3927                53.5855               236.6556

                     70                     71                     72
                      A                      A                      A
 Frequencies --   1320.4385              1325.5751              1338.0162
 Red. masses --      2.2517                 1.6511                 2.4222
 Frc consts  --      2.3131                 1.7094                 2.5549
 IR Inten    --     27.8382                 0.4971                79.2083

                     73                     74                     75
                      A                      A                      A
 Frequencies --   1350.4503              1365.0759              1422.3509
 Red. masses --      1.6991                 3.7408                 1.5507
 Frc consts  --      1.8257                 4.1071                 1.8484
 IR Inten    --     45.5357                74.2636                 7.9459

                     76                     77                     78
                      A                      A                      A
 Frequencies --   1425.1271              1427.4907              1443.3694
 Red. masses --      1.2153                 1.2777                 2.9349
 Frc consts  --      1.4543                 1.5341                 3.6025
 IR Inten    --      3.3126                10.3404                21.5889

                     79                     80                     81
                      A                      A                      A
 Frequencies --   1457.8936              1472.9152              1500.7670
 Red. masses --      1.2229                 2.6716                 1.2004
 Frc consts  --      1.5314                 3.4149                 1.5930
 IR Inten    --      0.5422                 9.1381                15.2198

                     82                     83                     84
                      A                      A                      A
 Frequencies --   1508.3900              1511.5447              1515.8418
 Red. masses --      1.0493                 1.0532                 1.0462
 Frc consts  --      1.4067                 1.4177                 1.4164
 IR Inten    --      0.0827                 0.2662                 0.0327

                     85                     86                     87
                      A                      A                      A
 Frequencies --   1521.4033              1522.5216              1530.5829
 Red. masses --      1.0480                 1.3741                 1.0518
 Frc consts  --      1.4292                 1.8767                 1.4517
 IR Inten    --      6.7552                40.1784                 4.0217

                     88                     89                     90
                      A                      A                      A
 Frequencies --   1532.4665              1535.1577              1535.6830
 Red. masses --      1.4665                 1.0804                 1.0652
 Frc consts  --      2.0291                 1.5002                 1.4801
 IR Inten    --     60.3846                 9.7760                38.2967

                     91                     92                     93
                      A                      A                      A
 Frequencies --   1549.3591              1570.5721              1622.1185
 Red. masses --      1.2223                 2.4477                 5.9163
 Frc consts  --      1.7288                 3.5573                 9.1721
 IR Inten    --     60.6657                94.5506                42.4518

                     94                     95                     96
                      A                      A                      A
 Frequencies --   1639.5056              1656.9273              1679.4756
 Red. masses --      6.6200                 5.9711                 5.7254
 Frc consts  --     10.4842                 9.6586                 9.5148
 IR Inten    --     15.1365                14.5135                64.7595

                     97                     98                     99
                      A                      A                      A
 Frequencies --   3027.1061              3030.0989              3042.4715
 Red. masses --      1.0349                 1.0665                 1.0344
 Frc consts  --      5.5871                 5.7694                 5.6415
 IR Inten    --     56.8966                41.3792                27.4465

                    100                    101                    102
                      A                      A                      A
 Frequencies --   3045.6915              3057.0127              3086.3120
 Red. masses --      1.0353                 1.0386                 1.1067
 Frc consts  --      5.6586                 5.7189                 6.2110
 IR Inten    --     22.1616                38.9846                41.3409

                    103                    104                    105
                      A                      A                      A
 Frequencies --   3093.3659              3108.4430              3112.6637
 Red. masses --      1.0978                 1.1022                 1.1013
 Frc consts  --      6.1892                 6.2746                 6.2868
 IR Inten    --     26.0640                 2.1860                58.7363

                    106                    107                    108
                      A                      A                      A
 Frequencies --   3117.5781              3119.5275              3126.5235
 Red. masses --      1.1032                 1.1020                 1.0988
 Frc consts  --      6.3171                 6.3187                 6.3285
 IR Inten    --     14.4728                35.8574                59.7975

                    109                    110                    111
                      A                      A                      A
 Frequencies --   3143.5929              3161.0330              3174.5176
 Red. masses --      1.1022                 1.0998                 1.0889
 Frc consts  --      6.4175                 6.4749                 6.4653
 IR Inten    --     25.2411                27.1475                15.1360

                    112                    113                    114
                      A                      A                      A
 Frequencies --   3175.5207              3202.1901              3206.8818
 Red. masses --      1.0904                 1.0892                 1.0885
 Frc consts  --      6.4782                 6.5803                 6.5955
 IR Inten    --     24.3358                13.2813                 5.8979

                    115                    116                    117
                      A                      A                      A
 Frequencies --   3217.4887              3231.2255              3239.4775
 Red. masses --      1.0928                 1.0920                 1.0923
 Frc consts  --      6.6652                 6.7175                 6.7540
 IR Inten    --      7.2322                 9.5706                 7.4939

 - Thermochemistry -
 -------------------
 Temperature   298.150 Kelvin.  Pressure   1.00000 Atm.
 Atom     1 has atomic number  6 and mass  12.00000

 Molecular mass:   271.15723 amu.
 Principal axes and moments of inertia in atomic units:
                           1         2         3
     Eigenvalues --  3042.63405********************
           X            0.99995  -0.00796  -0.00617
           Y            0.00782   0.99971  -0.02287
           Z            0.00635   0.02282   0.99972
 This molecule is an asymmetric top.
 Rotational symmetry number  1.
 Warning -- assumption of classical behavior for rotation
           may cause significant error
 Rotational temperatures (Kelvin)      0.02847     0.00729     0.00652
 Rotational constants (GHZ):           0.59315     0.15199     0.13589
 Zero-point vibrational energy     916974.8 (Joules/Mol)
                                  219.16225 (Kcal/Mol)
 Warning -- explicit consideration of  31 degrees of freedom as
           vibrations may cause significant error
 Vibrational temperatures:     23.69    30.30    45.20    77.67   101.54
          (Kelvin)            122.51   188.41   217.92   258.17   313.89
                              341.02   351.21   381.02   392.47   399.14
                              418.46   424.71   483.59   504.37   511.53
                              529.17   605.39   612.13   629.71   663.70
                              686.88   735.44   756.88   779.16   813.94
                              871.76   935.51   945.76   966.32  1026.54
                             1101.73  1124.86  1177.89  1196.06  1206.51
                             1219.13  1231.48  1254.61  1337.25  1356.39
                             1370.07  1374.19  1379.32  1383.63  1405.17
                             1486.77  1490.55  1506.73  1521.69  1527.55
                             1537.52  1558.57  1651.52  1684.92  1707.34
                             1709.00  1736.76  1754.60  1778.48  1789.01
                             1790.99  1827.12  1862.80  1878.18  1899.82
                             1907.21  1925.11  1943.00  1964.04  2046.45
                             2050.44  2053.84  2076.69  2097.58  2119.20
                             2159.27  2170.24  2174.78  2180.96  2188.96
                             2190.57  2202.17  2204.88  2208.75  2209.51
                             2229.18  2259.70  2333.87  2358.88  2383.95
                             2416.39  4355.33  4359.64  4377.44  4382.07
                             4398.36  4440.51  4450.66  4472.36  4478.43
                             4485.50  4488.30  4498.37  4522.93  4548.02
                             4567.42  4568.87  4607.24  4613.99  4629.25
                             4649.01  4660.89

 Zero-point correction=                           0.349257 (Hartree/Particle)
 Thermal correction to Energy=                    0.368477
 Thermal correction to Enthalpy=                  0.369421
 Thermal correction to Gibbs Free Energy=         0.299727
 Sum of electronic and zero-point Energies=           -865.372547
 Sum of electronic and thermal Energies=              -865.353328
 Sum of electronic and thermal Enthalpies=            -865.352383
 Sum of electronic and thermal Free Energies=         -865.422077

                     E (Thermal)             CV                S
                      KCal/Mol        Cal/Mol-Kelvin    Cal/Mol-Kelvin
 Total                  231.223             74.423            146.683
 Electronic               0.000              0.000              0.000
 Translational            0.889              2.981             42.691
 Rotational               0.889              2.981             34.528
 Vibrational            229.445             68.462             69.464
 Vibration     1          0.593              1.986              7.021
 Vibration     2          0.593              1.985              6.532
 Vibration     3          0.594              1.983              5.738
 Vibration     4          0.596              1.976              4.666
 Vibration     5          0.598              1.968              4.137
 Vibration     6          0.601              1.959              3.769
 Vibration     7          0.612              1.922              2.932
 Vibration     8          0.619              1.901              2.654
 Vibration     9          0.629              1.868              2.334
 Vibration    10          0.646              1.813              1.974
 Vibration    11          0.656              1.784              1.825
 Vibration    12          0.659              1.773              1.773
 Vibration    13          0.671              1.737              1.630
 Vibration    14          0.676              1.724              1.579
 Vibration    15          0.678              1.715              1.550
 Vibration    16          0.687              1.691              1.469
 Vibration    17          0.689              1.683              1.444
 Vibration    18          0.717              1.603              1.231
 Vibration    19          0.727              1.574              1.164
 Vibration    20          0.731              1.564              1.142
 Vibration    21          0.740              1.538              1.089
 Vibration    22          0.783              1.425              0.889
 Vibration    23          0.787              1.415              0.874
 Vibration    24          0.798              1.388              0.834
 Vibration    25          0.819              1.336              0.762
 Vibration    26          0.834              1.300              0.717
 Vibration    27          0.866              1.225              0.631
 Vibration    28          0.881              1.192              0.596
 Vibration    29          0.897              1.158              0.562
 Vibration    30          0.922              1.105              0.513
 Vibration    31          0.965              1.019              0.440

 Optimization completed.
    -- Stationary point found.
 Normal termination of Gaussian 16 at Mon Dec 14 19:13:47 2020.

 ----------------------------------------------------------------------
 # B3LYP/6-311++G(d,p) empiricaldispersion=gd3bj scf=xqc pop=npa geom=c
 heck
 ----------------------------------------------------------------------

 ---------------------------------------
 CID_20709497_JID_10145_Energie_neutraal
 ---------------------------------------
 Structure from the checkpoint file:  "JID_10145.chk"
 Charge =  0 Multiplicity = 1

 SCF Done:  E(RB3LYP) =  -865.951663579     A.U. after   15 cycles
 Normal termination of Gaussian 16 at Mon Dec 14 19:23:06 2020.

 ----------------------------------------------------------------------
 # B3LYP/6-311++G(d,p) empiricaldispersion=gd3bj scf=xqc pop=npa geom=c
 heck
 ----------------------------------------------------------------------

 -------------------------------------
 CID_20709497_JID_10145_Energie_kation
 -------------------------------------
 Structure from the checkpoint file:  "JID_10145.chk"
 Charge =  1 Multiplicity = 2

 SCF Done:  E(UB3LYP) =  -865.667774592     A.U. after   24 cycles
 Normal termination of Gaussian 16 at Mon Dec 14 19:43:54 2020.
 Gaussian 16:  ES64L-G16RevA.03 25-Dec-2016

 ----------------------------------------------------------------------
 # B3LYP/6-311++G(d,p) empiricaldispersion=gd3bj scf=xqc pop=npa geom=c
 heck
 ----------------------------------------------------------------------

 ------------------------------------
 CID_20709497_JID_10145_Energie_anion
 ------------------------------------
 Structure from the checkpoint file:  "JID_10145.chk"
 Charge = -1 Multiplicity = 2

                         Standard orientation:
 ---------------------------------------------------------------------
 Center     Atomic      Atomic             Coordinates (Angstroms)
 Number     Number       Type             X           Y           Z
 ---------------------------------------------------------------------
      1          6           0       -5.154393    0.811985   -1.017131
      2          6           0       -4.155194    1.040982    0.126413
      3          6           0       -3.681352    2.509879    0.091020
      4          6           0       -4.860865    0.763872    1.471189
      5          6           0       -2.943595    0.114019   -0.011952
      6          7           0       -2.906545   -0.727114   -1.058054
      7          6           0       -1.862224   -1.541153   -1.200662
      8          6           0       -0.780294   -1.576801   -0.313369
      9          6           0       -0.802299   -0.704076    0.777140
     10          6           0       -1.899114    0.141633    0.920296
     11          8           0        0.205098   -2.478069   -0.600715
     12          6           0        1.308404   -2.582721    0.297935
     13          6           0        2.240644   -1.392800    0.255871
     14          6           0        2.946220   -1.000299    1.400531
     15          6           0        3.831037    0.069221    1.364325
     16          6           0        4.020764    0.781206    0.171927
     17          6           0        3.316658    0.404647   -0.977570
     18          6           0        2.438502   -0.678809   -0.925457
     19          8           0        4.900950    1.820808    0.236281
     20          6           0        5.118766    2.579936   -0.941645
     21          1           0       -6.011182    1.485288   -0.896084
     22          1           0       -5.517884   -0.219190   -1.025986
     23          1           0       -4.694074    1.002320   -1.990438
     24          1           0       -4.537815    3.188143    0.184652
     25          1           0       -2.986988    2.733838    0.908207
     26          1           0       -3.172443    2.731603   -0.853542
     27          1           0       -5.203913   -0.275310    1.523605
     28          1           0       -4.197248    0.942986    2.324207
     29          1           0       -5.733989    1.417452    1.584252
     30          1           0       -1.862062   -2.212779   -2.057313
     31          1           0        0.014985   -0.661313    1.486258
     32          1           0       -1.930428    0.828209    1.760312
     33          1           0        0.947727   -2.754603    1.321845
     34          1           0        1.821125   -3.493860   -0.027206
     35          1           0        2.799137   -1.537474    2.335183
     36          1           0        4.379156    0.380759    2.247447
     37          1           0        3.440297    0.943452   -1.909353
     38          1           0        1.886629   -0.963190   -1.815945
     39          1           0        5.529539    1.960304   -1.749542
     40          1           0        4.193240    3.057131   -1.289512
     41          1           0        5.843621    3.349782   -0.672359
 ---------------------------------------------------------------------

 SCF Done:  E(UB3LYP) =  -865.941393366     A.U. after   33 cycles
 SCF Done:  E(UB3LYP) =  -865.941393366     a.u. after    1 cycles

 The electronic state is 2-A.
 Alpha  occ. eigenvalues --  -19.06698 -19.06362 -14.20770 -10.14550 -10.14479
 Alpha  occ. eigenvalues --  -10.14242 -10.12914 -10.10859 -10.10062 -10.10019
 Alpha  occ. eigenvalues --  -10.08911 -10.08746 -10.08697 -10.08641 -10.08302
 Alpha  occ. eigenvalues --  -10.08227 -10.08067 -10.07683 -10.07296 -10.06623
 Alpha  occ. eigenvalues --   -0.98312  -0.97989  -0.84587  -0.77047  -0.73456
 Alpha  occ. eigenvalues --   -0.70761  -0.68994  -0.66429  -0.65626  -0.62278
 Alpha  occ. eigenvalues --   -0.60250  -0.59868  -0.58715  -0.53813  -0.53522
 Alpha  occ. eigenvalues --   -0.52075  -0.49462  -0.46679  -0.45128  -0.43997
 Alpha  occ. eigenvalues --   -0.41571  -0.40804  -0.39601  -0.38091  -0.37897
 Alpha  occ. eigenvalues --   -0.36220  -0.36028  -0.35516  -0.34854  -0.34667
 Alpha  occ. eigenvalues --   -0.33925  -0.33197  -0.32401  -0.32104  -0.31643
 Alpha  occ. eigenvalues --   -0.31013  -0.29387  -0.29014  -0.28722  -0.27947
 Alpha  occ. eigenvalues --   -0.27380  -0.25636  -0.25204  -0.24723  -0.24127
 Alpha  occ. eigenvalues --   -0.23940  -0.23872  -0.22876  -0.18803  -0.16993
 Alpha  occ. eigenvalues --   -0.16014  -0.13608  -0.13365   0.03970
 Alpha virt. eigenvalues --    0.05532   0.05882   0.06207   0.06923   0.07226
 Alpha virt. eigenvalues --    0.07841   0.08117   0.08124   0.08441   0.08632
 Alpha virt. eigenvalues --    0.08877   0.09348   0.09694   0.10174   0.10301

  Beta  occ. eigenvalues --  -19.06698 -19.06350 -14.20697 -10.14534 -10.14475
  Beta  occ. eigenvalues --  -10.14261 -10.12864 -10.10878 -10.10018 -10.09988
  Beta  occ. eigenvalues --  -10.08912 -10.08707 -10.08644 -10.08637 -10.08272
  Beta  occ. eigenvalues --  -10.08216 -10.08002 -10.07678 -10.07281 -10.06618
  Beta  occ. eigenvalues --   -0.98309  -0.97961  -0.84469  -0.77013  -0.73437
  Beta  occ. eigenvalues --   -0.70666  -0.68934  -0.66378  -0.65552  -0.62213
  Beta  occ. eigenvalues --   -0.60232  -0.59844  -0.58664  -0.53655  -0.53489
  Beta  occ. eigenvalues --   -0.52010  -0.49417  -0.46634  -0.45089  -0.43958
  Beta  occ. eigenvalues --   -0.41531  -0.40762  -0.39568  -0.38049  -0.37854
  Beta  occ. eigenvalues --   -0.36175  -0.35988  -0.35484  -0.34805  -0.34640
  Beta  occ. eigenvalues --   -0.33893  -0.33155  -0.32332  -0.32051  -0.31574
  Beta  occ. eigenvalues --   -0.30995  -0.29341  -0.28927  -0.28653  -0.27933
  Beta  occ. eigenvalues --   -0.27328  -0.25592  -0.25186  -0.24706  -0.24097
  Beta  occ. eigenvalues --   -0.23898  -0.23807  -0.22824  -0.18399  -0.16876
  Beta  occ. eigenvalues --   -0.15929  -0.13428  -0.13278
  Beta virt. eigenvalues --    0.05718   0.06343   0.06674   0.06869   0.07030
  Beta virt. eigenvalues --    0.07415   0.08071   0.08151   0.08285   0.08532
  Beta virt. eigenvalues --    0.08894   0.09128   0.09523   0.09949   0.10239

 Mulliken charges and spin densities:
               1          2
     1  C   -0.539025  -0.076455
     2  C    0.494071   0.332984
     3  C   -0.098586  -0.457354
     4  C   -0.322430  -0.246398
     5  C   -0.517174  -0.104689
     6  N    0.028978   0.058021
     7  C   -0.557170   0.540631
     8  C   -0.163510  -0.147990
     9  C    0.617304  -0.585642
    10  C   -0.009230  -0.080705
    11  O   -0.078293  -0.001984
    12  C    0.830890  -1.319924
    13  C    1.210724  -0.389973
    14  C   -1.009039   0.597820
    15  C   -0.112771  -0.154982
    16  C   -0.685518  -0.025597
    17  C   -0.353615   0.314927
    18  C    0.625433  -0.581932
    19  O   -0.211074   0.059143
    20  C    0.867218  -1.194484
    21  H    0.067339   0.063844
    22  H    0.122761   0.030571
    23  H    0.132888   0.026013
    24  H    0.047216   0.097976
    25  H    0.003311   0.134469
    26  H    0.046627   0.106783
    27  H    0.090550   0.054202
    28  H    0.007315   0.128006
    29  H    0.077706   0.069098
    30  H    0.135120   0.046218
    31  H    0.033113   0.145119
    32  H   -0.054595   0.227950
    33  H   -0.010759   0.194023
    34  H    0.151082   0.047731
    35  H   -0.530612   0.690175
    36  H   -0.022028   0.214092
    37  H   -0.192078   0.392397
    38  H   -0.040249   0.222516
    39  H   -0.243190   0.396921
    40  H   -0.203474   0.365199
    41  H   -0.635223   0.811280
 Sum of Mulliken charges =  -1.00000   1.00000

 Dipole moment (field-independent basis, Debye):
    X=             -5.6354    Y=             -4.1630    Z=              0.7147  Tot=              7.0426
 Quadrupole moment (field-independent basis, Debye-Ang):
   XX=           -228.2347   YY=           -166.8559   ZZ=           -158.3058
   XY=            -21.7148   XZ=              4.0365   YZ=              6.5194

 Summary of Natural Population Analysis:

                                       Natural Population
                Natural  -----------------------------------------------
    Atom  No    Charge         Core      Valence    Rydberg      Total
 -----------------------------------------------------------------------
      C    1   -0.28159      0.99964     2.27566    0.00629     3.28159
      C    2   -0.05889      0.99956     2.04885    0.01049     3.05889
      C    3   -0.27928      0.99963     2.27412    0.00552     3.27928
      C    4   -0.27951      0.99963     2.27447    0.00540     3.27951
      C    5    0.09503      0.99949     1.88802    0.01747     2.90497
      N    6   -0.22845      0.99968     2.71899    0.00978     3.72845
      C    7    0.02353      0.99955     1.96372    0.01320     2.97647
      C    8    0.13473      0.99937     1.85230    0.01360     2.86527
      C    9   -0.11381      0.99952     2.10513    0.00916     3.11381
      C   10   -0.10005      0.99952     2.09192    0.00861     3.10005
      O   11   -0.27564      0.99986     3.26705    0.00873     4.27564
      C   12   -0.02376      0.99954     2.00877    0.01545     3.02376
      C   13   -0.01612      0.99950     2.01060    0.00602     3.01612
      C   14   -0.10468      0.99955     2.09069    0.01444     3.10468
      C   15   -0.11528      0.99952     2.10589    0.00986     3.11528
      C   16    0.16330      0.99938     1.82466    0.01266     2.83670
      C   17   -0.13626      0.99952     2.12837    0.00837     3.13626
      C   18   -0.10153      0.99955     2.08791    0.01407     3.10153
      O   19   -0.27290      0.99986     3.26265    0.01039     4.27290
      C   20   -0.10130      0.99960     2.09246    0.00924     3.10130
      H   21    0.09220      0.00000     0.40704    0.00076     0.40780
      H   22    0.10448      0.00000     0.39460    0.00093     0.39552
      H   23    0.10575      0.00000     0.39328    0.00097     0.39425
      H   24    0.09534      0.00000     0.40380    0.00086     0.40466
      H   25    0.10069      0.00000     0.39835    0.00096     0.39931
      H   26    0.10267      0.00000     0.39643    0.00090     0.39733
      H   27    0.10056      0.00000     0.39865    0.00079     0.39944
      H   28    0.09964      0.00000     0.39948    0.00088     0.40036
      H   29    0.09561      0.00000     0.40356    0.00083     0.40439
      H   30    0.09020      0.00000     0.40854    0.00126     0.40980
      H   31    0.10997      0.00000     0.38781    0.00222     0.39003
      H   32    0.10166      0.00000     0.39673    0.00161     0.39834
      H   33    0.08994      0.00000     0.40882    0.00124     0.41006
      H   34    0.09600      0.00000     0.40280    0.00121     0.40400
      H   35    0.10099      0.00000     0.39757    0.00144     0.39901
      H   36    0.10615      0.00000     0.39262    0.00122     0.39385
      H   37    0.10756      0.00000     0.39114    0.00130     0.39244
      H   38    0.10594      0.00000     0.39249    0.00157     0.39406
      H   39    0.08506      0.00000     0.41298    0.00196     0.41494
      H   40    0.08671      0.00000     0.41145    0.00184     0.41329
      H   41    0.09544      0.00000     0.40299    0.00157     0.40456
 =======================================================================
   * Total *    0.00009     19.99148    52.77337    0.23506    72.99991

 Normal termination of Gaussian 16 at Mon Dec 14 20:11:58 2020.
