 Gaussian 16, Revision A.03,

 -----------------------------------------------------------
 # opt freq B3LYP/6-31G(d) empiricaldispersion=gd3bj scf=xqc
 -----------------------------------------------------------

 -------------------------------
 CID_112701851_JID_7115_neutraal
 -------------------------------
 Symbolic Z-matrix:
 Charge =  0 Multiplicity = 1

 SCF Done:  E(RB3LYP) =  -733.950184394     A.U. after   14 cycles
 SCF Done:  E(RB3LYP) =  -733.956161751     A.U. after   12 cycles
 SCF Done:  E(RB3LYP) =  -733.951571272     A.U. after   12 cycles
 SCF Done:  E(RB3LYP) =  -733.955294814     A.U. after   12 cycles
 SCF Done:  E(RB3LYP) =  -733.956838325     A.U. after    8 cycles
 SCF Done:  E(RB3LYP) =  -733.957396682     A.U. after   11 cycles
 SCF Done:  E(RB3LYP) =  -733.957851779     A.U. after   11 cycles
 SCF Done:  E(RB3LYP) =  -733.958389714     A.U. after   12 cycles
 SCF Done:  E(RB3LYP) =  -733.959893228     A.U. after   14 cycles
 SCF Done:  E(RB3LYP) =  -733.961423524     A.U. after   11 cycles
 SCF Done:  E(RB3LYP) =  -733.966836299     A.U. after    8 cycles
 SCF Done:  E(RB3LYP) =  -733.966836419     A.U. after    7 cycles
 SCF Done:  E(RB3LYP) =  -733.966836455     A.U. after    7 cycles
 SCF Done:  E(RB3LYP) =  -733.966836517     A.U. after    7 cycles
 SCF Done:  E(RB3LYP) =  -733.966836525     A.U. after    6 cycles
 Optimization completed.
    -- Stationary point found.
 Normal termination of Gaussian 16 at Sun Dec 13 20:36:38 2020.

 --------------------------------------------------------------------
 #N Geom=AllCheck Guess=TCheck SCRF=Check GenChk RB3LYP/6-31G(d) Freq
 --------------------------------------------------------------------

 Structure from the checkpoint file:  "JID_7115.chk"
 -------------------------------
 CID_112701851_JID_7115_neutraal
 -------------------------------
 Charge =  0 Multiplicity = 1

 SCF Done:  E(RB3LYP) =  -733.966836525     A.U. after    1 cycles

  Exact polarizability: 184.972   2.081 155.435   2.374   0.012 132.332
 Approx polarizability: 221.139   6.836 234.572   3.311  -0.034 199.780

                      1                      2                      3
                      A                      A                      A
 Frequencies --     16.1951                29.0257                52.1651
 Red. masses --      3.7571                 2.6998                 2.8648
 Frc consts  --      0.0006                 0.0013                 0.0046
 IR Inten    --      0.0191                 0.0374                 0.0938

                      4                      5                      6
                      A                      A                      A
 Frequencies --     77.0839               103.1621               124.6672
 Red. masses --      5.9538                 2.8636                 2.5745
 Frc consts  --      0.0208                 0.0180                 0.0236
 IR Inten    --      1.9994                 0.0904                 0.4070

                      7                      8                      9
                      A                      A                      A
 Frequencies --    147.5603               163.6203               176.7397
 Red. masses --      2.4425                 3.6955                 2.6309
 Frc consts  --      0.0313                 0.0583                 0.0484
 IR Inten    --      0.1018                 0.0655                 2.5626

                     10                     11                     12
                      A                      A                      A
 Frequencies --    197.6078               219.4366               245.8962
 Red. masses --      2.2465                 1.8657                 2.6587
 Frc consts  --      0.0517                 0.0529                 0.0947
 IR Inten    --      2.1031                 1.8223                 0.5440

                     13                     14                     15
                      A                      A                      A
 Frequencies --    249.6399               274.3004               285.1579
 Red. masses --      2.5749                 1.8766                 2.5948
 Frc consts  --      0.0945                 0.0832                 0.1243
 IR Inten    --      3.2202                 0.2755                 5.4204

                     16                     17                     18
                      A                      A                      A
 Frequencies --    311.2874               335.7955               340.8882
 Red. masses --      2.3881                 2.1034                 1.2932
 Frc consts  --      0.1363                 0.1397                 0.0885
 IR Inten    --      0.1270                 0.6933                47.6355

                     19                     20                     21
                      A                      A                      A
 Frequencies --    357.0548               383.8305               417.6186
 Red. masses --      1.6795                 2.2400                 2.4882
 Frc consts  --      0.1262                 0.1944                 0.2557
 IR Inten    --     22.7899                 2.6014                 6.0841

                     22                     23                     24
                      A                      A                      A
 Frequencies --    423.3576               477.1657               522.1288
 Red. masses --      4.4117                 2.5489                 3.6091
 Frc consts  --      0.4659                 0.3419                 0.5797
 IR Inten    --     10.0491                 1.8740                 7.0387

                     25                     26                     27
                      A                      A                      A
 Frequencies --    569.3900               590.1972               676.9125
 Red. masses --      1.7805                 4.4084                 2.3512
 Frc consts  --      0.3401                 0.9047                 0.6348
 IR Inten    --      0.8336                22.4487                 1.1916

                     28                     29                     30
                      A                      A                      A
 Frequencies --    691.8905               734.0953               743.4309
 Red. masses --      2.6922                 1.9601                 4.2037
 Frc consts  --      0.7593                 0.6223                 1.3689
 IR Inten    --      4.2112                 6.1702                 4.6278

                     31                     32                     33
                      A                      A                      A
 Frequencies --    769.2448               831.5654               834.8528
 Red. masses --      2.3761                 1.8570                 1.7543
 Frc consts  --      0.8284                 0.7566                 0.7204
 IR Inten    --      3.6938                 8.8489                 9.1729

                     34                     35                     36
                      A                      A                      A
 Frequencies --    859.5184               870.3245               876.0920
 Red. masses --      1.6925                 2.0275                 2.3811
 Frc consts  --      0.7367                 0.9048                 1.0768
 IR Inten    --      0.1192                 2.8662                 1.9749

                     37                     38                     39
                      A                      A                      A
 Frequencies --    885.6252               893.9253               917.9708
 Red. masses --      1.7059                 1.9008                 2.3972
 Frc consts  --      0.7883                 0.8949                 1.1902
 IR Inten    --      6.8608                21.9870                 7.5738

                     40                     41                     42
                      A                      A                      A
 Frequencies --    921.8451               931.7535               948.4964
 Red. masses --      1.6019                 1.7994                 1.9740
 Frc consts  --      0.8020                 0.9204                 1.0463
 IR Inten    --      5.5161                59.1155                14.2653

                     43                     44                     45
                      A                      A                      A
 Frequencies --    964.1177               981.3673               992.2183
 Red. masses --      2.1721                 1.9511                 1.7845
 Frc consts  --      1.1896                 1.1071                 1.0351
 IR Inten    --     11.5296                 9.7855                 6.7237

                     46                     47                     48
                      A                      A                      A
 Frequencies --   1015.4970              1025.9668              1040.6275
 Red. masses --      1.6951                 1.7632                 2.1841
 Frc consts  --      1.0299                 1.0935                 1.3935
 IR Inten    --      0.3216                 2.5109                 3.6008

                     49                     50                     51
                      A                      A                      A
 Frequencies --   1061.3338              1071.1562              1074.0488
 Red. masses --      1.6879                 1.5699                 1.3539
 Frc consts  --      1.1202                 1.0613                 0.9202
 IR Inten    --      1.6805                 1.6163                 0.1583

                     52                     53                     54
                      A                      A                      A
 Frequencies --   1084.5903              1090.9264              1109.4602
 Red. masses --      2.4288                 2.4907                 2.1598
 Frc consts  --      1.6834                 1.7464                 1.5663
 IR Inten    --      1.2183                 0.8962                 7.2771

                     55                     56                     57
                      A                      A                      A
 Frequencies --   1147.6269              1149.0920              1162.3126
 Red. masses --      2.1817                 1.6150                 1.7787
 Frc consts  --      1.6929                 1.2564                 1.4158
 IR Inten    --      6.2961                 2.1932                 7.5313

                     58                     59                     60
                      A                      A                      A
 Frequencies --   1191.1075              1208.0146              1220.9257
 Red. masses --      1.3336                 1.3911                 1.5042
 Frc consts  --      1.1147                 1.1960                 1.3211
 IR Inten    --     18.4695                17.7467                27.6276

                     61                     62                     63
                      A                      A                      A
 Frequencies --   1223.3893              1239.6565              1248.3763
 Red. masses --      2.2347                 1.9630                 1.3417
 Frc consts  --      1.9706                 1.7774                 1.2319
 IR Inten    --      8.8390                 9.6469                 4.2911

                     64                     65                     66
                      A                      A                      A
 Frequencies --   1254.6565              1271.3707              1288.3395
 Red. masses --      1.3608                 1.4287                 1.3510
 Frc consts  --      1.2621                 1.3607                 1.3212
 IR Inten    --      1.5689                 1.8046                 4.8403

                     67                     68                     69
                      A                      A                      A
 Frequencies --   1293.9335              1306.8533              1328.2364
 Red. masses --      1.6020                 1.3591                 1.3502
 Frc consts  --      1.5803                 1.3676                 1.4034
 IR Inten    --      5.4059                 4.3628                12.0762

                     70                     71                     72
                      A                      A                      A
 Frequencies --   1330.6903              1347.4351              1352.5163
 Red. masses --      1.2849                 1.3304                 1.3780
 Frc consts  --      1.3406                 1.4232                 1.4852
 IR Inten    --      2.2099                 0.6507                 4.5292

                     73                     74                     75
                      A                      A                      A
 Frequencies --   1355.6831              1366.1817              1373.0648
 Red. masses --      1.2928                 1.3064                 1.2917
 Frc consts  --      1.3999                 1.4366                 1.4348
 IR Inten    --      2.1706                11.6496                10.5814

                     76                     77                     78
                      A                      A                      A
 Frequencies --   1376.5041              1389.1459              1397.3494
 Red. masses --      1.3857                 1.3903                 1.5336
 Frc consts  --      1.5470                 1.5807                 1.7643
 IR Inten    --      0.4659                 6.0078                 9.0251

                     79                     80                     81
                      A                      A                      A
 Frequencies --   1403.8692              1424.5808              1432.9187
 Red. masses --      1.4113                 1.4641                 4.1913
 Frc consts  --      1.6388                 1.7506                 5.0704
 IR Inten    --      0.8424                 7.1118               281.7878

                     82                     83                     84
                      A                      A                      A
 Frequencies --   1444.5050              1450.0895              1513.3916
 Red. masses --      1.2677                 1.5580                 1.0845
 Frc consts  --      1.5585                 1.9303                 1.4634
 IR Inten    --      3.7306                32.5224                 1.5523

                     85                     86                     87
                      A                      A                      A
 Frequencies --   1519.4072              1520.8753              1521.5076
 Red. masses --      1.0903                 1.0768                 1.0717
 Frc consts  --      1.4830                 1.4674                 1.4617
 IR Inten    --      3.6296                 0.0633                 1.3660

                     88                     89                     90
                      A                      A                      A
 Frequencies --   1523.8295              1527.9340              1532.3639
 Red. masses --      1.0891                 1.0857                 1.0586
 Frc consts  --      1.4900                 1.4934                 1.4645
 IR Inten    --      4.3480                 3.6592                11.0971

                     91                     92                     93
                      A                      A                      A
 Frequencies --   1533.8545              1539.2536              1547.0995
 Red. masses --      1.0859                 1.0625                 1.0836
 Frc consts  --      1.5053                 1.4832                 1.5281
 IR Inten    --      2.5221                 6.3348                 3.5280

                     94                     95                     96
                      A                      A                      A
 Frequencies --   1555.7291              1563.0147              1671.8306
 Red. masses --      1.1042                 1.0843                 1.5354
 Frc consts  --      1.5746                 1.5607                 2.5284
 IR Inten    --      4.8732                18.6298               225.7904

                     97                     98                     99
                      A                      A                      A
 Frequencies --   1716.2847              3004.0295              3023.1412
 Red. masses --      2.7869                 1.0671                 1.0613
 Frc consts  --      4.8368                 5.6735                 5.7150
 IR Inten    --     88.2529                51.2394                11.4025

                    100                    101                    102
                      A                      A                      A
 Frequencies --   3033.4422              3040.8045              3045.5911
 Red. masses --      1.0746                 1.0643                 1.0378
 Frc consts  --      5.8260                 5.7981                 5.6716
 IR Inten    --     43.9405                13.5899                24.6379

                    103                    104                    105
                      A                      A                      A
 Frequencies --   3046.0249              3052.4963              3053.5229
 Red. masses --      1.0687                 1.0724                 1.0649
 Frc consts  --      5.8422                 5.8874                 5.8501
 IR Inten    --     28.0345                21.9418                16.5872

                    106                    107                    108
                      A                      A                      A
 Frequencies --   3060.9664              3063.1902              3069.9251
 Red. masses --      1.0831                 1.0747                 1.0915
 Frc consts  --      5.9792                 5.9411                 6.0607
 IR Inten    --     34.6930                 7.3646                56.7846

                    109                    110                    111
                      A                      A                      A
 Frequencies --   3072.3183              3075.3818              3084.4016
 Red. masses --      1.1011                 1.0644                 1.0669
 Frc consts  --      6.1235                 5.9315                 5.9805
 IR Inten    --     26.6129                41.0879                29.6298

                    112                    113                    114
                      A                      A                      A
 Frequencies --   3091.3104              3093.8946              3099.6578
 Red. masses --      1.0863                 1.0930                 1.1039
 Frc consts  --      6.1163                 6.1641                 6.2487
 IR Inten    --     82.6759                26.4802                25.1180

                    115                    116                    117
                      A                      A                      A
 Frequencies --   3110.8669              3113.5524              3118.5832
 Red. masses --      1.1012                 1.1030                 1.1014
 Frc consts  --      6.2791                 6.3001                 6.3113
 IR Inten    --     28.7156                40.0965                52.6361

                    118                    119                    120
                      A                      A                      A
 Frequencies --   3121.0500              3123.6954              3126.2609
 Red. masses --      1.0999                 1.0938                 1.1009
 Frc consts  --      6.3126                 6.2883                 6.3395
 IR Inten    --     43.3245                20.6522                42.9608

                    121                    122                    123
                      A                      A                      A
 Frequencies --   3163.3266              3474.9779              3562.6579
 Red. masses --      1.0896                 1.0496                 1.0922
 Frc consts  --      6.4237                 7.4678                 8.1678
 IR Inten    --     17.8011                12.7723                 5.3078

 - Thermochemistry -
 -------------------
 Temperature   298.150 Kelvin.  Pressure   1.00000 Atm.
 Atom     1 has atomic number  6 and mass  12.00000

 Molecular mass:   238.20451 amu.
 Principal axes and moments of inertia in atomic units:
                           1         2         3
     Eigenvalues --  2071.263617284.505868164.05372
           X            0.99998  -0.00620   0.00008
           Y            0.00620   0.99996   0.00576
           Z           -0.00012  -0.00576   0.99998
 This molecule is an asymmetric top.
 Rotational symmetry number  1.
 Warning -- assumption of classical behavior for rotation
           may cause significant error
 Rotational temperatures (Kelvin)      0.04182     0.01189     0.01061
 Rotational constants (GHZ):           0.87132     0.24775     0.22106
 Zero-point vibrational energy    1038835.3 (Joules/Mol)
                                  248.28759 (Kcal/Mol)
 Warning -- explicit consideration of  26 degrees of freedom as
           vibrations may cause significant error
 Vibrational temperatures:     23.30    41.76    75.05   110.91   148.43
          (Kelvin)            179.37   212.31   235.41   254.29   284.31
                              315.72   353.79   359.18   394.66   410.28
                              447.87   483.13   490.46   513.72   552.25
                              600.86   609.12   686.54   751.23   819.23
                              849.16   973.93   995.48  1056.20  1069.63
                             1106.77  1196.44  1201.17  1236.66  1252.20
                             1260.50  1274.22  1286.16  1320.76  1326.33
                             1340.59  1364.67  1387.15  1411.97  1427.58
                             1461.07  1476.14  1497.23  1527.02  1541.15
                             1545.32  1560.48  1569.60  1596.27  1651.18
                             1653.29  1672.31  1713.74  1738.06  1756.64
                             1760.18  1783.59  1796.13  1805.17  1829.22
                             1853.63  1861.68  1880.27  1911.04  1914.57
                             1938.66  1945.97  1950.53  1965.63  1975.53
                             1980.48  1998.67  2010.47  2019.85  2049.65
                             2061.65  2078.32  2086.36  2177.43  2186.09
                             2188.20  2189.11  2192.45  2198.36  2204.73
                             2206.87  2214.64  2225.93  2238.35  2248.83
                             2405.39  2469.35  4322.13  4349.63  4364.45
                             4375.04  4381.93  4382.55  4391.86  4393.34
                             4404.05  4407.25  4416.94  4420.38  4424.79
                             4437.77  4447.71  4451.42  4459.72  4475.84
                             4479.71  4486.95  4490.49  4494.30  4497.99
                             4551.32  4999.72  5125.87

 Zero-point correction=                           0.395671 (Hartree/Particle)
 Thermal correction to Energy=                    0.413275
 Thermal correction to Enthalpy=                  0.414219
 Thermal correction to Gibbs Free Energy=         0.349230
 Sum of electronic and zero-point Energies=           -733.571165
 Sum of electronic and thermal Energies=              -733.553561
 Sum of electronic and thermal Enthalpies=            -733.552617
 Sum of electronic and thermal Free Energies=         -733.617606

                     E (Thermal)             CV                S
                      KCal/Mol        Cal/Mol-Kelvin    Cal/Mol-Kelvin
 Total                  259.334             68.306            136.781
 Electronic               0.000              0.000              0.000
 Translational            0.889              2.981             42.305
 Rotational               0.889              2.981             33.176
 Vibrational            257.557             62.344             61.299
 Vibration     1          0.593              1.986              7.053
 Vibration     2          0.593              1.984              5.895
 Vibration     3          0.596              1.977              4.734
 Vibration     4          0.599              1.964              3.964
 Vibration     5          0.605              1.947              3.394
 Vibration     6          0.610              1.928              3.027
 Vibration     7          0.617              1.905              2.703
 Vibration     8          0.623              1.887              2.508
 Vibration     9          0.628              1.871              2.363
 Vibration    10          0.637              1.843              2.155
 Vibration    11          0.647              1.811              1.964
 Vibration    12          0.660              1.770              1.760
 Vibration    13          0.662              1.763              1.733
 Vibration    14          0.677              1.721              1.569
 Vibration    15          0.683              1.701              1.503
 Vibration    16          0.700              1.652              1.355
 Vibration    17          0.717              1.604              1.232
 Vibration    18          0.720              1.594              1.208
 Vibration    19          0.732              1.561              1.135
 Vibration    20          0.753              1.505              1.024
 Vibration    21          0.781              1.432              0.900
 Vibration    22          0.786              1.419              0.881
 Vibration    23          0.834              1.301              0.718
 Vibration    24          0.877              1.201              0.605
 Vibration    25          0.925              1.097              0.505
 Vibration    26          0.948              1.053              0.467

 Optimization completed.
    -- Stationary point found.
 Normal termination of Gaussian 16 at Sun Dec 13 20:57:25 2020.

 ----------------------------------------------------------------------
 # B3LYP/6-311++G(d,p) empiricaldispersion=gd3bj scf=xqc pop=npa geom=c
 heck
 ----------------------------------------------------------------------

 ---------------------------------------
 CID_112701851_JID_7115_Energie_neutraal
 ---------------------------------------
 Structure from the checkpoint file:  "JID_7115.chk"
 Charge =  0 Multiplicity = 1

 SCF Done:  E(RB3LYP) =  -734.175737186     A.U. after   15 cycles
 Normal termination of Gaussian 16 at Sun Dec 13 21:07:54 2020.

 ----------------------------------------------------------------------
 # B3LYP/6-311++G(d,p) empiricaldispersion=gd3bj scf=xqc pop=npa geom=c
 heck
 ----------------------------------------------------------------------

 -------------------------------------
 CID_112701851_JID_7115_Energie_kation
 -------------------------------------
 Structure from the checkpoint file:  "JID_7115.chk"
 Charge =  1 Multiplicity = 2

 SCF Done:  E(UB3LYP) =  -733.877538529     A.U. after   25 cycles
 Normal termination of Gaussian 16 at Sun Dec 13 21:31:49 2020.
 Gaussian 16:  ES64L-G16RevA.03 25-Dec-2016

 ----------------------------------------------------------------------
 # B3LYP/6-311++G(d,p) empiricaldispersion=gd3bj scf=xqc pop=npa geom=c
 heck
 ----------------------------------------------------------------------

 ------------------------------------
 CID_112701851_JID_7115_Energie_anion
 ------------------------------------
 Structure from the checkpoint file:  "JID_7115.chk"
 Charge = -1 Multiplicity = 2

                         Standard orientation:
 ---------------------------------------------------------------------
 Center     Atomic      Atomic             Coordinates (Angstroms)
 Number     Number       Type             X           Y           Z
 ---------------------------------------------------------------------
      1          6           0       -5.486541    0.662206    0.280726
      2          6           0       -4.261480    0.386582    1.158006
      3          6           0       -3.325934   -0.698642    0.604869
      4          6           0       -2.672401   -0.372488   -0.749749
      5          6           0       -1.801738   -1.535764   -1.262289
      6          6           0       -0.476330   -1.352790   -0.513324
      7          7           0       -0.368901    0.103923   -0.378413
      8          6           0       -1.651970    0.773196   -0.659577
      9          6           0        0.705494    0.892920   -0.075597
     10          8           0        0.546948    2.118854   -0.040072
     11          6           0        2.080227    0.268539    0.223758
     12          6           0        2.059305   -0.681589    1.456872
     13          6           0        3.163171   -1.711975    1.171443
     14          6           0        3.031058   -1.973388   -0.337103
     15          6           0        2.655200   -0.602990   -0.945545
     16          6           0        3.061800    1.424627    0.533854
     17          7           0        3.339831    2.240345   -0.647203
     18          1           0       -5.206142    1.076458   -0.693968
     19          1           0       -6.158949    1.381917    0.760160
     20          1           0       -6.056088   -0.257789    0.098976
     21          1           0       -3.702315    1.318973    1.309004
     22          1           0       -4.597286    0.074067    2.155191
     23          1           0       -2.538919   -0.897435    1.345034
     24          1           0       -3.894146   -1.633834    0.499287
     25          1           0       -3.452981   -0.129417   -1.477454
     26          1           0       -1.632589   -1.431759   -2.340296
     27          1           0       -2.246767   -2.519501   -1.082619
     28          1           0       -0.517151   -1.842561    0.468327
     29          1           0        0.368190   -1.773625   -1.057135
     30          1           0       -1.577908    1.334582   -1.599192
     31          1           0       -1.870109    1.499661    0.126391
     32          1           0        2.217142   -0.124973    2.387287
     33          1           0        1.095839   -1.189660    1.554077
     34          1           0        3.062178   -2.619683    1.776172
     35          1           0        4.146878   -1.281543    1.395056
     36          1           0        2.234204   -2.708215   -0.508320
     37          1           0        3.943529   -2.387825   -0.778443
     38          1           0        1.956634   -0.695966   -1.782331
     39          1           0        3.526994   -0.081310   -1.347854
     40          1           0        2.653745    1.995738    1.381765
     41          1           0        4.006738    0.975418    0.863507
     42          1           0        2.501387    2.787574   -0.834383
     43          1           0        4.086615    2.899334   -0.436419
 ---------------------------------------------------------------------

 SCF Done:  E(UB3LYP) =  -734.163899447     A.U. after   33 cycles
 SCF Done:  E(UB3LYP) =  -734.163899447     a.u. after    1 cycles

 The electronic state is 2-A.
 Alpha  occ. eigenvalues --  -18.98840 -14.24360 -14.19893 -10.17211 -10.11037
 Alpha  occ. eigenvalues --  -10.10220 -10.10009 -10.09677 -10.08251 -10.07800
 Alpha  occ. eigenvalues --  -10.07637 -10.07516 -10.07429 -10.07255 -10.07090
 Alpha  occ. eigenvalues --  -10.07061 -10.06723  -0.94163  -0.84519  -0.79537
 Alpha  occ. eigenvalues --   -0.74745  -0.72048  -0.67920  -0.64987  -0.64145
 Alpha  occ. eigenvalues --   -0.62192  -0.59236  -0.55712  -0.54308  -0.50912
 Alpha  occ. eigenvalues --   -0.49169  -0.48419  -0.46017  -0.45461  -0.41280
 Alpha  occ. eigenvalues --   -0.40570  -0.39116  -0.38502  -0.36958  -0.36352
 Alpha  occ. eigenvalues --   -0.35678  -0.35321  -0.34126  -0.33373  -0.32235
 Alpha  occ. eigenvalues --   -0.31861  -0.31034  -0.30617  -0.29512  -0.28693
 Alpha  occ. eigenvalues --   -0.27429  -0.27188  -0.26560  -0.26488  -0.25502
 Alpha  occ. eigenvalues --   -0.25225  -0.24996  -0.23555  -0.23452  -0.23186
 Alpha  occ. eigenvalues --   -0.22736  -0.22527  -0.21816  -0.16156  -0.15246
 Alpha  occ. eigenvalues --   -0.14638   0.04067
 Alpha virt. eigenvalues --    0.05853   0.06558   0.06766   0.07516   0.08056
 Alpha virt. eigenvalues --    0.08153   0.08854   0.09424   0.09874   0.09975
 Alpha virt. eigenvalues --    0.10282   0.10781   0.10907   0.11205   0.12001

  Beta  occ. eigenvalues --  -18.98839 -14.24361 -14.19890 -10.17210 -10.11014
  Beta  occ. eigenvalues --  -10.10210 -10.10003 -10.09677 -10.08243 -10.07791
  Beta  occ. eigenvalues --  -10.07609 -10.07499 -10.07417 -10.07236 -10.07083
  Beta  occ. eigenvalues --  -10.07040 -10.06695  -0.94160  -0.84509  -0.79530
  Beta  occ. eigenvalues --   -0.74728  -0.72022  -0.67887  -0.64958  -0.64113
  Beta  occ. eigenvalues --   -0.62165  -0.59193  -0.55682  -0.54276  -0.50849
  Beta  occ. eigenvalues --   -0.49137  -0.48371  -0.45969  -0.45424  -0.41250
  Beta  occ. eigenvalues --   -0.40541  -0.39102  -0.38487  -0.36938  -0.36331
  Beta  occ. eigenvalues --   -0.35649  -0.35292  -0.34098  -0.33350  -0.32212
  Beta  occ. eigenvalues --   -0.31828  -0.31011  -0.30598  -0.29474  -0.28677
  Beta  occ. eigenvalues --   -0.27405  -0.27149  -0.26527  -0.26465  -0.25479
  Beta  occ. eigenvalues --   -0.25200  -0.24964  -0.23531  -0.23428  -0.23166
  Beta  occ. eigenvalues --   -0.22705  -0.22500  -0.21782  -0.16151  -0.15241
  Beta  occ. eigenvalues --   -0.14629
  Beta virt. eigenvalues --    0.06006   0.06389   0.07081   0.07312   0.07869
  Beta virt. eigenvalues --    0.08342   0.08626   0.09275   0.09766   0.10123
  Beta virt. eigenvalues --    0.10224   0.10446   0.11003   0.11178   0.11385

 Mulliken charges and spin densities:
               1          2
     1  C    0.658231  -1.281981
     2  C   -0.928878   0.788537
     3  C    1.303671  -1.656584
     4  C   -2.398994   2.804924
     5  C    3.537755  -4.398034
     6  C   -1.403934   1.196110
     7  N    0.080645   0.070845
     8  C    0.621419  -0.967639
     9  C   -0.421458  -0.604501
    10  O   -0.306190  -0.006439
    11  C    0.940952   0.216813
    12  C   -1.306056   1.247062
    13  C    0.758744  -1.348889
    14  C   -0.081436  -0.182962
    15  C   -0.236244   0.021475
    16  C   -0.658748  -0.118968
    17  N   -0.314770  -0.038321
    18  H   -0.193188   0.322316
    19  H   -0.245863   0.386702
    20  H   -0.059521   0.193424
    21  H    0.092341   0.021111
    22  H   -0.171047   0.318620
    23  H   -0.083971   0.218138
    24  H   -0.231541   0.398056
    25  H    0.058853   0.187729
    26  H   -0.266777   0.426313
    27  H   -0.550077   0.752147
    28  H   -0.189221   0.347300
    29  H    0.830917  -0.730675
    30  H    0.084186   0.117068
    31  H    0.220381  -0.016073
    32  H   -0.122156   0.294085
    33  H    0.056439   0.117255
    34  H   -0.482524   0.674396
    35  H    0.262290  -0.172332
    36  H   -0.272893   0.400522
    37  H   -0.233428   0.416502
    38  H   -0.172884   0.381925
    39  H    0.236841  -0.016838
    40  H    0.153197   0.029489
    41  H    0.015766   0.143559
    42  H    0.222826   0.025457
    43  H    0.196346   0.022355
 Sum of Mulliken charges =  -1.00000   1.00000

 Dipole moment (field-independent basis, Debye):
    X=              4.8891    Y=              4.5145    Z=              0.4787  Tot=              6.6718
 Quadrupole moment (field-independent basis, Debye-Ang):
   XX=           -195.4907   YY=           -163.6513   ZZ=           -145.8728
   XY=              3.6708   XZ=              1.8995   YZ=              2.1660

 Summary of Natural Population Analysis:

                                       Natural Population
                Natural  -----------------------------------------------
    Atom  No    Charge         Core      Valence    Rydberg      Total
 -----------------------------------------------------------------------
      C    1   -0.28532      0.99967     2.28149    0.00416     3.28532
      C    2   -0.19046      0.99964     2.18242    0.00840     3.19046
      C    3   -0.18854      0.99961     2.17933    0.00960     3.18854
      C    4   -0.11981      0.99959     2.10878    0.01144     3.11981
      C    5   -0.18725      0.99962     2.17824    0.00939     3.18725
      C    6   -0.08498      0.99961     2.07519    0.01019     3.08498
      N    7   -0.25351      0.99964     2.74473    0.00914     3.75351
      C    8   -0.08001      0.99960     2.07045    0.00997     3.08001
      C    9    0.35698      0.99957     1.62079    0.02267     2.64302
      O   10   -0.34218      0.99988     3.33728    0.00502     4.34218
      C   11   -0.07491      0.99953     2.06299    0.01239     3.07491
      C   12   -0.18703      0.99960     2.17803    0.00940     3.18703
      C   13   -0.19145      0.99963     2.18310    0.00872     3.19145
      C   14   -0.19362      0.99964     2.18581    0.00817     3.19362
      C   15   -0.19227      0.99960     2.18320    0.00947     3.19227
      C   16   -0.08320      0.99959     2.07245    0.01115     3.08320
      N   17   -0.42905      0.99976     2.92009    0.00920     3.92905
      H   18    0.09550      0.00000     0.40329    0.00120     0.40450
      H   19    0.09800      0.00000     0.40098    0.00101     0.40200
      H   20    0.09707      0.00000     0.40168    0.00125     0.40293
      H   21    0.09283      0.00000     0.40590    0.00128     0.40717
      H   22    0.09607      0.00000     0.40297    0.00096     0.40393
      H   23    0.09785      0.00000     0.40037    0.00178     0.40215
      H   24    0.09868      0.00000     0.39980    0.00151     0.40132
      H   25    0.10354      0.00000     0.39523    0.00124     0.39646
      H   26    0.09983      0.00000     0.39883    0.00134     0.40017
      H   27    0.10697      0.00000     0.39124    0.00179     0.39303
      H   28    0.09337      0.00000     0.40462    0.00201     0.40663
      H   29    0.10358      0.00000     0.39436    0.00206     0.39642
      H   30    0.09827      0.00000     0.40064    0.00110     0.40173
      H   31    0.10458      0.00000     0.39397    0.00145     0.39542
      H   32    0.10059      0.00000     0.39836    0.00105     0.39941
      H   33    0.10294      0.00000     0.39537    0.00168     0.39706
      H   34    0.10330      0.00000     0.39549    0.00120     0.39670
      H   35    0.09098      0.00000     0.40771    0.00131     0.40902
      H   36    0.09648      0.00000     0.40168    0.00184     0.40352
      H   37    0.09884      0.00000     0.40031    0.00085     0.40116
      H   38    0.10231      0.00000     0.39660    0.00108     0.39769
      H   39    0.11121      0.00000     0.38717    0.00163     0.38879
      H   40    0.08822      0.00000     0.41024    0.00154     0.41178
      H   41    0.08846      0.00000     0.41032    0.00122     0.41154
      H   42    0.18751      0.00000     0.31071    0.00178     0.31249
      H   43    0.16963      0.00000     0.32885    0.00152     0.33037
 =======================================================================
   * Total *    0.00000     16.99378    48.80106    0.20516    66.00000

 Normal termination of Gaussian 16 at Sun Dec 13 22:01:19 2020.
