 Gaussian 16, Revision A.03,

 -----------------------------------------------------------
 # opt freq B3LYP/6-31G(d) empiricaldispersion=gd3bj scf=xqc
 -----------------------------------------------------------

 -------------------------------
 CID_115282581_JID_5858_neutraal
 -------------------------------
 Symbolic Z-matrix:
 Charge =  0 Multiplicity = 1

 SCF Done:  E(RB3LYP) =  -654.016819392     A.U. after   14 cycles
 SCF Done:  E(RB3LYP) =  -654.023801978     A.U. after   14 cycles
 SCF Done:  E(RB3LYP) =  -654.026659995     A.U. after   13 cycles
 SCF Done:  E(RB3LYP) =  -654.028965974     A.U. after   13 cycles
 SCF Done:  E(RB3LYP) =  -654.029944123     A.U. after   13 cycles
 SCF Done:  E(RB3LYP) =  -654.032062369     A.U. after   12 cycles
 SCF Done:  E(RB3LYP) =  -654.032808319     A.U. after   13 cycles
 SCF Done:  E(RB3LYP) =  -654.033428762     A.U. after   12 cycles
 SCF Done:  E(RB3LYP) =  -654.033499000     A.U. after   12 cycles
 SCF Done:  E(RB3LYP) =  -654.034095719     A.U. after   12 cycles
 SCF Done:  E(RB3LYP) =  -654.048609183     A.U. after    8 cycles
 SCF Done:  E(RB3LYP) =  -654.048609772     A.U. after    8 cycles
 SCF Done:  E(RB3LYP) =  -654.048609907     A.U. after    7 cycles
 SCF Done:  E(RB3LYP) =  -654.048609957     A.U. after    6 cycles
 SCF Done:  E(RB3LYP) =  -654.048609980     A.U. after    6 cycles
 Optimization completed.
    -- Stationary point found.
 Normal termination of Gaussian 16 at Thu Dec 10 18:05:52 2020.

 --------------------------------------------------------------------
 #N Geom=AllCheck Guess=TCheck SCRF=Check GenChk RB3LYP/6-31G(d) Freq
 --------------------------------------------------------------------

 Structure from the checkpoint file:  "JID_5858.chk"
 -------------------------------
 CID_115282581_JID_5858_neutraal
 -------------------------------
 Charge =  0 Multiplicity = 1

 SCF Done:  E(RB3LYP) =  -654.048609980     A.U. after    1 cycles

  Exact polarizability: 230.997  11.642 118.018  -5.272  10.832 118.030
 Approx polarizability: 311.265  18.342 170.994 -17.880  25.109 177.327

                      1                      2                      3
                      A                      A                      A
 Frequencies --     27.9714                50.3668                65.6322
 Red. masses --      3.8313                 3.5588                 3.6671
 Frc consts  --      0.0018                 0.0053                 0.0093
 IR Inten    --      0.8829                 0.9241                 1.0188

                      4                      5                      6
                      A                      A                      A
 Frequencies --     77.1674               102.3326               112.1298
 Red. masses --      2.6910                 3.7973                 3.5539
 Frc consts  --      0.0094                 0.0234                 0.0263
 IR Inten    --      0.4236                 0.0152                 1.8042

                      7                      8                      9
                      A                      A                      A
 Frequencies --    130.8176               153.6082               197.1263
 Red. masses --      1.7239                 2.6629                 2.3405
 Frc consts  --      0.0174                 0.0370                 0.0536
 IR Inten    --      0.8193                 2.4087                 0.8397

                     10                     11                     12
                      A                      A                      A
 Frequencies --    205.9264               235.2280               258.2046
 Red. masses --      1.8049                 3.0864                 3.6271
 Frc consts  --      0.0451                 0.1006                 0.1425
 IR Inten    --      0.2513                 1.5103                 5.1060

                     13                     14                     15
                      A                      A                      A
 Frequencies --    269.5710               280.5994               308.5265
 Red. masses --      2.6812                 3.0370                 1.4562
 Frc consts  --      0.1148                 0.1409                 0.0817
 IR Inten    --      4.9637                 7.3781                13.4002

                     16                     17                     18
                      A                      A                      A
 Frequencies --    321.6515               331.6636               338.7454
 Red. masses --      1.4458                 1.8271                 1.8313
 Frc consts  --      0.0881                 0.1184                 0.1238
 IR Inten    --     32.6465                17.0384                 1.2081

                     19                     20                     21
                      A                      A                      A
 Frequencies --    348.7042               398.2467               421.6240
 Red. masses --      2.2879                 4.2213                 2.9631
 Frc consts  --      0.1639                 0.3945                 0.3103
 IR Inten    --      4.7762                 1.7483                 6.6000

                     22                     23                     24
                      A                      A                      A
 Frequencies --    455.7529               500.5148               562.3155
 Red. masses --      3.4075                 3.4242                 2.8119
 Frc consts  --      0.4170                 0.5054                 0.5238
 IR Inten    --      2.9475                 8.0432                35.1793

                     25                     26                     27
                      A                      A                      A
 Frequencies --    583.1256               600.4111               687.7349
 Red. masses --      2.1434                 2.4287                 2.9088
 Frc consts  --      0.4294                 0.5159                 0.8106
 IR Inten    --     21.3297                16.1615                10.8023

                     28                     29                     30
                      A                      A                      A
 Frequencies --    724.2974               737.7620               800.8395
 Red. masses --      2.1598                 2.5849                 1.1083
 Frc consts  --      0.6676                 0.8290                 0.4188
 IR Inten    --     13.2816                26.2244                 0.4519

                     31                     32                     33
                      A                      A                      A
 Frequencies --    819.5186               857.6313               882.1386
 Red. masses --      1.7002                 1.2828                 2.1063
 Frc consts  --      0.6728                 0.5559                 0.9657
 IR Inten    --     13.3301                 6.2643                 7.3197

                     34                     35                     36
                      A                      A                      A
 Frequencies --    895.6704               907.9458               927.6812
 Red. masses --      1.6459                 2.1505                 1.8099
 Frc consts  --      0.7780                 1.0445                 0.9177
 IR Inten    --     70.1709                24.8728                13.3270

                     37                     38                     39
                      A                      A                      A
 Frequencies --    952.2455               957.7868               960.1574
 Red. masses --      2.4810                 1.7494                 2.7013
 Frc consts  --      1.3255                 0.9455                 1.4673
 IR Inten    --     21.0742                 3.9901                16.8726

                     40                     41                     42
                      A                      A                      A
 Frequencies --    994.0621              1015.1832              1028.9270
 Red. masses --      1.1363                 1.6035                 2.0066
 Frc consts  --      0.6616                 0.9737                 1.2516
 IR Inten    --      2.0996                38.0564                14.4033

                     43                     44                     45
                      A                      A                      A
 Frequencies --   1051.4263              1059.5307              1069.0213
 Red. masses --      1.9638                 1.1049                 1.3591
 Frc consts  --      1.2791                 0.7308                 0.9151
 IR Inten    --      8.8020                48.9724                 6.0950

                     46                     47                     48
                      A                      A                      A
 Frequencies --   1074.3463              1087.7462              1097.5891
 Red. masses --      1.5332                 1.3690                 2.0807
 Frc consts  --      1.0426                 0.9544                 1.4769
 IR Inten    --      0.6665                 3.5068                 9.2886

                     49                     50                     51
                      A                      A                      A
 Frequencies --   1119.0046              1140.1795              1172.7713
 Red. masses --      2.5346                 1.7007                 1.0859
 Frc consts  --      1.8699                 1.3026                 0.8800
 IR Inten    --      2.1310                16.2337                 1.1948

                     52                     53                     54
                      A                      A                      A
 Frequencies --   1196.1176              1210.0888              1217.3987
 Red. masses --      2.1537                 2.3547                 1.7758
 Frc consts  --      1.8155                 2.0315                 1.5506
 IR Inten    --     41.3161                13.1598                 4.1336

                     55                     56                     57
                      A                      A                      A
 Frequencies --   1223.6567              1246.1831              1251.9945
 Red. masses --      1.6802                 1.5954                 1.7665
 Frc consts  --      1.4823                 1.4598                 1.6314
 IR Inten    --      1.0537                11.9463                64.9701

                     58                     59                     60
                      A                      A                      A
 Frequencies --   1276.5469              1322.4214              1342.3627
 Red. masses --      1.8083                 1.7253                 1.5302
 Frc consts  --      1.7361                 1.7777                 1.6246
 IR Inten    --     43.6304               112.5233                 1.6422

                     61                     62                     63
                      A                      A                      A
 Frequencies --   1351.0641              1366.0762              1409.5448
 Red. masses --      1.3222                 1.2381                 2.0100
 Frc consts  --      1.4220                 1.3613                 2.3529
 IR Inten    --      3.8649                12.3159               279.4576

                     64                     65                     66
                      A                      A                      A
 Frequencies --   1418.8972              1432.9772              1441.8861
 Red. masses --      1.6915                 1.4248                 1.3002
 Frc consts  --      2.0064                 1.7238                 1.5927
 IR Inten    --    101.8102                 4.6379                 3.8695

                     67                     68                     69
                      A                      A                      A
 Frequencies --   1445.0186              1485.6852              1498.6062
 Red. masses --      1.3400                 1.4270                 1.0951
 Frc consts  --      1.6485                 1.8558                 1.4490
 IR Inten    --     52.2612                18.3545                 1.1888

                     70                     71                     72
                      A                      A                      A
 Frequencies --   1506.7608              1518.3694              1525.1430
 Red. masses --      1.0454                 1.0650                 1.0908
 Frc consts  --      1.3983                 1.4466                 1.4949
 IR Inten    --      6.0582                 4.3884                 3.9105

                     73                     74                     75
                      A                      A                      A
 Frequencies --   1529.2329              1539.2337              1544.6133
 Red. masses --      1.1217                 1.0838                 1.2274
 Frc consts  --      1.5455                 1.5129                 1.7254
 IR Inten    --      1.0917                 2.7157                 3.2432

                     76                     77                     78
                      A                      A                      A
 Frequencies --   1684.9965              1687.8132              1719.5907
 Red. masses --      3.5652                 1.2494                 5.3579
 Frc consts  --      5.9640                 2.0970                 9.3347
 IR Inten    --    131.0910                45.6936                87.4838

                     79                     80                     81
                      A                      A                      A
 Frequencies --   1756.2633              2970.6710              3029.5789
 Red. masses --      5.8662                 1.0717                 1.0378
 Frc consts  --     10.6608                 5.5723                 5.6121
 IR Inten    --    224.0490                90.0928                43.6710

                     82                     83                     84
                      A                      A                      A
 Frequencies --   3055.8248              3074.0138              3077.6788
 Red. masses --      1.0373                 1.0995                 1.0906
 Frc consts  --      5.7070                 6.1217                 6.0867
 IR Inten    --     20.5179                22.0029                31.5567

                     85                     86                     87
                      A                      A                      A
 Frequencies --   3118.7248              3119.8252              3143.0773
 Red. masses --      1.0989                 1.1008                 1.0998
 Frc consts  --      6.2975                 6.3130                 6.4014
 IR Inten    --     10.5538                29.0426                12.6986

                     88                     89                     90
                      A                      A                      A
 Frequencies --   3145.0066              3149.5011              3152.9994
 Red. masses --      1.0911                 1.0551                 1.0875
 Frc consts  --      6.3588                 6.1661                 6.3700
 IR Inten    --      4.2767                17.5063                36.2061

                     91                     92                     93
                      A                      A                      A
 Frequencies --   3155.2807              3180.7931              3194.1311
 Red. masses --      1.0577                 1.0888                 1.0894
 Frc consts  --      6.2044                 6.4903                 6.5484
 IR Inten    --     23.6380                 5.2546                 1.3876

                     94                     95                     96
                      A                      A                      A
 Frequencies --   3223.8249              3231.1505              3238.6900
 Red. masses --      1.1182                 1.0912                 1.1130
 Frc consts  --      6.8469                 6.7120                 6.8782
 IR Inten    --      0.5554                 5.4200                26.5296

                     97                     98                     99
                      A                      A                      A
 Frequencies --   3478.1114              3562.1995              3572.2914
 Red. masses --      1.0500                 1.0925                 1.0750
 Frc consts  --      7.4837                 8.1682                 8.0824
 IR Inten    --      0.4531                 0.4697                19.1353

 - Thermochemistry -
 -------------------
 Temperature   298.150 Kelvin.  Pressure   1.00000 Atm.
 Atom     1 has atomic number  6 and mass  12.00000

 Molecular mass:   208.15756 amu.
 Principal axes and moments of inertia in atomic units:
                           1         2         3
     Eigenvalues --  1992.114396207.747276468.73766
           X            0.99998   0.00622   0.00329
           Y           -0.00591   0.99613  -0.08773
           Z           -0.00382   0.08771   0.99614
 This molecule is an asymmetric top.
 Rotational symmetry number  1.
 Warning -- assumption of classical behavior for rotation
           may cause significant error
 Rotational temperatures (Kelvin)      0.04348     0.01395     0.01339
 Rotational constants (GHZ):           0.90594     0.29072     0.27899
 Zero-point vibrational energy     809758.7 (Joules/Mol)
                                  193.53697 (Kcal/Mol)
 Warning -- explicit consideration of  26 degrees of freedom as
           vibrations may cause significant error
 Vibrational temperatures:     40.24    72.47    94.43   111.03   147.23
          (Kelvin)            161.33   188.22   221.01   283.62   296.28
                              338.44   371.50   387.85   403.72   443.90
                              462.78   477.19   487.38   501.71   572.99
                              606.62   655.73   720.13   809.05   838.99
                              863.86   989.50  1042.10  1061.47  1152.23
                             1179.10  1233.94  1269.20  1288.67  1306.33
                             1334.73  1370.07  1378.04  1381.45  1430.23
                             1460.62  1480.40  1512.77  1524.43  1538.08
                             1545.74  1565.02  1579.19  1610.00  1640.46
                             1687.36  1720.95  1741.05  1751.57  1760.57
                             1792.98  1801.34  1836.67  1902.67  1931.36
                             1943.88  1965.48  2028.02  2041.48  2061.73
                             2074.55  2079.06  2137.57  2156.16  2167.89
                             2184.59  2194.34  2200.23  2214.61  2222.35
                             2424.33  2428.39  2474.11  2526.87  4274.13
                             4358.89  4396.65  4422.82  4428.09  4487.15
                             4488.73  4522.19  4524.96  4531.43  4536.46
                             4539.75  4576.45  4595.64  4638.36  4648.90
                             4659.75  5004.23  5125.21  5139.73

 Zero-point correction=                           0.308421 (Hartree/Particle)
 Thermal correction to Energy=                    0.325259
 Thermal correction to Enthalpy=                  0.326203
 Thermal correction to Gibbs Free Energy=         0.263729
 Sum of electronic and zero-point Energies=           -653.740189
 Sum of electronic and thermal Energies=              -653.723351
 Sum of electronic and thermal Enthalpies=            -653.722407
 Sum of electronic and thermal Free Energies=         -653.784881

                     E (Thermal)             CV                S
                      KCal/Mol        Cal/Mol-Kelvin    Cal/Mol-Kelvin
 Total                  204.103             63.131            131.487
 Electronic               0.000              0.000              0.000
 Translational            0.889              2.981             41.903
 Rotational               0.889              2.981             32.748
 Vibrational            202.325             57.169             56.836
 Vibration     1          0.593              1.984              5.968
 Vibration     2          0.595              1.977              4.803
 Vibration     3          0.597              1.971              4.280
 Vibration     4          0.599              1.964              3.962
 Vibration     5          0.604              1.947              3.409
 Vibration     6          0.607              1.939              3.232
 Vibration     7          0.612              1.923              2.934
 Vibration     8          0.619              1.899              2.627
 Vibration     9          0.637              1.844              2.160
 Vibration    10          0.640              1.831              2.079
 Vibration    11          0.655              1.787              1.839
 Vibration    12          0.667              1.749              1.674
 Vibration    13          0.674              1.729              1.599
 Vibration    14          0.680              1.710              1.530
 Vibration    15          0.698              1.657              1.370
 Vibration    16          0.707              1.632              1.302
 Vibration    17          0.714              1.612              1.252
 Vibration    18          0.719              1.598              1.218
 Vibration    19          0.726              1.578              1.172
 Vibration    20          0.765              1.474              0.969
 Vibration    21          0.784              1.423              0.886
 Vibration    22          0.814              1.348              0.779
 Vibration    23          0.856              1.249              0.657
 Vibration    24          0.918              1.113              0.519
 Vibration    25          0.940              1.068              0.480
 Vibration    26          0.959              1.031              0.449

 Optimization completed.
    -- Stationary point found.
 Normal termination of Gaussian 16 at Thu Dec 10 18:16:21 2020.

 ----------------------------------------------------------------------
 # B3LYP/6-311++G(d,p) empiricaldispersion=gd3bj scf=xqc pop=npa geom=c
 heck
 ----------------------------------------------------------------------

 ---------------------------------------
 CID_115282581_JID_5858_Energie_neutraal
 ---------------------------------------
 Structure from the checkpoint file:  "JID_5858.chk"
 Charge =  0 Multiplicity = 1

 SCF Done:  E(RB3LYP) =  -654.243972254     A.U. after   15 cycles
 Normal termination of Gaussian 16 at Thu Dec 10 18:21:39 2020.

 ----------------------------------------------------------------------
 # B3LYP/6-311++G(d,p) empiricaldispersion=gd3bj scf=xqc pop=npa geom=c
 heck
 ----------------------------------------------------------------------

 -------------------------------------
 CID_115282581_JID_5858_Energie_kation
 -------------------------------------
 Structure from the checkpoint file:  "JID_5858.chk"
 Charge =  1 Multiplicity = 2

 SCF Done:  E(UB3LYP) =  -653.951554379     A.U. after   29 cycles
 Normal termination of Gaussian 16 at Thu Dec 10 18:35:57 2020.
 Gaussian 16:  ES64L-G16RevA.03 25-Dec-2016

 ----------------------------------------------------------------------
 # B3LYP/6-311++G(d,p) empiricaldispersion=gd3bj scf=xqc pop=npa geom=c
 heck
 ----------------------------------------------------------------------

 ------------------------------------
 CID_115282581_JID_5858_Energie_anion
 ------------------------------------
 Structure from the checkpoint file:  "JID_5858.chk"
 Charge = -1 Multiplicity = 2

                         Standard orientation:
 ---------------------------------------------------------------------
 Center     Atomic      Atomic             Coordinates (Angstroms)
 Number     Number       Type             X           Y           Z
 ---------------------------------------------------------------------
      1          6           0        5.639328    0.845559    0.533622
      2          6           0        4.507710    0.132401   -0.137823
      3          6           0        3.233157    0.128213    0.290847
      4          6           0        2.163535   -0.574805   -0.384386
      5          6           0        0.881156   -0.580558    0.026721
      6          6           0       -0.130651   -1.353690   -0.729874
      7          8           0        0.184190   -2.168852   -1.598917
      8          7           0       -1.468978   -1.212252   -0.402237
      9          6           0       -2.247084   -0.082397    0.169581
     10          6           0       -3.589448   -0.087285   -0.576859
     11          6           0       -2.535454   -0.359937    1.664338
     12          7           0       -1.298646   -0.554892    2.419255
     13          6           0       -1.517754    1.258204    0.039335
     14          6           0       -1.057038    1.782158   -1.291819
     15          6           0       -2.152187    2.500850   -0.546358
     16          1           0        5.305313    1.375586    1.431572
     17          1           0        6.104473    1.576231   -0.142283
     18          1           0        6.432459    0.143625    0.825626
     19          1           0        4.751799   -0.423572   -1.043996
     20          1           0        2.972319    0.679286    1.195359
     21          1           0        2.410786   -1.136294   -1.283931
     22          1           0        0.578047   -0.057535    0.925719
     23          1           0       -2.013193   -1.829561   -0.994147
     24          1           0       -4.050809   -1.079855   -0.518909
     25          1           0       -4.284479    0.629153   -0.131127
     26          1           0       -3.459891    0.164433   -1.634392
     27          1           0       -3.054744    0.513293    2.076990
     28          1           0       -3.229400   -1.215866    1.727027
     29          1           0       -1.503503   -0.610733    3.414449
     30          1           0       -0.891814   -1.450421    2.154029
     31          1           0       -0.853612    1.449067    0.875056
     32          1           0       -0.068644    2.227160   -1.352775
     33          1           0       -1.339769    1.215887   -2.175668
     34          1           0       -3.157291    2.450131   -0.951906
     35          1           0       -1.919821    3.448518   -0.068444
 ---------------------------------------------------------------------

 SCF Done:  E(UB3LYP) =  -654.242610453     A.U. after   33 cycles
 SCF Done:  E(UB3LYP) =  -654.242610453     a.u. after    1 cycles

 The electronic state is 2-A.
 Alpha  occ. eigenvalues --  -18.93020 -14.19114 -14.19063 -10.11540 -10.11360
 Alpha  occ. eigenvalues --  -10.08971 -10.06830 -10.06751 -10.06697 -10.06233
 Alpha  occ. eigenvalues --  -10.05657 -10.03009 -10.02869 -10.01707 -10.00561
 Alpha  occ. eigenvalues --   -0.88432  -0.80447  -0.76842  -0.74552  -0.67576
 Alpha  occ. eigenvalues --   -0.65830  -0.62898  -0.57411  -0.56414  -0.52005
 Alpha  occ. eigenvalues --   -0.49592  -0.49111  -0.45304  -0.42358  -0.41278
 Alpha  occ. eigenvalues --   -0.39386  -0.38042  -0.37181  -0.36472  -0.34386
 Alpha  occ. eigenvalues --   -0.32443  -0.31437  -0.31114  -0.30392  -0.30370
 Alpha  occ. eigenvalues --   -0.29310  -0.28120  -0.27509  -0.26418  -0.25906
 Alpha  occ. eigenvalues --   -0.24807  -0.24453  -0.23701  -0.22734  -0.21076
 Alpha  occ. eigenvalues --   -0.19116  -0.18584  -0.17795  -0.14510  -0.12364
 Alpha  occ. eigenvalues --   -0.10823  -0.09185   0.04561
 Alpha virt. eigenvalues --    0.06255   0.07171   0.07804   0.08257   0.09304
 Alpha virt. eigenvalues --    0.09978   0.10527   0.10994   0.11067   0.11452
 Alpha virt. eigenvalues --    0.11822   0.12356   0.13109   0.13608   0.13909

  Beta  occ. eigenvalues --  -18.92868 -14.19052 -14.19046 -10.11536 -10.11231
  Beta  occ. eigenvalues --  -10.08957 -10.06817 -10.06748 -10.06677 -10.06230
  Beta  occ. eigenvalues --  -10.05687 -10.03045 -10.02500 -10.01450 -10.00436
  Beta  occ. eigenvalues --   -0.88157  -0.80363  -0.76778  -0.74498  -0.67110
  Beta  occ. eigenvalues --   -0.65748  -0.62469  -0.57365  -0.56193  -0.51964
  Beta  occ. eigenvalues --   -0.49566  -0.48700  -0.45075  -0.42097  -0.41172
  Beta  occ. eigenvalues --   -0.39221  -0.38018  -0.37055  -0.36429  -0.34238
  Beta  occ. eigenvalues --   -0.32396  -0.31332  -0.30951  -0.30282  -0.30021
  Beta  occ. eigenvalues --   -0.29218  -0.28065  -0.27191  -0.26267  -0.25856
  Beta  occ. eigenvalues --   -0.24552  -0.24158  -0.23489  -0.22616  -0.20909
  Beta  occ. eigenvalues --   -0.19060  -0.18495  -0.16683  -0.14443  -0.11864
  Beta  occ. eigenvalues --   -0.10590  -0.07605
  Beta virt. eigenvalues --    0.06670   0.07611   0.07742   0.08293   0.09430
  Beta virt. eigenvalues --    0.09709   0.10158   0.10441   0.11037   0.11118
  Beta virt. eigenvalues --    0.11542   0.11811   0.12386   0.13166   0.13592

 Mulliken charges and spin densities:
               1          2
     1  C   -0.692799  -0.029582
     2  C   -0.056628   0.235671
     3  C   -0.194440  -0.022329
     4  C   -0.028376   0.193064
     5  C    0.169405   0.062548
     6  C   -0.270854   0.187689
     7  O   -0.379693   0.052168
     8  N   -0.292891   0.037522
     9  C    0.087345   0.411922
    10  C    0.588255  -1.066494
    11  C   -0.329707  -0.471933
    12  N   -0.397400   0.003830
    13  C   -0.288942   0.263345
    14  C   -0.292982  -0.140965
    15  C   -0.290013  -0.159367
    16  H    0.120077   0.002824
    17  H    0.095000   0.028760
    18  H    0.110197   0.010105
    19  H    0.110770  -0.016142
    20  H    0.033956   0.023365
    21  H    0.144183  -0.009803
    22  H    0.141103  -0.060386
    23  H    0.306054  -0.012623
    24  H    0.109044   0.015238
    25  H   -0.241984   0.388167
    26  H    0.014256   0.156014
    27  H   -0.058366   0.209388
    28  H    0.019003   0.112857
    29  H    0.008639   0.240132
    30  H    0.208859   0.027202
    31  H    0.300567  -0.005812
    32  H    0.162648  -0.000035
    33  H    0.143010   0.014238
    34  H   -0.035752   0.167270
    35  H   -0.021545   0.152153
 Sum of Mulliken charges =  -1.00000   1.00000

 Dipole moment (field-independent basis, Debye):
    X=             -1.4963    Y=              2.0268    Z=              1.4559  Tot=              2.9097
 Quadrupole moment (field-independent basis, Debye-Ang):
   XX=           -149.8065   YY=           -120.9270   ZZ=           -117.2842
   XY=              7.8030   XZ=              2.9327   YZ=             -5.4354

 Summary of Natural Population Analysis:

                                       Natural Population
                Natural  -----------------------------------------------
    Atom  No    Charge         Core      Valence    Rydberg      Total
 -----------------------------------------------------------------------
      C    1   -0.30145      0.99966     2.29739    0.00440     3.30145
      C    2   -0.01095      0.99956     2.00277    0.00863     3.01095
      C    3   -0.12965      0.99951     2.12098    0.00915     3.12965
      C    4   -0.02516      0.99953     2.01665    0.00898     3.02516
      C    5   -0.14608      0.99948     2.13803    0.00856     3.14608
      C    6    0.34627      0.99965     1.63205    0.02204     2.65373
      O    7   -0.32870      0.99988     3.32334    0.00548     4.32870
      N    8   -0.33397      0.99965     2.82273    0.01159     3.83397
      C    9    0.05759      0.99953     1.92712    0.01575     2.94241
      C   10   -0.29040      0.99962     2.28331    0.00746     3.29040
      C   11   -0.08460      0.99956     2.07266    0.01237     3.08460
      N   12   -0.42489      0.99977     2.91475    0.01037     3.92489
      C   13   -0.12007      0.99954     2.10855    0.01198     3.12007
      C   14   -0.19193      0.99961     2.18440    0.00792     3.19193
      C   15   -0.20059      0.99962     2.19403    0.00694     3.20059
      H   16    0.09459      0.00000     0.40437    0.00104     0.40541
      H   17    0.09673      0.00000     0.40210    0.00117     0.40327
      H   18    0.09638      0.00000     0.40243    0.00119     0.40362
      H   19    0.07920      0.00000     0.41930    0.00150     0.42080
      H   20    0.08431      0.00000     0.41412    0.00157     0.41569
      H   21    0.09647      0.00000     0.40189    0.00164     0.40353
      H   22    0.09891      0.00000     0.39905    0.00203     0.40109
      H   23    0.18474      0.00000     0.31232    0.00294     0.31526
      H   24    0.09890      0.00000     0.39999    0.00111     0.40110
      H   25    0.10438      0.00000     0.39436    0.00126     0.39562
      H   26    0.10286      0.00000     0.39612    0.00102     0.39714
      H   27    0.09047      0.00000     0.40845    0.00108     0.40953
      H   28    0.07809      0.00000     0.42029    0.00162     0.42191
      H   29    0.17398      0.00000     0.32450    0.00152     0.32602
      H   30    0.18103      0.00000     0.31733    0.00164     0.31897
      H   31    0.11623      0.00000     0.38206    0.00170     0.38377
      H   32    0.10579      0.00000     0.39324    0.00097     0.39421
      H   33    0.10245      0.00000     0.39660    0.00095     0.39755
      H   34    0.10045      0.00000     0.39844    0.00111     0.39955
      H   35    0.09859      0.00000     0.40061    0.00080     0.40141
 =======================================================================
   * Total *    0.00000     14.99419    41.82632    0.17949    57.00000

 Normal termination of Gaussian 16 at Thu Dec 10 18:52:29 2020.
