 Gaussian 16, Revision A.03,

 -----------------------------------------------------------
 # opt freq B3LYP/6-31G(d) empiricaldispersion=gd3bj scf=xqc
 -----------------------------------------------------------

 -------------------------------
 CID_117032098_JID_4645_neutraal
 -------------------------------
 Symbolic Z-matrix:
 Charge =  0 Multiplicity = 1

 SCF Done:  E(RB3LYP) =  -920.472523656     A.U. after   13 cycles
 SCF Done:  E(RB3LYP) =  -920.481338217     A.U. after   12 cycles
 SCF Done:  E(RB3LYP) =  -920.481745133     A.U. after   12 cycles
 SCF Done:  E(RB3LYP) =  -920.481807619     A.U. after   12 cycles
 SCF Done:  E(RB3LYP) =  -920.482107547     A.U. after   11 cycles
 SCF Done:  E(RB3LYP) =  -920.482194092     A.U. after   11 cycles
 SCF Done:  E(RB3LYP) =  -920.482062031     A.U. after   12 cycles
 SCF Done:  E(RB3LYP) =  -920.482252116     A.U. after   11 cycles
 SCF Done:  E(RB3LYP) =  -920.482297767     A.U. after   10 cycles
 SCF Done:  E(RB3LYP) =  -920.482347283     A.U. after   11 cycles
 SCF Done:  E(RB3LYP) =  -920.484056961     A.U. after    7 cycles
 SCF Done:  E(RB3LYP) =  -920.484057154     A.U. after    7 cycles
 SCF Done:  E(RB3LYP) =  -920.484057227     A.U. after    7 cycles
 SCF Done:  E(RB3LYP) =  -920.484057261     A.U. after    7 cycles
 SCF Done:  E(RB3LYP) =  -920.484057285     A.U. after    7 cycles
 Optimization completed.
    -- Stationary point found.
 Normal termination of Gaussian 16 at Thu Dec 10 10:32:32 2020.

 --------------------------------------------------------------------
 #N Geom=AllCheck Guess=TCheck SCRF=Check GenChk RB3LYP/6-31G(d) Freq
 --------------------------------------------------------------------

 Structure from the checkpoint file:  "JID_4645.chk"
 -------------------------------
 CID_117032098_JID_4645_neutraal
 -------------------------------
 Charge =  0 Multiplicity = 1

 SCF Done:  E(RB3LYP) =  -920.484057285     A.U. after    1 cycles

  Exact polarizability: 175.880  24.570 125.706  -6.411   4.971 133.353
 Approx polarizability: 239.601  46.368 190.528 -13.762  12.738 223.022

                      1                      2                      3
                      A                      A                      A
 Frequencies --     32.1437                32.5947                38.2320
 Red. masses --      2.9516                 1.6486                 1.7202
 Frc consts  --      0.0018                 0.0010                 0.0015
 IR Inten    --      0.4688                 0.7950                 0.0727

                      4                      5                      6
                      A                      A                      A
 Frequencies --     54.0099               111.0100               127.4163
 Red. masses --      3.3809                 3.4594                 2.0690
 Frc consts  --      0.0058                 0.0251                 0.0198
 IR Inten    --      0.4001                 1.8780                 2.9659

                      7                      8                      9
                      A                      A                      A
 Frequencies --    130.9635               181.7097               203.2776
 Red. masses --      1.3173                 2.8600                 2.9965
 Frc consts  --      0.0133                 0.0556                 0.0730
 IR Inten    --      0.7378                 0.4724                 1.1645

                     10                     11                     12
                      A                      A                      A
 Frequencies --    206.3669               258.2612               285.1984
 Red. masses --      2.8274                 4.9054                 2.6667
 Frc consts  --      0.0709                 0.1928                 0.1278
 IR Inten    --      2.4194                 1.2226                 0.4221

                     13                     14                     15
                      A                      A                      A
 Frequencies --    312.9568               359.0321               378.8651
 Red. masses --      3.8903                 2.9095                 6.8695
 Frc consts  --      0.2245                 0.2210                 0.5810
 IR Inten    --      1.0148                 0.4198                 0.6307

                     16                     17                     18
                      A                      A                      A
 Frequencies --    410.5433               459.4534               467.1145
 Red. masses --      2.2254                 2.9356                 2.9420
 Frc consts  --      0.2210                 0.3651                 0.3782
 IR Inten    --      0.6335                 0.4119                 4.2889

                     19                     20                     21
                      A                      A                      A
 Frequencies --    559.2687               561.9945               635.0128
 Red. masses --      3.8043                 3.9825                 5.1560
 Frc consts  --      0.7011                 0.7411                 1.2250
 IR Inten    --      1.8154                 2.0069                 0.0256

                     22                     23                     24
                      A                      A                      A
 Frequencies --    668.4137               715.7121               729.2763
 Red. masses --      2.1801                 4.0125                 3.6890
 Frc consts  --      0.5739                 1.2110                 1.1559
 IR Inten    --     66.7137                 9.7110                 0.9005

                     25                     26                     27
                      A                      A                      A
 Frequencies --    741.7739               823.8170               836.7224
 Red. masses --      5.5607                 1.7966                 1.5540
 Frc consts  --      1.8027                 0.7184                 0.6410
 IR Inten    --      1.9297                22.9518                11.0875

                     28                     29                     30
                      A                      A                      A
 Frequencies --    870.2313               888.0463               896.6204
 Red. masses --      1.5128                 1.7642                 1.2811
 Frc consts  --      0.6750                 0.8197                 0.6068
 IR Inten    --      0.8831                11.8843                 1.3315

                     31                     32                     33
                      A                      A                      A
 Frequencies --    943.5712               949.9405               961.9711
 Red. masses --      2.3086                 3.2274                 1.3134
 Frc consts  --      1.2110                 1.7159                 0.7161
 IR Inten    --     20.3322                 0.3360                 0.3512

                     34                     35                     36
                      A                      A                      A
 Frequencies --    987.2458              1019.1968              1026.2641
 Red. masses --      1.8686                 1.4745                 2.6681
 Frc consts  --      1.0731                 0.9024                 1.6557
 IR Inten    --      2.4696                 0.3552                 9.2160

                     37                     38                     39
                      A                      A                      A
 Frequencies --   1048.2766              1056.8259              1070.6726
 Red. masses --      1.5254                 2.1307                 2.2827
 Frc consts  --      0.9876                 1.4021                 1.5417
 IR Inten    --      4.1601                 6.2426                 0.3147

                     40                     41                     42
                      A                      A                      A
 Frequencies --   1075.0560              1079.5789              1081.9063
 Red. masses --      1.5384                 2.4897                 2.2174
 Frc consts  --      1.0476                 1.7096                 1.5292
 IR Inten    --      8.8580                14.6424                 2.2166

                     43                     44                     45
                      A                      A                      A
 Frequencies --   1129.7911              1147.7029              1177.3848
 Red. masses --      1.2394                 1.3712                 1.5023
 Frc consts  --      0.9321                 1.0642                 1.2270
 IR Inten    --     12.4818                 3.8124                 1.3588

                     46                     47                     48
                      A                      A                      A
 Frequencies --   1202.4758              1204.1951              1229.8584
 Red. masses --      1.4127                 1.5239                 1.2280
 Frc consts  --      1.2035                 1.3020                 1.0944
 IR Inten    --      4.0318                 1.9890                 1.5533

                     49                     50                     51
                      A                      A                      A
 Frequencies --   1266.9156              1270.9697              1289.0670
 Red. masses --      1.4842                 2.4270                 1.2624
 Frc consts  --      1.4036                 2.3099                 1.2360
 IR Inten    --      9.5061                 2.7436                 4.6899

                     52                     53                     54
                      A                      A                      A
 Frequencies --   1305.1918              1319.5611              1338.3093
 Red. masses --      1.3440                 1.5513                 6.9982
 Frc consts  --      1.3490                 1.5915                 7.3850
 IR Inten    --     24.1031                 0.9634                 0.5915

                     55                     56                     57
                      A                      A                      A
 Frequencies --   1372.9467              1389.7222              1397.3181
 Red. masses --      1.4422                 1.3861                 1.4574
 Frc consts  --      1.6017                 1.5772                 1.6765
 IR Inten    --      0.6227                14.9082                 3.5845

                     58                     59                     60
                      A                      A                      A
 Frequencies --   1441.8226              1444.8519              1447.0539
 Red. masses --      1.2740                 1.5078                 1.8585
 Frc consts  --      1.5604                 1.8546                 2.2928
 IR Inten    --      0.3361                 0.1756                 2.6755

                     61                     62                     63
                      A                      A                      A
 Frequencies --   1491.7923              1508.1000              1510.5666
 Red. masses --      1.0906                 1.2267                 1.1547
 Frc consts  --      1.4299                 1.6438                 1.5524
 IR Inten    --      4.9729                 3.4730                 3.5293

                     64                     65                     66
                      A                      A                      A
 Frequencies --   1517.3558              1524.0753              1536.4508
 Red. masses --      1.0526                 1.1525                 1.2098
 Frc consts  --      1.4279                 1.5773                 1.6827
 IR Inten    --      5.7374                14.4774                 2.3241

                     67                     68                     69
                      A                      A                      A
 Frequencies --   1537.4318              1562.6429              1621.0839
 Red. masses --      1.4667                 1.1110                 5.8400
 Frc consts  --      2.0426                 1.5984                 9.0422
 IR Inten    --     22.3005                 3.8034                 0.5909

                     70                     71                     72
                      A                      A                      A
 Frequencies --   1662.2770              2999.8850              3008.0913
 Red. masses --      5.5946                 1.0640                 1.0719
 Frc consts  --      9.1081                 5.6416                 5.7148
 IR Inten    --      9.0652                93.5792                57.0178

                     73                     74                     75
                      A                      A                      A
 Frequencies --   3042.7972              3057.2980              3057.3550
 Red. masses --      1.0400                 1.0659                 1.0599
 Frc consts  --      5.6734                 5.8703                 5.8373
 IR Inten    --     34.7007                 5.5059                31.6587

                     76                     77                     78
                      A                      A                      A
 Frequencies --   3063.9782              3099.5556              3102.2819
 Red. masses --      1.0676                 1.0963                 1.0905
 Frc consts  --      5.9050                 6.2055                 6.1838
 IR Inten    --     47.8277                19.4407                12.9663

                     79                     80                     81
                      A                      A                      A
 Frequencies --   3116.0363              3120.2899              3126.9099
 Red. masses --      1.1004                 1.1016                 1.1026
 Frc consts  --      6.2951                 6.3190                 6.3516
 IR Inten    --     14.3379                13.6516                15.1674

                     82                     83                     84
                      A                      A                      A
 Frequencies --   3127.5642              3130.3982              3171.4940
 Red. masses --      1.0934                 1.1031                 1.0896
 Frc consts  --      6.3015                 6.3689                 6.4573
 IR Inten    --     29.2150                19.8187                25.2222

                     85                     86                     87
                      A                      A                      A
 Frequencies --   3181.0467              3204.5270              3500.9875
 Red. masses --      1.0880                 1.0938                 1.0761
 Frc consts  --      6.4868                 6.6180                 7.7710
 IR Inten    --     13.4966                10.3358                 4.3673

 - Thermochemistry -
 -------------------
 Temperature   298.150 Kelvin.  Pressure   1.00000 Atm.
 Atom     1 has atomic number  6 and mass  12.00000

 Molecular mass:   207.10817 amu.
 Principal axes and moments of inertia in atomic units:
                           1         2         3
     Eigenvalues --  2013.753884411.632825013.20907
           X            0.99996   0.00883  -0.00031
           Y           -0.00881   0.99922   0.03839
           Z            0.00064  -0.03839   0.99926
 This molecule is an asymmetric top.
 Rotational symmetry number  1.
 Warning -- assumption of classical behavior for rotation
           may cause significant error
 Rotational temperatures (Kelvin)      0.04301     0.01963     0.01728
 Rotational constants (GHZ):           0.89621     0.40909     0.36000
 Zero-point vibrational energy     701214.8 (Joules/Mol)
                                  167.59435 (Kcal/Mol)
 Warning -- explicit consideration of  20 degrees of freedom as
           vibrations may cause significant error
 Vibrational temperatures:     46.25    46.90    55.01    77.71   159.72
          (Kelvin)            183.32   188.43   261.44   292.47   296.92
                              371.58   410.34   450.28   516.57   545.10
                              590.68   661.05   672.07   804.66   808.58
                              913.64   961.70  1029.75  1049.27  1067.25
                             1185.29  1203.86  1252.07  1277.70  1290.04
                             1357.59  1366.75  1384.06  1420.43  1466.40
                             1476.57  1508.24  1520.54  1540.46  1546.77
                             1553.27  1556.62  1625.52  1651.29  1693.99
                             1730.09  1732.57  1769.49  1822.81  1828.64
                             1854.68  1877.88  1898.55  1925.53  1975.36
                             1999.50  2010.43  2074.46  2078.82  2081.99
                             2146.36  2169.82  2173.37  2183.14  2192.80
                             2210.61  2212.02  2248.29  2332.38  2391.65
                             4316.17  4327.97  4377.91  4398.77  4398.85
                             4408.38  4459.57  4463.49  4483.28  4489.40
                             4498.93  4499.87  4503.94  4563.07  4576.82
                             4610.60  5037.14

 Zero-point correction=                           0.267079 (Hartree/Particle)
 Thermal correction to Energy=                    0.281837
 Thermal correction to Enthalpy=                  0.282781
 Thermal correction to Gibbs Free Energy=         0.223246
 Sum of electronic and zero-point Energies=           -920.216979
 Sum of electronic and thermal Energies=              -920.202220
 Sum of electronic and thermal Enthalpies=            -920.201276
 Sum of electronic and thermal Free Energies=         -920.260812

                     E (Thermal)             CV                S
                      KCal/Mol        Cal/Mol-Kelvin    Cal/Mol-Kelvin
 Total                  176.855             54.361            125.303
 Electronic               0.000              0.000              0.000
 Translational            0.889              2.981             41.888
 Rotational               0.889              2.981             32.166
 Vibrational            175.078             48.400             51.249
 Vibration     1          0.594              1.983              5.693
 Vibration     2          0.594              1.983              5.665
 Vibration     3          0.594              1.982              5.349
 Vibration     4          0.596              1.976              4.665
 Vibration     5          0.607              1.940              3.251
 Vibration     6          0.611              1.926              2.985
 Vibration     7          0.612              1.922              2.932
 Vibration     8          0.630              1.865              2.311
 Vibration     9          0.639              1.835              2.103
 Vibration    10          0.641              1.831              2.076
 Vibration    11          0.667              1.749              1.673
 Vibration    12          0.683              1.701              1.502
 Vibration    13          0.701              1.649              1.347
 Vibration    14          0.734              1.557              1.126
 Vibration    15          0.749              1.515              1.044
 Vibration    16          0.775              1.447              0.925
 Vibration    17          0.817              1.340              0.768
 Vibration    18          0.824              1.323              0.746
 Vibration    19          0.915              1.119              0.525
 Vibration    20          0.918              1.114              0.520

 Optimization completed on the basis of negligible forces.
    -- Stationary point found.
 Normal termination of Gaussian 16 at Thu Dec 10 10:42:07 2020.

 ----------------------------------------------------------------------
 # B3LYP/6-311++G(d,p) empiricaldispersion=gd3bj scf=xqc pop=npa geom=c
 heck
 ----------------------------------------------------------------------

 ---------------------------------------
 CID_117032098_JID_4645_Energie_neutraal
 ---------------------------------------
 Structure from the checkpoint file:  "JID_4645.chk"
 Charge =  0 Multiplicity = 1

 SCF Done:  E(RB3LYP) =  -920.650755790     A.U. after   16 cycles
 Normal termination of Gaussian 16 at Thu Dec 10 10:46:51 2020.

 ----------------------------------------------------------------------
 # B3LYP/6-311++G(d,p) empiricaldispersion=gd3bj scf=xqc pop=npa geom=c
 heck
 ----------------------------------------------------------------------

 -------------------------------------
 CID_117032098_JID_4645_Energie_kation
 -------------------------------------
 Structure from the checkpoint file:  "JID_4645.chk"
 Charge =  1 Multiplicity = 2

 SCF Done:  E(UB3LYP) =  -920.367007887     A.U. after   28 cycles
 Normal termination of Gaussian 16 at Thu Dec 10 10:57:26 2020.
 Gaussian 16:  ES64L-G16RevA.03 25-Dec-2016

 ----------------------------------------------------------------------
 # B3LYP/6-311++G(d,p) empiricaldispersion=gd3bj scf=xqc pop=npa geom=c
 heck
 ----------------------------------------------------------------------

 ------------------------------------
 CID_117032098_JID_4645_Energie_anion
 ------------------------------------
 Structure from the checkpoint file:  "JID_4645.chk"
 Charge = -1 Multiplicity = 2

                         Standard orientation:
 ---------------------------------------------------------------------
 Center     Atomic      Atomic             Coordinates (Angstroms)
 Number     Number       Type             X           Y           Z
 ---------------------------------------------------------------------
      1          6           0       -4.092596   -1.542047    0.003242
      2          6           0       -2.861441   -0.682688   -0.146010
      3          6           0       -2.326840    0.002670    0.948838
      4          6           0       -1.195942    0.821452    0.848836
      5          6           0       -0.585648    0.955783   -0.412530
      6          6           0       -1.123524    0.292487   -1.521234
      7          6           0       -2.239367   -0.527837   -1.390016
      8         16           0        0.886169    1.959747   -0.629864
      9          6           0        2.176693    0.660340   -0.844716
     10          6           0        2.472484   -0.167892    0.398245
     11          6           0        1.537117   -1.387648    0.635560
     12          7           0        2.542591   -2.253400   -0.026548
     13          6           0        3.588531   -1.226792    0.177427
     14          6           0       -0.653911    1.505932    2.078864
     15          1           0       -4.235688   -1.859659    1.040938
     16          1           0       -4.995440   -0.995859   -0.300159
     17          1           0       -4.032029   -2.439100   -0.622406
     18          1           0       -2.800211   -0.111877    1.921788
     19          1           0       -0.649485    0.416492   -2.490321
     20          1           0       -2.634522   -1.045728   -2.260531
     21          1           0        1.903188    0.012698   -1.683808
     22          1           0        3.067705    1.227141   -1.139079
     23          1           0        2.617357    0.489695    1.259015
     24          1           0        1.396937   -1.583879    1.709656
     25          1           0        0.558655   -1.381798    0.149100
     26          1           0        2.715668   -3.147430    0.427852
     27          1           0        4.254578   -1.081039   -0.683240
     28          1           0        4.205698   -1.363678    1.079037
     29          1           0       -0.641133    2.594738    1.962609
     30          1           0       -1.260935    1.261655    2.955872
     31          1           0        0.379480    1.202917    2.278298
 ---------------------------------------------------------------------

 SCF Done:  E(UB3LYP) =  -920.637497482     A.U. after   33 cycles
 SCF Done:  E(UB3LYP) =  -920.637497482     a.u. after    1 cycles

 The electronic state is 2-A.
 Alpha  occ. eigenvalues --  -88.73654 -14.19127 -10.09605 -10.09358 -10.08964
 Alpha  occ. eigenvalues --  -10.08546 -10.08441 -10.08210 -10.07729 -10.07597
 Alpha  occ. eigenvalues --  -10.07195 -10.07168 -10.07053 -10.06685  -7.82263
 Alpha  occ. eigenvalues --   -5.78658  -5.78297  -5.77636  -0.82539  -0.76813
 Alpha  occ. eigenvalues --   -0.70623  -0.67871  -0.66305  -0.61887  -0.59241
 Alpha  occ. eigenvalues --   -0.57498  -0.56964  -0.52564  -0.50059  -0.46416
 Alpha  occ. eigenvalues --   -0.44335  -0.41781  -0.38976  -0.37990  -0.36471
 Alpha  occ. eigenvalues --   -0.34637  -0.33807  -0.32936  -0.31944  -0.31465
 Alpha  occ. eigenvalues --   -0.30688  -0.30152  -0.29925  -0.28316  -0.27297
 Alpha  occ. eigenvalues --   -0.26125  -0.25951  -0.25188  -0.24507  -0.23581
 Alpha  occ. eigenvalues --   -0.21188  -0.20564  -0.15415  -0.14656  -0.12831
 Alpha  occ. eigenvalues --   -0.12156   0.04406
 Alpha virt. eigenvalues --    0.06096   0.06684   0.07472   0.08033   0.08298
 Alpha virt. eigenvalues --    0.08505   0.08884   0.09501   0.09893   0.10465
 Alpha virt. eigenvalues --    0.11118   0.11495   0.11912   0.12357   0.12892

  Beta  occ. eigenvalues --  -88.73652 -14.19109 -10.09561 -10.09300 -10.08931
  Beta  occ. eigenvalues --  -10.08504 -10.08426 -10.08130 -10.07723 -10.07587
  Beta  occ. eigenvalues --  -10.07185 -10.07146 -10.07061 -10.06677  -7.82260
  Beta  occ. eigenvalues --   -5.78653  -5.78295  -5.77633  -0.82510  -0.76723
  Beta  occ. eigenvalues --   -0.70523  -0.67789  -0.66236  -0.61818  -0.59208
  Beta  occ. eigenvalues --   -0.57423  -0.56906  -0.52490  -0.50022  -0.46314
  Beta  occ. eigenvalues --   -0.44281  -0.41693  -0.38922  -0.37944  -0.36421
  Beta  occ. eigenvalues --   -0.34577  -0.33751  -0.32818  -0.31865  -0.31420
  Beta  occ. eigenvalues --   -0.30629  -0.30111  -0.29878  -0.28274  -0.27243
  Beta  occ. eigenvalues --   -0.26080  -0.25873  -0.25066  -0.24468  -0.23530
  Beta  occ. eigenvalues --   -0.21146  -0.20470  -0.15269  -0.14423  -0.12784
  Beta  occ. eigenvalues --   -0.12042
  Beta virt. eigenvalues --    0.06570   0.07009   0.07446   0.07753   0.08219
  Beta virt. eigenvalues --    0.08506   0.08885   0.09398   0.09903   0.10191
  Beta virt. eigenvalues --    0.10700   0.11485   0.11674   0.12173   0.12669

 Mulliken charges and spin densities:
               1          2
     1  C    1.545070  -2.133137
     2  C    0.139771   0.455565
     3  C   -0.208949  -0.297263
     4  C   -1.059500   0.801096
     5  C    1.271380  -0.201666
     6  C   -0.177102  -0.215111
     7  C   -1.161027   0.703670
     8  S   -0.095801   0.011565
     9  C   -0.152015  -0.688513
    10  C   -1.012505   1.464386
    11  C   -0.073068  -0.602381
    12  N   -0.316287   0.186547
    13  C    1.494660  -2.061932
    14  C    0.028658  -0.563685
    15  H   -0.259444   0.405859
    16  H   -0.219271   0.395336
    17  H   -0.017078   0.155550
    18  H   -0.164405   0.321742
    19  H    0.071562   0.086220
    20  H   -0.093051   0.247106
    21  H    0.209479   0.003398
    22  H   -0.039366   0.254486
    23  H    0.172096   0.036725
    24  H   -0.480738   0.625592
    25  H    0.403815  -0.191752
    26  H    0.088440   0.143274
    27  H   -0.013760   0.161527
    28  H   -0.812408   0.966699
    29  H    0.164271  -0.007632
    30  H   -0.102937   0.231336
    31  H   -0.130491   0.305392
 Sum of Mulliken charges =  -1.00000   1.00000

 Dipole moment (field-independent basis, Debye):
    X=             -1.3285    Y=              2.6492    Z=             -3.0841  Tot=              4.2773
 Quadrupole moment (field-independent basis, Debye-Ang):
   XX=           -177.6767   YY=           -130.3429   ZZ=           -128.8958
   XY=              4.2335   XZ=             -8.4198   YZ=              6.2856

 Summary of Natural Population Analysis:

                                       Natural Population
                Natural  -----------------------------------------------
    Atom  No    Charge         Core      Valence    Rydberg      Total
 -----------------------------------------------------------------------
      C    1   -0.29371      0.99964     2.28849    0.00557     3.29371
      C    2    0.00286      0.99952     1.98857    0.00905     2.99714
      C    3   -0.10400      0.99947     2.09551    0.00903     3.10400
      C    4   -0.00647      0.99944     1.99710    0.00993     3.00647
      C    5   -0.08785      0.99934     2.07546    0.01304     3.08785
      C    6   -0.09390      0.99949     2.08431    0.01010     3.09390
      C    7   -0.10641      0.99951     2.09755    0.00935     3.10641
      S    8    0.09408      4.99956     2.88877    0.01759     7.90592
      C    9   -0.23833      0.99955     2.22708    0.01171     3.23833
      C   10   -0.12751      0.99957     2.11405    0.01388     3.12751
      C   11   -0.08258      0.99964     2.07173    0.01122     3.08258
      N   12   -0.34625      0.99976     2.83436    0.01213     3.84625
      C   13   -0.07856      0.99964     2.06759    0.01132     3.07856
      C   14   -0.29399      0.99963     2.28851    0.00585     3.29399
      H   15    0.10251      0.00000     0.39656    0.00093     0.39749
      H   16    0.10726      0.00000     0.39067    0.00206     0.39274
      H   17    0.10126      0.00000     0.39788    0.00086     0.39874
      H   18    0.09724      0.00000     0.40137    0.00139     0.40276
      H   19    0.10213      0.00000     0.39684    0.00103     0.39787
      H   20    0.09738      0.00000     0.40143    0.00119     0.40262
      H   21    0.10370      0.00000     0.39479    0.00152     0.39630
      H   22    0.10455      0.00000     0.39422    0.00123     0.39545
      H   23    0.10262      0.00000     0.39557    0.00182     0.39738
      H   24    0.08663      0.00000     0.41127    0.00210     0.41337
      H   25    0.09447      0.00000     0.40261    0.00292     0.40553
      H   26    0.17353      0.00000     0.32430    0.00217     0.32647
      H   27    0.08489      0.00000     0.41372    0.00139     0.41511
      H   28    0.08951      0.00000     0.40649    0.00401     0.41049
      H   29    0.10506      0.00000     0.39410    0.00084     0.39494
      H   30    0.09903      0.00000     0.40020    0.00078     0.40097
      H   31    0.11085      0.00000     0.38787    0.00127     0.38915
 =======================================================================
   * Total *    0.00000     17.99376    37.82894    0.17730    56.00000

 Normal termination of Gaussian 16 at Thu Dec 10 11:10:06 2020.
