 Gaussian 16, Revision A.03,

 -----------------------------------------------------------
 # opt freq B3LYP/6-31G(d) empiricaldispersion=gd3bj scf=xqc
 -----------------------------------------------------------

 -------------------------------
 CID_121003022_JID_3701_neutraal
 -------------------------------
 Symbolic Z-matrix:
 Charge =  0 Multiplicity = 1

 SCF Done:  E(RB3LYP) =  -544.629325570     A.U. after   13 cycles
 SCF Done:  E(RB3LYP) =  -544.631210582     A.U. after   12 cycles
 SCF Done:  E(RB3LYP) =  -544.631737067     A.U. after   11 cycles
 SCF Done:  E(RB3LYP) =  -544.631993777     A.U. after   11 cycles
 SCF Done:  E(RB3LYP) =  -544.632018491     A.U. after   10 cycles
 SCF Done:  E(RB3LYP) =  -544.632032589     A.U. after    9 cycles
 SCF Done:  E(RB3LYP) =  -544.632039189     A.U. after    9 cycles
 SCF Done:  E(RB3LYP) =  -544.632041567     A.U. after    8 cycles
 SCF Done:  E(RB3LYP) =  -544.632041761     A.U. after    7 cycles
 Optimization completed.
    -- Stationary point found.
 Normal termination of Gaussian 16 at Mon Dec 14 13:07:58 2020.

 --------------------------------------------------------------------
 #N Geom=AllCheck Guess=TCheck SCRF=Check GenChk RB3LYP/6-31G(d) Freq
 --------------------------------------------------------------------

 Structure from the checkpoint file:  "JID_3701.chk"
 -------------------------------
 CID_121003022_JID_3701_neutraal
 -------------------------------
 Charge =  0 Multiplicity = 1

 SCF Done:  E(RB3LYP) =  -544.632041761     A.U. after    1 cycles

  Exact polarizability: 136.567  -0.307 123.677  -1.665   1.536 102.672
 Approx polarizability: 178.870  -6.203 170.924  -7.819   5.226 168.071

                      1                      2                      3
                      A                      A                      A
 Frequencies --     64.3181                93.4208               128.7915
 Red. masses --      4.8159                 3.1480                 2.6128
 Frc consts  --      0.0117                 0.0162                 0.0255
 IR Inten    --      2.5944                 1.4465                 0.3666

                      4                      5                      6
                      A                      A                      A
 Frequencies --    188.0430               212.6764               233.9772
 Red. masses --      1.8616                 1.5386                 2.7311
 Frc consts  --      0.0388                 0.0410                 0.0881
 IR Inten    --      0.3580                 0.2911                 0.1078

                      7                      8                      9
                      A                      A                      A
 Frequencies --    265.7305               280.0127               291.9641
 Red. masses --      1.1658                 1.6155                 2.0323
 Frc consts  --      0.0485                 0.0746                 0.1021
 IR Inten    --      0.1253                 0.0044                 0.0889

                     10                     11                     12
                      A                      A                      A
 Frequencies --    319.3025               362.4103               369.7877
 Red. masses --      2.9352                 2.1743                 3.2980
 Frc consts  --      0.1763                 0.1683                 0.2657
 IR Inten    --      0.0874                 0.4900                 0.6024

                     13                     14                     15
                      A                      A                      A
 Frequencies --    392.9255               420.6064               453.3643
 Red. masses --      2.8590                 2.2116                 2.7212
 Frc consts  --      0.2601                 0.2305                 0.3295
 IR Inten    --      1.1816                 0.2080                 0.5184

                     16                     17                     18
                      A                      A                      A
 Frequencies --    464.4065               492.3677               498.9951
 Red. masses --      2.6715                 2.5002                 3.0252
 Frc consts  --      0.3395                 0.3571                 0.4438
 IR Inten    --      1.1299                 0.1073                 5.2073

                     19                     20                     21
                      A                      A                      A
 Frequencies --    535.6563               566.5478               684.1571
 Red. masses --      2.6136                 1.9525                 3.7055
 Frc consts  --      0.4418                 0.3692                 1.0219
 IR Inten    --      5.1112                 3.2231                 2.6075

                     22                     23                     24
                      A                      A                      A
 Frequencies --    751.2034               773.5403               836.2029
 Red. masses --      2.4371                 2.4811                 2.4782
 Frc consts  --      0.8103                 0.8747                 1.0210
 IR Inten    --      1.2018                 1.8191                 2.0458

                     25                     26                     27
                      A                      A                      A
 Frequencies --    842.6070               881.8426               883.2774
 Red. masses --      1.9271                 1.5411                 1.9041
 Frc consts  --      0.8061                 0.7061                 0.8753
 IR Inten    --      0.2101                 0.9950                 0.3432

                     28                     29                     30
                      A                      A                      A
 Frequencies --    899.9029               943.3384               954.0593
 Red. masses --      2.2712                 2.0757                 1.5554
 Frc consts  --      1.0836                 1.0883                 0.8342
 IR Inten    --      1.5438                 2.5206                 1.8784

                     31                     32                     33
                      A                      A                      A
 Frequencies --    963.3080               984.6775              1011.0660
 Red. masses --      1.6707                 1.9310                 1.9074
 Frc consts  --      0.9134                 1.1031                 1.1488
 IR Inten    --      2.4714                 3.9076                 0.7171

                     34                     35                     36
                      A                      A                      A
 Frequencies --   1015.2808              1038.9721              1053.0828
 Red. masses --      1.6706                 1.3644                 2.1266
 Frc consts  --      1.0146                 0.8678                 1.3895
 IR Inten    --      0.2346                 0.3449                 1.1661

                     37                     38                     39
                      A                      A                      A
 Frequencies --   1071.8247              1084.0661              1087.1636
 Red. masses --      1.7749                 1.9850                 1.6695
 Frc consts  --      1.2014                 1.3744                 1.1626
 IR Inten    --      2.8734                 4.7777                 1.5431

                     40                     41                     42
                      A                      A                      A
 Frequencies --   1124.9411              1142.2064              1170.8411
 Red. masses --      2.4692                 1.6018                 1.5838
 Frc consts  --      1.8410                 1.2313                 1.2792
 IR Inten    --      6.7164                 2.9461                 1.4943

                     43                     44                     45
                      A                      A                      A
 Frequencies --   1196.9436              1214.6582              1236.2038
 Red. masses --      2.0599                 1.6861                 1.8967
 Frc consts  --      1.7388                 1.4657                 1.7078
 IR Inten    --      6.2136                18.1770                10.6711

                     46                     47                     48
                      A                      A                      A
 Frequencies --   1251.2817              1263.7505              1274.1088
 Red. masses --      1.7481                 1.6187                 1.7006
 Frc consts  --      1.6126                 1.5232                 1.6266
 IR Inten    --      2.6324                10.0935                 5.2053

                     49                     50                     51
                      A                      A                      A
 Frequencies --   1295.7460              1312.2300              1326.3633
 Red. masses --      1.6354                 1.3643                 1.3074
 Frc consts  --      1.6178                 1.3841                 1.3551
 IR Inten    --     15.5794                 7.7697                 1.7342

                     52                     53                     54
                      A                      A                      A
 Frequencies --   1335.9783              1349.1108              1367.9496
 Red. masses --      1.6141                 1.3287                 1.3592
 Frc consts  --      1.6973                 1.4249                 1.4985
 IR Inten    --      4.6865                 2.6631                 6.8955

                     55                     56                     57
                      A                      A                      A
 Frequencies --   1378.8665              1389.3227              1400.0652
 Red. masses --      1.3967                 1.3984                 1.4912
 Frc consts  --      1.5646                 1.5903                 1.7222
 IR Inten    --      2.6810                 0.5219                 6.9495

                     58                     59                     60
                      A                      A                      A
 Frequencies --   1402.6417              1411.9690              1415.6022
 Red. masses --      1.3845                 1.5810                 1.5161
 Frc consts  --      1.6048                 1.8571                 1.7900
 IR Inten    --      0.4311                 4.5040                 1.0062

                     61                     62                     63
                      A                      A                      A
 Frequencies --   1431.9828              1453.8068              1493.9695
 Red. masses --      1.2460                 1.2303                 1.1009
 Frc consts  --      1.5054                 1.5321                 1.4478
 IR Inten    --      8.3285                 8.6451                 5.1003

                     64                     65                     66
                      A                      A                      A
 Frequencies --   1504.7356              1509.8734              1514.8771
 Red. masses --      1.0883                 1.0862                 1.0688
 Frc consts  --      1.4518                 1.4590                 1.4451
 IR Inten    --      6.9813                 0.6100                 2.6791

                     67                     68                     69
                      A                      A                      A
 Frequencies --   1517.2758              1526.4391              1531.1881
 Red. masses --      1.0639                 1.0882                 1.0586
 Frc consts  --      1.4431                 1.4939                 1.4623
 IR Inten    --      0.0964                 6.3891                 3.5672

                     70                     71                     72
                      A                      A                      A
 Frequencies --   1532.8938              1539.6668              1547.5427
 Red. masses --      1.0910                 1.0524                 1.0612
 Frc consts  --      1.5104                 1.4699                 1.4974
 IR Inten    --      3.6956                 4.3330                 5.6919

                     73                     74                     75
                      A                      A                      A
 Frequencies --   1820.6649              2986.8934              3003.3468
 Red. masses --     10.8435                 1.0805                 1.0811
 Frc consts  --     21.1778                 5.6798                 5.7455
 IR Inten    --    214.3960                 4.0802                 9.8164

                     76                     77                     78
                      A                      A                      A
 Frequencies --   3017.5165              3020.8673              3026.4465
 Red. masses --      1.0649                 1.0642                 1.0692
 Frc consts  --      5.7129                 5.7216                 5.7699
 IR Inten    --     14.1082                29.8177                 5.0211

                     79                     80                     81
                      A                      A                      A
 Frequencies --   3034.6230              3039.8037              3041.2549
 Red. masses --      1.0628                 1.0638                 1.0660
 Frc consts  --      5.7667                 5.7918                 5.8093
 IR Inten    --     39.2098                11.7639                30.7798

                     82                     83                     84
                      A                      A                      A
 Frequencies --   3044.4177              3055.3307              3063.8579
 Red. masses --      1.0375                 1.0419                 1.0980
 Frc consts  --      5.6654                 5.7307                 6.0726
 IR Inten    --     36.1520                14.4887                34.9955

                     85                     86                     87
                      A                      A                      A
 Frequencies --   3067.6487              3078.1446              3081.7425
 Red. masses --      1.0914                 1.1010                 1.1038
 Frc consts  --      6.0513                 6.1463                 6.1762
 IR Inten    --     49.5207                46.2557                80.0839

                     88                     89                     90
                      A                      A                      A
 Frequencies --   3106.4491              3113.4193              3120.2755
 Red. masses --      1.1018                 1.1005                 1.1002
 Frc consts  --      6.2645                 6.2850                 6.3109
 IR Inten    --     31.0632                24.6296                53.2034

                     91                     92                     93
                      A                      A                      A
 Frequencies --   3122.1729              3129.3217              3139.1987
 Red. masses --      1.0955                 1.1007                 1.0941
 Frc consts  --      6.2920                 6.3504                 6.3523
 IR Inten    --     19.2340                32.3140                20.1060

 - Thermochemistry -
 -------------------
 Temperature   298.150 Kelvin.  Pressure   1.00000 Atm.
 Atom     1 has atomic number  6 and mass  12.00000

 Molecular mass:   180.15142 amu.
 Principal axes and moments of inertia in atomic units:
                           1         2         3
     Eigenvalues --  1488.721692824.383273747.88210
           X            0.99923   0.03866   0.00615
           Y           -0.03862   0.99923  -0.00646
           Z           -0.00639   0.00622   0.99996
 This molecule is an asymmetric top.
 Rotational symmetry number  1.
 Warning -- assumption of classical behavior for rotation
           may cause significant error
 Rotational temperatures (Kelvin)      0.05818     0.03067     0.02311
 Rotational constants (GHZ):           1.21228     0.63899     0.48154
 Zero-point vibrational energy     794758.9 (Joules/Mol)
                                  189.95193 (Kcal/Mol)
 Warning -- explicit consideration of  20 degrees of freedom as
           vibrations may cause significant error
 Vibrational temperatures:     92.54   134.41   185.30   270.55   305.99
          (Kelvin)            336.64   382.33   402.88   420.07   459.41
                              521.43   532.04   565.33   605.16   652.29
                              668.18   708.41   717.94   770.69   815.14
                              984.35  1080.81  1112.95  1203.11  1212.32
                             1268.77  1270.84  1294.76  1357.25  1372.68
                             1385.99  1416.73  1454.70  1460.76  1494.85
                             1515.15  1542.12  1559.73  1564.19  1618.54
                             1643.38  1684.58  1722.13  1747.62  1778.62
                             1800.32  1818.26  1833.16  1864.29  1888.01
                             1908.34  1922.17  1941.07  1968.17  1983.88
                             1998.93  2014.38  2018.09  2031.51  2036.74
                             2060.30  2091.70  2149.49  2164.98  2172.37
                             2179.57  2183.02  2196.21  2203.04  2205.49
                             2215.24  2226.57  2619.53  4297.47  4321.15
                             4341.53  4346.35  4354.38  4366.15  4373.60
                             4375.69  4380.24  4395.94  4408.21  4413.66
                             4428.76  4433.94  4469.49  4479.52  4489.38
                             4492.11  4502.40  4516.61

 Zero-point correction=                           0.302708 (Hartree/Particle)
 Thermal correction to Energy=                    0.315080
 Thermal correction to Enthalpy=                  0.316025
 Thermal correction to Gibbs Free Energy=         0.265236
 Sum of electronic and zero-point Energies=           -544.329334
 Sum of electronic and thermal Energies=              -544.316961
 Sum of electronic and thermal Enthalpies=            -544.316017
 Sum of electronic and thermal Free Energies=         -544.366806

                     E (Thermal)             CV                S
                      KCal/Mol        Cal/Mol-Kelvin    Cal/Mol-Kelvin
 Total                  197.716             50.657            106.895
 Electronic               0.000              0.000              0.000
 Translational            0.889              2.981             41.473
 Rotational               0.889              2.981             31.133
 Vibrational            195.938             44.696             34.289
 Vibration     1          0.597              1.971              4.320
 Vibration     2          0.602              1.954              3.587
 Vibration     3          0.611              1.924              2.964
 Vibration     4          0.633              1.856              2.247
 Vibration     5          0.644              1.822              2.021
 Vibration     6          0.654              1.789              1.848
 Vibration     7          0.672              1.736              1.624
 Vibration     8          0.680              1.711              1.534
 Vibration     9          0.687              1.689              1.463
 Vibration    10          0.705              1.637              1.314
 Vibration    11          0.736              1.550              1.112
 Vibration    12          0.742              1.534              1.081
 Vibration    13          0.760              1.485              0.989
 Vibration    14          0.783              1.425              0.890
 Vibration    15          0.812              1.353              0.786
 Vibration    16          0.822              1.329              0.753
 Vibration    17          0.848              1.267              0.677
 Vibration    18          0.854              1.252              0.661
 Vibration    19          0.891              1.171              0.575
 Vibration    20          0.922              1.104              0.511

                           ! Non-Optimized Parameters !
 Normal termination of Gaussian 16 at Mon Dec 14 13:17:34 2020.

 ----------------------------------------------------------------------
 # B3LYP/6-311++G(d,p) empiricaldispersion=gd3bj scf=xqc pop=npa geom=c
 heck
 ----------------------------------------------------------------------

 ---------------------------------------
 CID_121003022_JID_3701_Energie_neutraal
 ---------------------------------------
 Structure from the checkpoint file:  "JID_3701.chk"
 Charge =  0 Multiplicity = 1

 SCF Done:  E(RB3LYP) =  -544.781614407     A.U. after   14 cycles
 Normal termination of Gaussian 16 at Mon Dec 14 13:21:22 2020.

 ----------------------------------------------------------------------
 # B3LYP/6-311++G(d,p) empiricaldispersion=gd3bj scf=xqc pop=npa geom=c
 heck
 ----------------------------------------------------------------------

 -------------------------------------
 CID_121003022_JID_3701_Energie_kation
 -------------------------------------
 Structure from the checkpoint file:  "JID_3701.chk"
 Charge =  1 Multiplicity = 2

 SCF Done:  E(UB3LYP) =  -544.458777206     A.U. after   23 cycles
 Normal termination of Gaussian 16 at Mon Dec 14 13:29:40 2020.
 Gaussian 16:  ES64L-G16RevA.03 25-Dec-2016

 ----------------------------------------------------------------------
 # B3LYP/6-311++G(d,p) empiricaldispersion=gd3bj scf=xqc pop=npa geom=c
 heck
 ----------------------------------------------------------------------

 ------------------------------------
 CID_121003022_JID_3701_Energie_anion
 ------------------------------------
 Structure from the checkpoint file:  "JID_3701.chk"
 Charge = -1 Multiplicity = 2

                         Standard orientation:
 ---------------------------------------------------------------------
 Center     Atomic      Atomic             Coordinates (Angstroms)
 Number     Number       Type             X           Y           Z
 ---------------------------------------------------------------------
      1          6           0       -1.594046   -2.204679   -0.741959
      2          6           0       -1.436187   -0.864454   -0.002481
      3          6           0       -2.483647    0.117618   -0.578724
      4          6           0       -2.352874    1.545489   -0.043277
      5          6           0       -0.950256    2.092504   -0.314600
      6          6           0        0.147694    1.178642    0.245516
      7          6           0       -0.014144   -0.274818   -0.257833
      8          6           0        1.121695   -1.164001    0.300634
      9          6           0        2.494462   -0.588488   -0.001337
     10          8           0        3.364660   -1.228502   -0.560992
     11          6           0        2.681066    0.854848    0.430705
     12          6           0        1.536727    1.726771   -0.114493
     13          6           0       -1.705661   -1.099722    1.495831
     14          1           0       -2.625689   -2.566246   -0.657188
     15          1           0       -0.940646   -2.982035   -0.333347
     16          1           0       -1.364284   -2.095917   -1.808755
     17          1           0       -3.488669   -0.275810   -0.378020
     18          1           0       -2.372307    0.141314   -1.672765
     19          1           0       -3.107079    2.189746   -0.511500
     20          1           0       -2.556736    1.565520    1.035305
     21          1           0       -0.806170    2.187545   -1.401443
     22          1           0       -0.839014    3.101274    0.103426
     23          1           0        0.063746    1.172265    1.343730
     24          1           0        0.109412   -0.241977   -1.352723
     25          1           0        1.085215   -2.178464   -0.101483
     26          1           0        1.022323   -1.227942    1.393443
     27          1           0        3.661402    1.203927    0.095214
     28          1           0        2.665302    0.887022    1.530331
     29          1           0        1.621578    1.785788   -1.208808
     30          1           0        1.640616    2.751978    0.261477
     31          1           0       -2.741052   -1.428606    1.642561
     32          1           0       -1.055641   -1.881379    1.902341
     33          1           0       -1.558562   -0.198254    2.098250
 ---------------------------------------------------------------------

 SCF Done:  E(UB3LYP) =  -544.770863610     A.U. after   33 cycles
 SCF Done:  E(UB3LYP) =  -544.770863610     a.u. after    1 cycles

 The electronic state is 2-A.
 Alpha  occ. eigenvalues --  -18.99188 -10.13402 -10.08112 -10.07405 -10.06686
 Alpha  occ. eigenvalues --  -10.06615 -10.06404 -10.06289 -10.05989 -10.05922
 Alpha  occ. eigenvalues --  -10.05904 -10.05882 -10.05200  -0.92536  -0.75488
 Alpha  occ. eigenvalues --   -0.70397  -0.67789  -0.63680  -0.61785  -0.58575
 Alpha  occ. eigenvalues --   -0.56683  -0.52393  -0.49092  -0.47392  -0.43401
 Alpha  occ. eigenvalues --   -0.41644  -0.36906  -0.36213  -0.35606  -0.35253
 Alpha  occ. eigenvalues --   -0.34068  -0.32943  -0.32032  -0.31830  -0.30300
 Alpha  occ. eigenvalues --   -0.29273  -0.28174  -0.27642  -0.27440  -0.25432
 Alpha  occ. eigenvalues --   -0.25108  -0.24916  -0.24200  -0.23428  -0.22816
 Alpha  occ. eigenvalues --   -0.22560  -0.20917  -0.19196  -0.18831  -0.13156
 Alpha  occ. eigenvalues --    0.04462
 Alpha virt. eigenvalues --    0.06832   0.07392   0.08113   0.08759   0.09246
 Alpha virt. eigenvalues --    0.09679   0.09864   0.10216   0.10854   0.12017
 Alpha virt. eigenvalues --    0.12130   0.12541   0.12744   0.13276   0.13661

  Beta  occ. eigenvalues --  -18.99049 -10.13268 -10.08106 -10.07391 -10.06670
  Beta  occ. eigenvalues --  -10.06590 -10.06403 -10.06293 -10.05974 -10.05904
  Beta  occ. eigenvalues --  -10.05892 -10.05862 -10.05162  -0.92268  -0.75452
  Beta  occ. eigenvalues --   -0.70336  -0.67739  -0.63639  -0.61684  -0.58523
  Beta  occ. eigenvalues --   -0.56624  -0.52341  -0.48992  -0.47324  -0.43300
  Beta  occ. eigenvalues --   -0.41485  -0.36841  -0.36162  -0.35555  -0.35159
  Beta  occ. eigenvalues --   -0.34019  -0.32718  -0.31979  -0.31752  -0.30253
  Beta  occ. eigenvalues --   -0.29212  -0.28097  -0.27584  -0.27342  -0.25373
  Beta  occ. eigenvalues --   -0.25017  -0.24864  -0.23898  -0.23362  -0.22772
  Beta  occ. eigenvalues --   -0.22432  -0.20875  -0.19152  -0.18762  -0.13044
  Beta virt. eigenvalues --    0.06844   0.07868   0.07979   0.08488   0.09715
  Beta virt. eigenvalues --    0.09866   0.10081   0.10193   0.10622   0.11207
  Beta virt. eigenvalues --    0.12354   0.12418   0.12876   0.13119   0.13502

 Mulliken charges and spin densities:
               1          2
     1  C   -0.008853  -0.555134
     2  C   -0.809499   1.630926
     3  C   -0.168464  -0.210800
     4  C    0.410670  -0.898239
     5  C   -0.729883   0.342371
     6  C   -0.369479   0.576957
     7  C    1.180614  -1.230107
     8  C    0.088535  -0.692052
     9  C   -0.072352   0.002649
    10  O   -0.315939   0.056515
    11  C    0.094684  -0.608097
    12  C    0.704333  -0.943781
    13  C    0.597163  -1.277176
    14  H   -0.029351   0.184017
    15  H    0.039747   0.088081
    16  H    0.022320   0.110089
    17  H   -0.273620   0.440526
    18  H    0.066752   0.059651
    19  H   -0.452990   0.642423
    20  H    0.079513   0.050784
    21  H    0.066511   0.051040
    22  H   -0.308219   0.474778
    23  H   -0.060737   0.265795
    24  H    0.114047   0.097541
    25  H    0.166855   0.022248
    26  H    0.044705   0.113763
    27  H    0.169934   0.023391
    28  H   -0.290334   0.445464
    29  H    0.128273  -0.010945
    30  H   -0.373923   0.556098
    31  H   -0.354810   0.529365
    32  H   -0.043791   0.195068
    33  H   -0.312411   0.466792
 Sum of Mulliken charges =  -1.00000   1.00000

 Dipole moment (field-independent basis, Debye):
    X=              0.5495    Y=             -1.3930    Z=             -3.0802  Tot=              3.4249
 Quadrupole moment (field-independent basis, Debye-Ang):
   XX=           -149.8050   YY=           -127.8231   ZZ=           -115.2465
   XY=              3.6888   XZ=              3.2499   YZ=             -4.7680

 Summary of Natural Population Analysis:

                                       Natural Population
                Natural  -----------------------------------------------
    Atom  No    Charge         Core      Valence    Rydberg      Total
 -----------------------------------------------------------------------
      C    1   -0.28259      0.99963     2.27597    0.00699     3.28259
      C    2   -0.04108      0.99955     2.02882    0.01270     3.04108
      C    3   -0.18511      0.99959     2.17505    0.01046     3.18511
      C    4   -0.18863      0.99962     2.18041    0.00860     3.18863
      C    5   -0.18394      0.99961     2.17501    0.00932     3.18394
      C    6   -0.11307      0.99956     2.10270    0.01081     3.11307
      C    7   -0.09759      0.99954     2.08770    0.01034     3.09759
      C    8   -0.23891      0.99957     2.23011    0.00923     3.23891
      C    9    0.31414      0.99965     1.66506    0.02115     2.68586
      O   10   -0.28426      0.99987     3.27781    0.00657     4.28426
      C   11   -0.23480      0.99958     2.22649    0.00873     3.23480
      C   12   -0.18177      0.99961     2.17287    0.00929     3.18177
      C   13   -0.29011      0.99962     2.28284    0.00765     3.29011
      H   14    0.10063      0.00000     0.39853    0.00084     0.39937
      H   15    0.09889      0.00000     0.40026    0.00085     0.40111
      H   16    0.09771      0.00000     0.40156    0.00073     0.40229
      H   17    0.10117      0.00000     0.39755    0.00128     0.39883
      H   18    0.09368      0.00000     0.40515    0.00117     0.40632
      H   19    0.09796      0.00000     0.40103    0.00101     0.40204
      H   20    0.09651      0.00000     0.40182    0.00167     0.40349
      H   21    0.09061      0.00000     0.40812    0.00127     0.40939
      H   22    0.10203      0.00000     0.39675    0.00122     0.39797
      H   23    0.09942      0.00000     0.39760    0.00298     0.40058
      H   24    0.09553      0.00000     0.40291    0.00156     0.40447
      H   25    0.10715      0.00000     0.39143    0.00143     0.39285
      H   26    0.11015      0.00000     0.38831    0.00154     0.38985
      H   27    0.10512      0.00000     0.39393    0.00095     0.39488
      H   28    0.10933      0.00000     0.38857    0.00210     0.39067
      H   29    0.09242      0.00000     0.40635    0.00123     0.40758
      H   30    0.10394      0.00000     0.39455    0.00151     0.39606
      H   31    0.10215      0.00000     0.39654    0.00130     0.39785
      H   32    0.10008      0.00000     0.39896    0.00096     0.39992
      H   33    0.10324      0.00000     0.39539    0.00136     0.39676
 =======================================================================
   * Total *   -0.00000     12.99501    36.84619    0.15880    50.00000

 Normal termination of Gaussian 16 at Mon Dec 14 13:41:25 2020.
