 Gaussian 16, Revision A.03,

 -----------------------------------------------------------
 # opt freq B3LYP/6-31G(d) empiricaldispersion=gd3bj scf=xqc
 -----------------------------------------------------------

 -------------------------------
 CID_147546287_JID_1203_neutraal
 -------------------------------
 Symbolic Z-matrix:
 Charge =  0 Multiplicity = 1

 SCF Done:  E(RB3LYP) =  -427.558655733     A.U. after   13 cycles
 SCF Done:  E(RB3LYP) =  -427.564259742     A.U. after   11 cycles
 SCF Done:  E(RB3LYP) =  -427.564578776     A.U. after   10 cycles
 SCF Done:  E(RB3LYP) =  -427.564611168     A.U. after   10 cycles
 SCF Done:  E(RB3LYP) =  -427.564627921     A.U. after   10 cycles
 SCF Done:  E(RB3LYP) =  -427.564638480     A.U. after   10 cycles
 SCF Done:  E(RB3LYP) =  -427.564649003     A.U. after   10 cycles
 SCF Done:  E(RB3LYP) =  -427.564651798     A.U. after   10 cycles
 SCF Done:  E(RB3LYP) =  -427.564651854     A.U. after    7 cycles
 Optimization completed.
    -- Stationary point found.
 Normal termination of Gaussian 16 at Tue Dec  8 19:20:31 2020.

 --------------------------------------------------------------------
 #N Geom=AllCheck Guess=TCheck SCRF=Check GenChk RB3LYP/6-31G(d) Freq
 --------------------------------------------------------------------

 Structure from the checkpoint file:  "JID_1203.chk"
 -------------------------------
 CID_147546287_JID_1203_neutraal
 -------------------------------
 Charge =  0 Multiplicity = 1

 SCF Done:  E(RB3LYP) =  -427.564651854     A.U. after    1 cycles

  Exact polarizability: 129.267  -9.536  94.345  -8.901   3.504  87.900
 Approx polarizability: 171.016 -21.508 144.255 -20.458  11.001 141.980

                      1                      2                      3
                      A                      A                      A
 Frequencies --     49.5315               141.9030               182.6342
 Red. masses --      2.7185                 2.4935                 3.0136
 Frc consts  --      0.0039                 0.0296                 0.0592
 IR Inten    --      0.0058                 0.1601                 0.0322

                      4                      5                      6
                      A                      A                      A
 Frequencies --    243.9551               287.9970               338.4375
 Red. masses --      2.1920                 2.7217                 2.2326
 Frc consts  --      0.0769                 0.1330                 0.1507
 IR Inten    --      0.0465                 0.0340                 0.5898

                      7                      8                      9
                      A                      A                      A
 Frequencies --    364.2113               457.2252               483.3947
 Red. masses --      2.8480                 2.1077                 3.1247
 Frc consts  --      0.2226                 0.2596                 0.4302
 IR Inten    --      0.1748                 3.8348                 0.8151

                     10                     11                     12
                      A                      A                      A
 Frequencies --    546.1797               564.2616               598.8705
 Red. masses --      2.4690                 3.9596                 2.6464
 Frc consts  --      0.4340                 0.7428                 0.5592
 IR Inten    --      0.4355                 1.7420                 2.8718

                     13                     14                     15
                      A                      A                      A
 Frequencies --    700.8721               724.4409               765.7518
 Red. masses --      1.4515                 2.5923                 4.1840
 Frc consts  --      0.4201                 0.8016                 1.4455
 IR Inten    --     23.2693                 3.2844                 2.0201

                     16                     17                     18
                      A                      A                      A
 Frequencies --    815.7230               833.5769               890.3555
 Red. masses --      2.3822                 2.9273                 2.5033
 Frc consts  --      0.9339                 1.1984                 1.1692
 IR Inten    --      1.2411                 0.2597                 0.1095

                     19                     20                     21
                      A                      A                      A
 Frequencies --    913.3141               932.4961               933.9712
 Red. masses --      2.2261                 1.6839                 1.8408
 Frc consts  --      1.0940                 0.8627                 0.9461
 IR Inten    --      3.2052                18.8174                19.3340

                     22                     23                     24
                      A                      A                      A
 Frequencies --    952.0660               971.1916               974.5004
 Red. masses --      2.3769                 2.2213                 1.4188
 Frc consts  --      1.2694                 1.2344                 0.7938
 IR Inten    --      2.0057                 1.4968                 0.7546

                     25                     26                     27
                      A                      A                      A
 Frequencies --    985.9530               997.1322              1004.0718
 Red. masses --      2.0994                 2.4010                 1.7417
 Frc consts  --      1.2024                 1.4065                 1.0345
 IR Inten    --      0.1084                 2.1850                 0.3722

                     28                     29                     30
                      A                      A                      A
 Frequencies --   1017.7466              1039.1846              1051.6096
 Red. masses --      2.0493                 1.1694                 1.6415
 Frc consts  --      1.2506                 0.7440                 1.0696
 IR Inten    --      0.6211                 6.6825                 2.4472

                     31                     32                     33
                      A                      A                      A
 Frequencies --   1061.7184              1102.6788              1110.1409
 Red. masses --      1.7457                 1.3013                 2.0927
 Frc consts  --      1.1594                 0.9322                 1.5196
 IR Inten    --      2.9828                 0.3248                 1.9057

                     34                     35                     36
                      A                      A                      A
 Frequencies --   1137.4209              1165.1627              1182.1761
 Red. masses --      1.4696                 1.2613                 1.0983
 Frc consts  --      1.1202                 1.0089                 0.9044
 IR Inten    --      2.8918                 2.4736                 0.8543

                     37                     38                     39
                      A                      A                      A
 Frequencies --   1191.4507              1209.4923              1238.4037
 Red. masses --      1.3364                 1.4461                 1.3691
 Frc consts  --      1.1178                 1.2464                 1.2371
 IR Inten    --      1.1158                 0.1823                 2.7525

                     40                     41                     42
                      A                      A                      A
 Frequencies --   1262.6956              1276.5154              1283.8523
 Red. masses --      1.4589                 1.6437                 1.4652
 Frc consts  --      1.3705                 1.5780                 1.4229
 IR Inten    --      0.8854                 0.4137                 0.9443

                     43                     44                     45
                      A                      A                      A
 Frequencies --   1305.9624              1324.4903              1335.0257
 Red. masses --      1.5229                 1.4658                 1.5746
 Frc consts  --      1.5303                 1.5151                 1.6534
 IR Inten    --      4.6201                 4.1295                 0.2148

                     46                     47                     48
                      A                      A                      A
 Frequencies --   1350.5752              1377.3357              1384.6158
 Red. masses --      1.2971                 1.5283                 1.5557
 Frc consts  --      1.3940                 1.7082                 1.7573
 IR Inten    --      0.4174                 1.9396                 4.5080

                     49                     50                     51
                      A                      A                      A
 Frequencies --   1411.4335              1433.9230              1475.1463
 Red. masses --      1.7669                 1.5902                 1.2034
 Frc consts  --      2.0739                 1.9265                 1.5429
 IR Inten    --      0.8200                 0.8025                 2.4186

                     52                     53                     54
                      A                      A                      A
 Frequencies --   1507.2152              1528.5192              1728.0404
 Red. masses --      1.0922                 1.0988                 6.0801
 Frc consts  --      1.4619                 1.5125                10.6971
 IR Inten    --      0.9649                 1.6729                 3.2991

                     55                     56                     57
                      A                      A                      A
 Frequencies --   1732.3361              3009.0909              3012.2528
 Red. masses --      4.4973                 1.0603                 1.0831
 Frc consts  --      7.9518                 5.6566                 5.7902
 IR Inten    --     13.3214                47.7492                22.3820

                     58                     59                     60
                      A                      A                      A
 Frequencies --   3030.8207              3047.1048              3073.1749
 Red. masses --      1.1019                 1.0851                 1.0624
 Frc consts  --      5.9635                 5.9358                 5.9115
 IR Inten    --     27.9486                67.0455                46.0661

                     61                     62                     63
                      A                      A                      A
 Frequencies --   3096.1762              3108.5120              3113.7714
 Red. masses --      1.0857                 1.0876                 1.0917
 Frc consts  --      6.1322                 6.1920                 6.2361
 IR Inten    --     28.9524                62.0709                22.3954

                     64                     65                     66
                      A                      A                      A
 Frequencies --   3119.7889              3128.5922              3169.7019
 Red. masses --      1.1014                 1.0853                 1.0632
 Frc consts  --      6.3158                 6.2586                 6.2939
 IR Inten    --     28.3636                31.3030                 9.2597

                     67                     68                     69
                      A                      A                      A
 Frequencies --   3170.8490              3193.7882              3242.4305
 Red. masses --      1.0847                 1.0997                 1.1152
 Frc consts  --      6.4257                 6.6090                 6.9080
 IR Inten    --     11.1416                48.2187                21.8914

 - Thermochemistry -
 -------------------
 Temperature   298.150 Kelvin.  Pressure   1.00000 Atm.
 Atom     1 has atomic number  6 and mass  12.00000

 Molecular mass:   146.10955 amu.
 Principal axes and moments of inertia in atomic units:
                           1         2         3
     Eigenvalues --   682.574742204.667072371.05172
           X            0.99993  -0.00926  -0.00743
           Y            0.00929   0.99995   0.00425
           Z            0.00739  -0.00431   0.99996
 This molecule is an asymmetric top.
 Rotational symmetry number  1.
 Warning -- assumption of classical behavior for rotation
           may cause significant error
 Rotational temperatures (Kelvin)      0.12689     0.03929     0.03653
 Rotational constants (GHZ):           2.64402     0.81860     0.76116
 Zero-point vibrational energy     582551.1 (Joules/Mol)
                                  139.23306 (Kcal/Mol)
 Warning -- explicit consideration of  12 degrees of freedom as
           vibrations may cause significant error
 Vibrational temperatures:     71.26   204.17   262.77   351.00   414.36
          (Kelvin)            486.94   524.02   657.85   695.50   785.83
                              811.85   861.64  1008.40  1042.31  1101.75
                             1173.64  1199.33  1281.02  1314.06  1341.65
                             1343.78  1369.81  1397.33  1402.09  1418.57
                             1434.65  1444.64  1464.31  1495.15  1513.03
                             1527.58  1586.51  1597.25  1636.50  1676.41
                             1700.89  1714.23  1740.19  1781.79  1816.74
                             1836.62  1847.18  1878.99  1905.65  1920.80
                             1943.18  1981.68  1992.15  2030.74  2063.10
                             2122.41  2168.55  2199.20  2486.26  2492.45
                             4329.41  4333.96  4360.68  4384.10  4421.61
                             4454.71  4472.46  4480.02  4488.68  4501.35
                             4560.49  4562.14  4595.15  4665.13

 Zero-point correction=                           0.221882 (Hartree/Particle)
 Thermal correction to Energy=                    0.230769
 Thermal correction to Enthalpy=                  0.231713
 Thermal correction to Gibbs Free Energy=         0.187844
 Sum of electronic and zero-point Energies=           -427.342770
 Sum of electronic and thermal Energies=              -427.333883
 Sum of electronic and thermal Enthalpies=            -427.332939
 Sum of electronic and thermal Free Energies=         -427.376808

                     E (Thermal)             CV                S
                      KCal/Mol        Cal/Mol-Kelvin    Cal/Mol-Kelvin
 Total                  144.810             36.995             92.330
 Electronic               0.000              0.000              0.000
 Translational            0.889              2.981             40.848
 Rotational               0.889              2.981             29.657
 Vibrational            143.032             31.034             21.824
 Vibration     1          0.595              1.978              4.836
 Vibration     2          0.615              1.911              2.778
 Vibration     3          0.630              1.863              2.301
 Vibration     4          0.659              1.773              1.774
 Vibration     5          0.685              1.696              1.486
 Vibration     6          0.719              1.599              1.220
 Vibration     7          0.738              1.546              1.104
 Vibration     8          0.815              1.345              0.774
 Vibration     9          0.840              1.287              0.701
 Vibration    10          0.901              1.148              0.552
 Vibration    11          0.920              1.109              0.515
 Vibration    12          0.957              1.034              0.452

 Optimization completed.
    -- Stationary point found.
 Normal termination of Gaussian 16 at Tue Dec  8 19:26:14 2020.

 ----------------------------------------------------------------------
 # B3LYP/6-311++G(d,p) empiricaldispersion=gd3bj scf=xqc pop=npa geom=c
 heck
 ----------------------------------------------------------------------

 ---------------------------------------
 CID_147546287_JID_1203_Energie_neutraal
 ---------------------------------------
 Structure from the checkpoint file:  "JID_1203.chk"
 Charge =  0 Multiplicity = 1

 SCF Done:  E(RB3LYP) =  -427.675662570     A.U. after   14 cycles
 Normal termination of Gaussian 16 at Tue Dec  8 19:28:41 2020.

 ----------------------------------------------------------------------
 # B3LYP/6-311++G(d,p) empiricaldispersion=gd3bj scf=xqc pop=npa geom=c
 heck
 ----------------------------------------------------------------------

 -------------------------------------
 CID_147546287_JID_1203_Energie_kation
 -------------------------------------
 Structure from the checkpoint file:  "JID_1203.chk"
 Charge =  1 Multiplicity = 2

 SCF Done:  E(UB3LYP) =  -427.370465238     A.U. after   20 cycles
 Normal termination of Gaussian 16 at Tue Dec  8 19:33:37 2020.
 Gaussian 16:  ES64L-G16RevA.03 25-Dec-2016

 ----------------------------------------------------------------------
 # B3LYP/6-311++G(d,p) empiricaldispersion=gd3bj scf=xqc pop=npa geom=c
 heck
 ----------------------------------------------------------------------

 ------------------------------------
 CID_147546287_JID_1203_Energie_anion
 ------------------------------------
 Structure from the checkpoint file:  "JID_1203.chk"
 Charge = -1 Multiplicity = 2

                         Standard orientation:
 ---------------------------------------------------------------------
 Center     Atomic      Atomic             Coordinates (Angstroms)
 Number     Number       Type             X           Y           Z
 ---------------------------------------------------------------------
      1          6           0       -3.415912    0.745807    0.127824
      2          6           0       -2.521382    0.298166   -0.753753
      3          6           0       -1.364637   -0.632552   -0.514881
      4          6           0       -1.058740   -1.068167    0.957466
      5          6           0        0.392094   -0.580792    1.066990
      6          6           0        1.015266   -1.040545   -0.289506
      7          6           0        0.004603    0.005702   -0.853866
      8          6           0        0.332978    0.845288    0.423050
      9          6           0        1.688784    1.494035    0.344380
     10          6           0        2.726385    0.772149   -0.084767
     11          6           0        2.488294   -0.664285   -0.473361
     12          1           0       -3.406653    0.453591    1.173789
     13          1           0       -4.209523    1.424104   -0.173293
     14          1           0       -2.608622    0.635269   -1.788744
     15          1           0       -1.510586   -1.516680   -1.152996
     16          1           0       -1.150615   -2.150910    1.093999
     17          1           0       -1.706649   -0.582884    1.692396
     18          1           0        0.916241   -0.737078    2.013754
     19          1           0        0.837036   -2.085776   -0.574280
     20          1           0        0.126733    0.437954   -1.851063
     21          1           0       -0.448797    1.521040    0.781771
     22          1           0        1.794795    2.535322    0.638908
     23          1           0        3.729774    1.184598   -0.161975
     24          1           0        2.789339   -0.833354   -1.518506
     25          1           0        3.121127   -1.334024    0.128790
 ---------------------------------------------------------------------

 SCF Done:  E(UB3LYP) =  -427.657240662     A.U. after   33 cycles
 SCF Done:  E(UB3LYP) =  -427.657240662     a.u. after    1 cycles

 The electronic state is 2-A.
 Alpha  occ. eigenvalues --  -10.07663 -10.07578 -10.07260 -10.07132 -10.07031
 Alpha  occ. eigenvalues --  -10.06900 -10.06431 -10.06327 -10.06240 -10.06090
 Alpha  occ. eigenvalues --  -10.05969  -0.80047  -0.70528  -0.66865  -0.62369
 Alpha  occ. eigenvalues --   -0.59921  -0.58922  -0.50490  -0.48875  -0.47065
 Alpha  occ. eigenvalues --   -0.42759  -0.40531  -0.39873  -0.37418  -0.35747
 Alpha  occ. eigenvalues --   -0.33365  -0.32028  -0.31774  -0.29510  -0.27890
 Alpha  occ. eigenvalues --   -0.27830  -0.26476  -0.24561  -0.23003  -0.22245
 Alpha  occ. eigenvalues --   -0.20610  -0.19386  -0.18963  -0.16238  -0.13125
 Alpha  occ. eigenvalues --    0.04748
 Alpha virt. eigenvalues --    0.06834   0.07365   0.07559   0.08787   0.09162
 Alpha virt. eigenvalues --    0.09672   0.09789   0.09965   0.10606   0.11227
 Alpha virt. eigenvalues --    0.11628   0.12514   0.12804   0.13034   0.14997

  Beta  occ. eigenvalues --  -10.07653 -10.07569 -10.07250 -10.07123 -10.07026
  Beta  occ. eigenvalues --  -10.06886 -10.06411 -10.06302 -10.06223 -10.06082
  Beta  occ. eigenvalues --  -10.05958  -0.80028  -0.70496  -0.66835  -0.62333
  Beta  occ. eigenvalues --   -0.59885  -0.58894  -0.50446  -0.48830  -0.47028
  Beta  occ. eigenvalues --   -0.42718  -0.40486  -0.39825  -0.37380  -0.35697
  Beta  occ. eigenvalues --   -0.33331  -0.31998  -0.31739  -0.29483  -0.27863
  Beta  occ. eigenvalues --   -0.27787  -0.26446  -0.24529  -0.22976  -0.22224
  Beta  occ. eigenvalues --   -0.20577  -0.19365  -0.18934  -0.16205  -0.13105
  Beta virt. eigenvalues --    0.06934   0.07707   0.08105   0.08305   0.09389
  Beta virt. eigenvalues --    0.09518   0.10169   0.10410   0.10495   0.10779
  Beta virt. eigenvalues --    0.11814   0.12215   0.12904   0.13230   0.13582

 Mulliken charges and spin densities:
               1          2
     1  C    0.649962  -1.147754
     2  C   -1.479861   1.452401
     3  C    1.372525  -1.421890
     4  C    0.530150  -1.237047
     5  C   -1.014622   1.390881
     6  C   -1.087029   0.785093
     7  C   -0.093610   0.491807
     8  C    0.429409  -0.924390
     9  C   -0.114068  -0.151165
    10  C    0.884080  -0.901613
    11  C    2.614603  -3.438737
    12  H   -0.093405   0.198936
    13  H   -0.232541   0.359660
    14  H   -0.404655   0.563922
    15  H   -0.248214   0.460409
    16  H   -0.244241   0.416443
    17  H   -0.033860   0.118533
    18  H   -0.424055   0.652297
    19  H   -0.548576   0.755717
    20  H   -0.183729   0.450226
    21  H    0.374475  -0.140900
    22  H   -0.453802   0.588277
    23  H   -0.544153   0.712360
    24  H   -0.345857   0.497262
    25  H   -0.308927   0.469273
 Sum of Mulliken charges =  -1.00000   1.00000

 Dipole moment (field-independent basis, Debye):
    X=             -2.3385    Y=              1.7395    Z=              1.7794  Tot=              3.4147
 Quadrupole moment (field-independent basis, Debye-Ang):
   XX=           -134.8765   YY=           -110.7916   ZZ=           -103.3129
   XY=              1.2345   XZ=             -1.7622   YZ=              0.0030

 Summary of Natural Population Analysis:

                                       Natural Population
                Natural  -----------------------------------------------
    Atom  No    Charge         Core      Valence    Rydberg      Total
 -----------------------------------------------------------------------
      C    1   -0.19719      0.99955     2.19154    0.00610     3.19719
      C    2   -0.07464      0.99955     2.06282    0.01226     3.07464
      C    3   -0.13099      0.99957     2.11855    0.01287     3.13099
      C    4   -0.18690      0.99962     2.17778    0.00950     3.18690
      C    5   -0.09379      0.99958     2.08145    0.01276     3.09379
      C    6   -0.10111      0.99959     2.08835    0.01317     3.10111
      C    7   -0.08727      0.99956     2.07481    0.01290     3.08727
      C    8   -0.12623      0.99958     2.11382    0.01283     3.12623
      C    9   -0.09701      0.99952     2.08612    0.01137     3.09701
      C   10   -0.08647      0.99952     2.07680    0.01015     3.08647
      C   11   -0.20750      0.99960     2.19774    0.01016     3.20750
      H   12    0.08958      0.00000     0.40913    0.00129     0.41042
      H   13    0.09357      0.00000     0.40527    0.00115     0.40643
      H   14    0.09428      0.00000     0.40439    0.00132     0.40572
      H   15    0.10758      0.00000     0.39047    0.00195     0.39242
      H   16    0.10208      0.00000     0.39653    0.00139     0.39792
      H   17    0.09656      0.00000     0.40203    0.00142     0.40344
      H   18    0.09894      0.00000     0.39997    0.00109     0.40106
      H   19    0.09821      0.00000     0.39880    0.00299     0.40179
      H   20    0.10108      0.00000     0.39759    0.00133     0.39892
      H   21    0.10132      0.00000     0.39700    0.00169     0.39868
      H   22    0.09828      0.00000     0.40073    0.00099     0.40172
      H   23    0.09770      0.00000     0.40087    0.00143     0.40230
      H   24    0.10495      0.00000     0.39329    0.00176     0.39505
      H   25    0.10497      0.00000     0.39313    0.00190     0.39503
 =======================================================================
   * Total *   -0.00000     10.99525    28.85898    0.14577    40.00000

 Normal termination of Gaussian 16 at Tue Dec  8 19:41:41 2020.
