 Gaussian 16, Revision A.03,

 -----------------------------------------------------------
 # opt freq B3LYP/6-31G(d) empiricaldispersion=gd3bj scf=xqc
 -----------------------------------------------------------

 -----------------------------
 CID_8963865_JID_8007_neutraal
 -----------------------------
 Symbolic Z-matrix:
 Charge =  0 Multiplicity = 1

 SCF Done:  E(RB3LYP) =  -841.476216835     A.U. after   15 cycles
 SCF Done:  E(RB3LYP) =  -841.481266802     A.U. after   13 cycles
 SCF Done:  E(RB3LYP) =  -841.478928647     A.U. after   14 cycles
 SCF Done:  E(RB3LYP) =  -841.481894761     A.U. after   12 cycles
 SCF Done:  E(RB3LYP) =  -841.482491578     A.U. after   12 cycles
 SCF Done:  E(RB3LYP) =  -841.482491244     A.U. after   12 cycles
 SCF Done:  E(RB3LYP) =  -841.482775423     A.U. after   12 cycles
 SCF Done:  E(RB3LYP) =  -841.482877239     A.U. after   11 cycles
 SCF Done:  E(RB3LYP) =  -841.482932911     A.U. after   12 cycles
 SCF Done:  E(RB3LYP) =  -841.482965850     A.U. after   10 cycles
 SCF Done:  E(RB3LYP) =  -841.483012557     A.U. after    9 cycles
 SCF Done:  E(RB3LYP) =  -841.483014292     A.U. after    8 cycles
 SCF Done:  E(RB3LYP) =  -841.483014822     A.U. after    8 cycles
 SCF Done:  E(RB3LYP) =  -841.483014906     A.U. after    7 cycles
 Optimization completed.
    -- Stationary point found.
 Normal termination of Gaussian 16 at Fri Dec 11 18:41:41 2020.

 --------------------------------------------------------------------
 #N Geom=AllCheck Guess=TCheck SCRF=Check GenChk RB3LYP/6-31G(d) Freq
 --------------------------------------------------------------------

 Structure from the checkpoint file:  "JID_8007.chk"
 -----------------------------
 CID_8963865_JID_8007_neutraal
 -----------------------------
 Charge =  0 Multiplicity = 1

 SCF Done:  E(RB3LYP) =  -841.483014906     A.U. after    1 cycles

  Exact polarizability: 197.961   4.603 158.390 -23.392   4.388 111.861
 Approx polarizability: 260.510   8.480 258.095 -41.410   6.738 171.950

                      1                      2                      3
                      A                      A                      A
 Frequencies --     23.3079                29.6736                50.5238
 Red. masses --      6.0917                 5.1968                 4.9487
 Frc consts  --      0.0019                 0.0027                 0.0074
 IR Inten    --      0.4193                 0.5725                 0.2102

                      4                      5                      6
                      A                      A                      A
 Frequencies --     58.4612                68.6161                95.1480
 Red. masses --      4.2189                 4.2342                 4.1434
 Frc consts  --      0.0085                 0.0117                 0.0221
 IR Inten    --      0.6438                 0.0583                 0.2330

                      7                      8                      9
                      A                      A                      A
 Frequencies --    122.7764               137.8921               148.7287
 Red. masses --      2.7143                 1.3464                 4.3325
 Frc consts  --      0.0241                 0.0151                 0.0565
 IR Inten    --      0.4963                 0.5721                 1.2571

                     10                     11                     12
                      A                      A                      A
 Frequencies --    168.7386               188.6943               196.3191
 Red. masses --      4.2056                 3.8667                 3.6288
 Frc consts  --      0.0706                 0.0811                 0.0824
 IR Inten    --      3.1466                 4.0807                 0.7400

                     13                     14                     15
                      A                      A                      A
 Frequencies --    203.7433               249.7383               258.6721
 Red. masses --      1.0633                 3.7292                 1.1518
 Frc consts  --      0.0260                 0.1370                 0.0454
 IR Inten    --      0.6235                 1.5698                 1.6587

                     16                     17                     18
                      A                      A                      A
 Frequencies --    295.4965               323.1582               349.1557
 Red. masses --      2.6624                 3.6135                 3.1326
 Frc consts  --      0.1370                 0.2223                 0.2250
 IR Inten    --      1.9746                13.0676                10.8658

                     19                     20                     21
                      A                      A                      A
 Frequencies --    359.2532               390.0509               424.6626
 Red. masses --      4.0997                 2.8618                 2.8318
 Frc consts  --      0.3117                 0.2565                 0.3009
 IR Inten    --      8.7045                 5.5425                14.6869

                     22                     23                     24
                      A                      A                      A
 Frequencies --    442.7595               462.7037               483.6877
 Red. masses --      3.9621                 3.3315                 2.6946
 Frc consts  --      0.4576                 0.4202                 0.3714
 IR Inten    --     19.5540                 7.2268                 0.4356

                     25                     26                     27
                      A                      A                      A
 Frequencies --    517.9794               550.1273               559.9106
 Red. masses --      3.8494                 4.3745                 3.3572
 Frc consts  --      0.6085                 0.7800                 0.6201
 IR Inten    --      0.9638                 2.9211                30.2580

                     28                     29                     30
                      A                      A                      A
 Frequencies --    628.5296               686.2816               728.3312
 Red. masses --      5.4454                 2.8759                 3.5187
 Frc consts  --      1.2675                 0.7980                 1.0997
 IR Inten    --      2.1206                10.1650                 2.0704

                     31                     32                     33
                      A                      A                      A
 Frequencies --    735.2173               762.7566               767.4494
 Red. masses --      2.1728                 1.3944                 4.6469
 Frc consts  --      0.6920                 0.4780                 1.6125
 IR Inten    --     19.0189                34.5735                26.6255

                     34                     35                     36
                      A                      A                      A
 Frequencies --    778.3928               795.9059               838.5149
 Red. masses --      2.9144                 3.6843                 4.7438
 Frc consts  --      1.0404                 1.3751                 1.9652
 IR Inten    --     68.8096                 5.8568                 9.8744

                     37                     38                     39
                      A                      A                      A
 Frequencies --    850.2673               869.1422               885.6782
 Red. masses --      4.2463                 4.0920                 1.3504
 Frc consts  --      1.8087                 1.8213                 0.6241
 IR Inten    --      0.5262                 1.3665                 2.0136

                     40                     41                     42
                      A                      A                      A
 Frequencies --    937.8915               950.1081               984.3426
 Red. masses --      3.8041                 1.3450                 1.2544
 Frc consts  --      1.9715                 0.7154                 0.7161
 IR Inten    --      6.2266                 3.4002                 1.0511

                     43                     44                     45
                      A                      A                      A
 Frequencies --    994.2305              1017.0490              1027.2472
 Red. masses --      1.8751                 2.2369                 1.5931
 Frc consts  --      1.0921                 1.3633                 0.9905
 IR Inten    --      0.5808                 9.4440                 1.3760

                     46                     47                     48
                      A                      A                      A
 Frequencies --   1058.2646              1082.9987              1083.8206
 Red. masses --      2.1083                 1.5396                 2.0481
 Frc consts  --      1.3911                 1.0639                 1.4174
 IR Inten    --     46.3586                 9.3529                 4.9722

                     49                     50                     51
                      A                      A                      A
 Frequencies --   1105.0280              1137.9625              1159.8165
 Red. masses --      6.9063                 1.9609                 1.8791
 Frc consts  --      4.9687                 1.4961                 1.4893
 IR Inten    --    133.1447                20.4338                62.4776

                     52                     53                     54
                      A                      A                      A
 Frequencies --   1173.4841              1188.7943              1195.5472
 Red. masses --      1.4276                 1.2632                 1.0967
 Frc consts  --      1.1583                 1.0518                 0.9236
 IR Inten    --     15.1566                 1.0452                 0.9937

                     55                     56                     57
                      A                      A                      A
 Frequencies --   1212.8705              1220.7445              1228.0152
 Red. masses --      2.0338                 1.6670                 1.5894
 Frc consts  --      1.7627                 1.4637                 1.4122
 IR Inten    --     18.4782                71.8445                24.0179

                     58                     59                     60
                      A                      A                      A
 Frequencies --   1252.2901              1292.7610              1304.5220
 Red. masses --      2.8357                 2.7214                 1.7043
 Frc consts  --      2.6201                 2.6797                 1.7088
 IR Inten    --      3.3051               186.0931                98.3381

                     61                     62                     63
                      A                      A                      A
 Frequencies --   1333.7109              1356.7493              1370.4038
 Red. masses --      1.6837                 2.7992                 3.6354
 Frc consts  --      1.7646                 3.0359                 4.0225
 IR Inten    --      3.8863                21.7991               329.4292

                     64                     65                     66
                      A                      A                      A
 Frequencies --   1379.7911              1401.7281              1424.6889
 Red. masses --      1.5962                 1.4614                 1.4891
 Frc consts  --      1.7905                 1.6918                 1.7807
 IR Inten    --     71.6149                60.2188                43.7683

                     67                     68                     69
                      A                      A                      A
 Frequencies --   1447.4230              1457.7767              1482.9052
 Red. masses --      1.2312                 1.6861                 1.1635
 Frc consts  --      1.5197                 2.1112                 1.5074
 IR Inten    --      7.5695                26.7186                 0.5878

                     70                     71                     72
                      A                      A                      A
 Frequencies --   1494.4666              1495.9299              1509.8783
 Red. masses --      1.9608                 1.2051                 1.1440
 Frc consts  --      2.5803                 1.5889                 1.5366
 IR Inten    --      1.5498                32.9153                42.1846

                     73                     74                     75
                      A                      A                      A
 Frequencies --   1512.3395              1516.9861              1520.1374
 Red. masses --      1.0483                 1.0679                 1.0689
 Frc consts  --      1.4127                 1.4479                 1.4553
 IR Inten    --      5.4985                 7.1616                 7.8180

                     76                     77                     78
                      A                      A                      A
 Frequencies --   1526.9909              1531.3799              1539.8605
 Red. masses --      1.0612                 1.1194                 1.6029
 Frc consts  --      1.4578                 1.5467                 2.2394
 IR Inten    --      9.7491                 3.9309                 9.0958

                     79                     80                     81
                      A                      A                      A
 Frequencies --   1546.6175              1551.1184              1641.4890
 Red. masses --      1.3374                 1.1041                 5.8739
 Frc consts  --      1.8849                 1.5651                 9.3251
 IR Inten    --     11.4520                 7.8796                 0.2415

                     82                     83                     84
                      A                      A                      A
 Frequencies --   1667.4538              1779.2466              1832.9025
 Red. masses --      5.6845                 8.1706                 9.1395
 Frc consts  --      9.3122                15.2397                18.0904
 IR Inten    --      1.3855               251.6503               491.5867

                     85                     86                     87
                      A                      A                      A
 Frequencies --   2958.7776              3028.1370              3046.0458
 Red. masses --      1.0608                 1.0577                 1.0446
 Frc consts  --      5.4717                 5.7146                 5.7106
 IR Inten    --     73.7470                29.2404                28.9978

                     88                     89                     90
                      A                      A                      A
 Frequencies --   3058.3504              3085.5063              3085.9640
 Red. masses --      1.0990                 1.0383                 1.0626
 Frc consts  --      6.0567                 5.8241                 5.9624
 IR Inten    --     29.7117                18.2402                47.6405

                     91                     92                     93
                      A                      A                      A
 Frequencies --   3107.9575              3113.2452              3135.5001
 Red. masses --      1.0958                 1.0654                 1.1024
 Frc consts  --      6.2365                 6.0843                 6.3859
 IR Inten    --     19.8611                 5.9685                 6.8954

                     94                     95                     96
                      A                      A                      A
 Frequencies --   3138.3081              3165.8244              3175.0372
 Red. masses --      1.1021                 1.1084                 1.0856
 Frc consts  --      6.3954                 6.5452                 6.4479
 IR Inten    --     24.3278                15.0763                 5.4440

                     97                     98                     99
                      A                      A                      A
 Frequencies --   3185.5828              3192.4006              3194.1268
 Red. masses --      1.0885                 1.1072                 1.1001
 Frc consts  --      6.5080                 6.6483                 6.6126
 IR Inten    --     15.0212                13.1167                 1.9729

                    100                    101                    102
                      A                      A                      A
 Frequencies --   3198.2245              3208.2031              3581.8217
 Red. masses --      1.0923                 1.0967                 1.0759
 Frc consts  --      6.5829                 6.6507                 8.1326
 IR Inten    --     32.2884                23.6300                48.1649

 - Thermochemistry -
 -------------------
 Temperature   298.150 Kelvin.  Pressure   1.00000 Atm.
 Atom     1 has atomic number  6 and mass  12.00000

 Molecular mass:   250.13174 amu.
 Principal axes and moments of inertia in atomic units:
                           1         2         3
     Eigenvalues --  2005.831478784.315509585.59710
           X            0.99985   0.01706  -0.00327
           Y           -0.01699   0.99967   0.01906
           Z            0.00360  -0.01901   0.99981
 This molecule is an asymmetric top.
 Rotational symmetry number  1.
 Warning -- assumption of classical behavior for rotation
           may cause significant error
 Rotational temperatures (Kelvin)      0.04318     0.00986     0.00904
 Rotational constants (GHZ):           0.89975     0.20545     0.18828
 Zero-point vibrational energy     795966.6 (Joules/Mol)
                                  190.24058 (Kcal/Mol)
 Warning -- explicit consideration of  27 degrees of freedom as
           vibrations may cause significant error
 Vibrational temperatures:     33.53    42.69    72.69    84.11    98.72
          (Kelvin)            136.90   176.65   198.40   213.99   242.78
                              271.49   282.46   293.14   359.32   372.17
                              425.15   464.95   502.36   516.89   561.20
                              610.99   637.03   665.73   695.92   745.26
                              791.51   805.59   904.31   987.41  1047.91
                             1057.81  1097.44  1104.19  1119.93  1145.13
                             1206.44  1223.35  1250.50  1274.29  1349.42
                             1366.99  1416.25  1430.48  1463.31  1477.98
                             1522.61  1558.19  1559.38  1589.89  1637.27
                             1668.72  1688.38  1710.41  1720.13  1745.05
                             1756.38  1766.84  1801.77  1859.99  1876.92
                             1918.91  1952.06  1971.71  1985.21  2016.77
                             2049.81  2082.52  2097.42  2133.57  2150.20
                             2152.31  2172.38  2175.92  2182.60  2187.14
                             2197.00  2203.31  2215.52  2225.24  2231.71
                             2361.74  2399.09  2559.94  2637.14  4257.02
                             4356.81  4382.58  4400.28  4439.36  4440.01
                             4471.66  4479.27  4511.29  4515.33  4554.92
                             4568.17  4583.34  4593.15  4595.64  4601.53
                             4615.89  5153.44

 Zero-point correction=                           0.303168 (Hartree/Particle)
 Thermal correction to Energy=                    0.321418
 Thermal correction to Enthalpy=                  0.322362
 Thermal correction to Gibbs Free Energy=         0.255173
 Sum of electronic and zero-point Energies=           -841.179847
 Sum of electronic and thermal Energies=              -841.161597
 Sum of electronic and thermal Enthalpies=            -841.160653
 Sum of electronic and thermal Free Energies=         -841.227841

                     E (Thermal)             CV                S
                      KCal/Mol        Cal/Mol-Kelvin    Cal/Mol-Kelvin
 Total                  201.693             67.222            141.411
 Electronic               0.000              0.000              0.000
 Translational            0.889              2.981             42.451
 Rotational               0.889              2.981             33.490
 Vibrational            199.915             61.260             65.470
 Vibration     1          0.593              1.985              6.330
 Vibration     2          0.593              1.984              5.851
 Vibration     3          0.595              1.977              4.797
 Vibration     4          0.596              1.974              4.508
 Vibration     5          0.598              1.969              4.193
 Vibration     6          0.603              1.953              3.551
 Vibration     7          0.610              1.930              3.056
 Vibration     8          0.614              1.915              2.833
 Vibration     9          0.618              1.904              2.688
 Vibration    10          0.625              1.881              2.449
 Vibration    11          0.633              1.855              2.241
 Vibration    12          0.636              1.845              2.167
 Vibration    13          0.639              1.835              2.099
 Vibration    14          0.663              1.763              1.732
 Vibration    15          0.667              1.748              1.671
 Vibration    16          0.690              1.682              1.442
 Vibration    17          0.708              1.629              1.294
 Vibration    18          0.726              1.577              1.170
 Vibration    19          0.734              1.556              1.125
 Vibration    20          0.758              1.491              1.000
 Vibration    21          0.787              1.417              0.876
 Vibration    22          0.802              1.377              0.818
 Vibration    23          0.820              1.333              0.758
 Vibration    24          0.840              1.286              0.700
 Vibration    25          0.873              1.210              0.615
 Vibration    26          0.905              1.139              0.544
 Vibration    27          0.916              1.118              0.524

 Optimization completed.
    -- Stationary point found.
 Normal termination of Gaussian 16 at Fri Dec 11 18:57:27 2020.

 ----------------------------------------------------------------------
 # B3LYP/6-311++G(d,p) empiricaldispersion=gd3bj scf=xqc pop=npa geom=c
 heck
 ----------------------------------------------------------------------

 -------------------------------------
 CID_8963865_JID_8007_Energie_neutraal
 -------------------------------------
 Structure from the checkpoint file:  "JID_8007.chk"
 Charge =  0 Multiplicity = 1

 SCF Done:  E(RB3LYP) =  -841.722561725     A.U. after   15 cycles
 Normal termination of Gaussian 16 at Fri Dec 11 19:03:29 2020.

 ----------------------------------------------------------------------
 # B3LYP/6-311++G(d,p) empiricaldispersion=gd3bj scf=xqc pop=npa geom=c
 heck
 ----------------------------------------------------------------------

 -----------------------------------
 CID_8963865_JID_8007_Energie_kation
 -----------------------------------
 Structure from the checkpoint file:  "JID_8007.chk"
 Charge =  1 Multiplicity = 2

 SCF Done:  E(UB3LYP) =  -841.431821079     A.U. after   33 cycles
 SCF Done:  E(UB3LYP) =  -841.432437808     a.u. after   12 cycles
 Normal termination of Gaussian 16 at Fri Dec 11 22:12:19 2020.
 Gaussian 16:  ES64L-G16RevA.03 25-Dec-2016

 ----------------------------------------------------------------------
 # B3LYP/6-311++G(d,p) empiricaldispersion=gd3bj scf=xqc pop=npa geom=c
 heck
 ----------------------------------------------------------------------

 ----------------------------------
 CID_8963865_JID_8007_Energie_anion
 ----------------------------------
 Structure from the checkpoint file:  "JID_8007.chk"
 Charge = -1 Multiplicity = 2

                         Standard orientation:
 ---------------------------------------------------------------------
 Center     Atomic      Atomic             Coordinates (Angstroms)
 Number     Number       Type             X           Y           Z
 ---------------------------------------------------------------------
      1          6           0        2.887834    2.223179    0.379039
      2          6           0        3.159975    0.777628    0.034110
      3          6           0        4.260962    0.453388   -0.770248
      4          6           0        4.547232   -0.863384   -1.123619
      5          6           0        3.724135   -1.893486   -0.668916
      6          6           0        2.628402   -1.588369    0.134167
      7          6           0        2.334180   -0.266770    0.491943
      8          6           0        1.136602   -0.014958    1.387622
      9          7           0       -0.047570   -0.758774    0.941197
     10          6           0       -1.090677   -0.807194    1.956456
     11          6           0       -0.533766   -0.377628   -0.386586
     12          6           0       -1.133539    1.027220   -0.404119
     13          8           0       -0.429421    2.025487   -0.387079
     14          7           0       -2.520851    1.232640   -0.331163
     15          6           0       -3.661043    0.437642   -0.377408
     16          8           0       -4.773475    0.912737   -0.293629
     17          8           0       -3.400141   -0.874310   -0.521768
     18          6           0       -4.568970   -1.713226   -0.568890
     19          1           0        3.615071    2.877964   -0.110690
     20          1           0        1.884569    2.521239    0.058282
     21          1           0        2.955988    2.405544    1.458826
     22          1           0        4.900510    1.256476   -1.128460
     23          1           0        5.406947   -1.082303   -1.751196
     24          1           0        3.934188   -2.925567   -0.936116
     25          1           0        1.967526   -2.375300    0.485876
     26          1           0        1.361864   -0.382221    2.398150
     27          1           0        0.935351    1.060409    1.482937
     28          1           0       -1.480441    0.185127    2.249813
     29          1           0       -1.928711   -1.405232    1.588020
     30          1           0       -0.690722   -1.286323    2.856201
     31          1           0        0.322111   -0.353716   -1.065076
     32          1           0       -1.245090   -1.125268   -0.729431
     33          1           0       -2.754536    2.217949   -0.263450
     34          1           0       -5.146787   -1.611948    0.352238
     35          1           0       -5.196593   -1.441904   -1.420400
     36          1           0       -4.185963   -2.727548   -0.677241
 ---------------------------------------------------------------------

 SCF Done:  E(UB3LYP) =  -841.713759792     A.U. after   33 cycles
 SCF Done:  E(UB3LYP) =  -841.713759792     a.u. after    1 cycles

 The electronic state is 2-A.
 Alpha  occ. eigenvalues --  -19.07502 -19.00495 -18.99024 -14.25627 -14.21173
 Alpha  occ. eigenvalues --  -10.22634 -10.16404 -10.12756 -10.09801 -10.09325
 Alpha  occ. eigenvalues --  -10.09003 -10.08746 -10.08344 -10.08126 -10.07947
 Alpha  occ. eigenvalues --  -10.07885 -10.07394 -10.07042  -1.02254  -0.94510
 Alpha  occ. eigenvalues --   -0.92818  -0.82877  -0.82342  -0.76536  -0.68271
 Alpha  occ. eigenvalues --   -0.66818  -0.63763  -0.63113  -0.60608  -0.58477
 Alpha  occ. eigenvalues --   -0.54719  -0.52162  -0.49944  -0.48779  -0.47279
 Alpha  occ. eigenvalues --   -0.43274  -0.41325  -0.40307  -0.39750  -0.39153
 Alpha  occ. eigenvalues --   -0.37542  -0.36778  -0.36036  -0.35122  -0.34553
 Alpha  occ. eigenvalues --   -0.33665  -0.32796  -0.32431  -0.31919  -0.30727
 Alpha  occ. eigenvalues --   -0.29961  -0.29465  -0.29370  -0.28866  -0.28335
 Alpha  occ. eigenvalues --   -0.26751  -0.25828  -0.25403  -0.24624  -0.23927
 Alpha  occ. eigenvalues --   -0.21731  -0.20350  -0.18434  -0.17195  -0.15682
 Alpha  occ. eigenvalues --   -0.15043  -0.11511   0.04369
 Alpha virt. eigenvalues --    0.05990   0.06287   0.07014   0.07323   0.07779
 Alpha virt. eigenvalues --    0.08272   0.08686   0.08912   0.09566   0.09808
 Alpha virt. eigenvalues --    0.10167   0.11300   0.11559   0.11785   0.12112

  Beta  occ. eigenvalues --  -19.07483 -19.00399 -18.98819 -14.25676 -14.21141
  Beta  occ. eigenvalues --  -10.22515 -10.16148 -10.12706 -10.09798 -10.09342
  Beta  occ. eigenvalues --  -10.09000 -10.08720 -10.08339 -10.08108 -10.07942
  Beta  occ. eigenvalues --  -10.07880 -10.07378 -10.07041  -1.02139  -0.94149
  Beta  occ. eigenvalues --   -0.92671  -0.82805  -0.82275  -0.76514  -0.68248
  Beta  occ. eigenvalues --   -0.66789  -0.63638  -0.62980  -0.60581  -0.58451
  Beta  occ. eigenvalues --   -0.54439  -0.52078  -0.49883  -0.48715  -0.47221
  Beta  occ. eigenvalues --   -0.43215  -0.41282  -0.40043  -0.39617  -0.39047
  Beta  occ. eigenvalues --   -0.37450  -0.36694  -0.35909  -0.34998  -0.34440
  Beta  occ. eigenvalues --   -0.33596  -0.32604  -0.32318  -0.31862  -0.30642
  Beta  occ. eigenvalues --   -0.29924  -0.29362  -0.28947  -0.28756  -0.28304
  Beta  occ. eigenvalues --   -0.26448  -0.25738  -0.25329  -0.24605  -0.23902
  Beta  occ. eigenvalues --   -0.21492  -0.20252  -0.17996  -0.17047  -0.15627
  Beta  occ. eigenvalues --   -0.15003  -0.11423
  Beta virt. eigenvalues --    0.06165   0.06925   0.07257   0.07387   0.07968
  Beta virt. eigenvalues --    0.08255   0.08606   0.08980   0.09167   0.09717
  Beta virt. eigenvalues --    0.10078   0.10821   0.11383   0.11586   0.11868

 Mulliken charges and spin densities:
               1          2
     1  C   -0.553163  -0.193357
     2  C    0.017286   0.572928
     3  C   -0.722663   0.301601
     4  C    0.384940  -0.740642
     5  C   -0.254571  -0.132086
     6  C    0.099615  -0.337953
     7  C   -0.041699   0.677805
     8  C    0.297206  -0.982244
     9  N    0.115129   0.127402
    10  C    0.211955  -0.497243
    11  C   -0.280868  -0.266899
    12  C    0.110453   0.003311
    13  O   -0.360385   0.071578
    14  N   -0.344378  -0.005684
    15  C    0.142979   0.101761
    16  O   -0.339974   0.047636
    17  O   -0.248733   0.092572
    18  C    1.021396  -1.295466
    19  H    0.091479   0.036272
    20  H    0.240481  -0.004932
    21  H    0.122735   0.029809
    22  H   -0.006150   0.130247
    23  H   -0.094514   0.241658
    24  H   -0.261780   0.430049
    25  H   -0.147786   0.341885
    26  H    0.045348   0.097936
    27  H    0.269408  -0.098810
    28  H    0.087722   0.038886
    29  H   -0.086635   0.254463
    30  H   -0.225959   0.371435
    31  H    0.157022   0.004452
    32  H    0.271899   0.029556
    33  H    0.299830   0.029522
    34  H   -0.248129   0.427428
    35  H   -0.171579   0.347547
    36  H   -0.597917   0.747578
 Sum of Mulliken charges =  -1.00000   1.00000

 Dipole moment (field-independent basis, Debye):
    X=              4.7671    Y=              4.5810    Z=              1.0291  Tot=              6.6910
 Quadrupole moment (field-independent basis, Debye-Ang):
   XX=           -201.9472   YY=           -153.9118   ZZ=           -130.9414
   XY=             -4.5337   XZ=              0.4375   YZ=              1.5712

 Summary of Natural Population Analysis:

                                       Natural Population
                Natural  -----------------------------------------------
    Atom  No    Charge         Core      Valence    Rydberg      Total
 -----------------------------------------------------------------------
      C    1   -0.30231      0.99963     2.29768    0.00501     3.30231
      C    2   -0.01173      0.99947     2.00274    0.00952     3.01173
      C    3   -0.10377      0.99952     2.09523    0.00903     3.10377
      C    4   -0.10158      0.99956     2.09229    0.00973     3.10158
      C    5   -0.10701      0.99956     2.09746    0.00999     3.10701
      C    6   -0.09156      0.99951     2.08230    0.00975     3.09156
      C    7   -0.02128      0.99946     2.01161    0.01021     3.02128
      C    8   -0.09494      0.99957     2.08391    0.01146     3.09494
      N    9   -0.26833      0.99974     2.75472    0.01387     3.76833
      C   10   -0.17855      0.99963     2.17000    0.00892     3.17855
      C   11   -0.13258      0.99956     2.12158    0.01144     3.13258
      C   12    0.37450      0.99969     1.60385    0.02196     2.62550
      O   13   -0.30117      0.99987     3.29523    0.00607     4.30117
      N   14   -0.33890      0.99964     2.83131    0.00795     3.83890
      C   15    0.47866      0.99971     1.49674    0.02489     2.52134
      O   16   -0.31609      0.99987     3.31086    0.00536     4.31609
      O   17   -0.28373      0.99986     3.27484    0.00903     4.28373
      C   18   -0.09954      0.99959     2.09114    0.00881     3.09954
      H   19    0.09692      0.00000     0.40226    0.00082     0.40308
      H   20    0.12516      0.00000     0.37368    0.00117     0.37484
      H   21    0.09961      0.00000     0.39944    0.00095     0.40039
      H   22    0.09595      0.00000     0.40310    0.00095     0.40405
      H   23    0.09816      0.00000     0.40098    0.00086     0.40184
      H   24    0.09995      0.00000     0.39915    0.00090     0.40005
      H   25    0.10827      0.00000     0.38967    0.00206     0.39173
      H   26    0.09857      0.00000     0.40037    0.00107     0.40143
      H   27    0.09705      0.00000     0.40145    0.00150     0.40295
      H   28    0.07962      0.00000     0.41909    0.00130     0.42038
      H   29    0.10248      0.00000     0.39571    0.00180     0.39752
      H   30    0.09319      0.00000     0.40574    0.00106     0.40681
      H   31    0.11048      0.00000     0.38831    0.00121     0.38952
      H   32    0.11287      0.00000     0.38523    0.00190     0.38713
      H   33    0.20188      0.00000     0.29559    0.00253     0.29812
      H   34    0.09175      0.00000     0.40706    0.00119     0.40825
      H   35    0.09205      0.00000     0.40668    0.00127     0.40795
      H   36    0.09595      0.00000     0.40157    0.00247     0.40405
 =======================================================================
   * Total *   -0.00000     17.99346    48.78854    0.21800    67.00000

 Normal termination of Gaussian 16 at Fri Dec 11 22:30:55 2020.
