 Gaussian 16, Revision A.03,

 -----------------------------------------------------------
 # opt freq B3LYP/6-31G(d) empiricaldispersion=gd3bj scf=xqc
 -----------------------------------------------------------

 -----------------------------
 CID_17781163_JID_854_neutraal
 -----------------------------
 Symbolic Z-matrix:
 Charge =  0 Multiplicity = 1

 SCF Done:  E(RB3LYP) =  -1109.65707807     A.U. after   13 cycles
 SCF Done:  E(RB3LYP) =  -1109.67687899     A.U. after   12 cycles
 SCF Done:  E(RB3LYP) =  -1109.68023508     A.U. after   11 cycles
 SCF Done:  E(RB3LYP) =  -1109.68076955     A.U. after   11 cycles
 SCF Done:  E(RB3LYP) =  -1109.68085986     A.U. after   10 cycles
 SCF Done:  E(RB3LYP) =  -1109.68088504     A.U. after   10 cycles
 SCF Done:  E(RB3LYP) =  -1109.68089121     A.U. after    9 cycles
 SCF Done:  E(RB3LYP) =  -1109.68089434     A.U. after    8 cycles
 SCF Done:  E(RB3LYP) =  -1109.68089444     A.U. after    7 cycles
 Optimization completed.
    -- Stationary point found.

 1\1\GINC-NODE102\FOpt\RB3LYP\6-31G(d)\C8H14S2\VSC10255\08-Dec-2020\0\\
 # opt freq B3LYP/6-31G(d) empiricaldispersion=gd3bj scf=xqc\\CID_17781
 163_JID_854_neutraal\\0,1\C,0.8111996578,-0.0738368767,0.1193023447\C,
 0.4780330007,0.0511837021,-1.3483520423\C,1.5409634426,0.2594711895,-2
 .3583811584\S,0.757376941,-1.4101424426,-2.4481278771\C,1.33303622,1.2
 228682293,-3.5079247688\C,1.5423621828,2.6955992799,-3.0984331593\C,2.
 9541208547,2.9788855435,-2.6299121696\C,4.0479049651,3.174237696,-3.60
 91147656\S,3.5793265747,4.7150020194,-2.6983529125\C,5.418130417,2.584

 Normal termination of Gaussian 16 at Tue Dec  8 13:08:59 2020.

 --------------------------------------------------------------------
 #N Geom=AllCheck Guess=TCheck SCRF=Check GenChk RB3LYP/6-31G(d) Freq
 --------------------------------------------------------------------

 Structure from the checkpoint file:  "JID_854.chk"
 -----------------------------
 CID_17781163_JID_854_neutraal
 -----------------------------
 Charge =  0 Multiplicity = 1

 SCF Done:  E(RB3LYP) =  -1109.68089444     A.U. after    1 cycles

  Exact polarizability: 138.897  10.548 112.649  -0.000  -0.000  90.830
 Approx polarizability: 190.324  28.979 183.300  -0.000  -0.000 132.255

                      1                      2                      3
                      A                      A                      A
 Frequencies --     27.4809                39.2510                76.0286
 Red. masses --      3.4487                 4.9853                 5.1207
 Frc consts  --      0.0015                 0.0045                 0.0174
 IR Inten    --      0.2701                 2.9281                 2.6580

                      4                      5                      6
                      A                      A                      A
 Frequencies --    131.7651               168.8943               215.7903
 Red. masses --      2.8743                 2.9198                 6.9080
 Frc consts  --      0.0294                 0.0491                 0.1895
 IR Inten    --      0.2098                 1.4077                 0.5989

                      7                      8                      9
                      A                      A                      A
 Frequencies --    226.1325               231.9821               293.0564
 Red. masses --      1.0635                 1.0758                 2.1366
 Frc consts  --      0.0320                 0.0341                 0.1081
 IR Inten    --      0.0135                 0.0134                 0.0264

                     10                     11                     12
                      A                      A                      A
 Frequencies --    304.3541               320.5506               331.3608
 Red. masses --      3.7489                 3.7641                 2.1658
 Frc consts  --      0.2046                 0.2279                 0.1401
 IR Inten    --      1.0613                 1.6939                 0.6908

                     13                     14                     15
                      A                      A                      A
 Frequencies --    431.3991               449.5512               461.4776
 Red. masses --      3.4965                 2.3101                 3.6534
 Frc consts  --      0.3834                 0.2751                 0.4584
 IR Inten    --      7.2874                 0.1155                 1.2017

                     16                     17                     18
                      A                      A                      A
 Frequencies --    608.8218               609.4794               684.9814
 Red. masses --      5.7683                 5.9346                 5.7340
 Frc consts  --      1.2597                 1.2989                 1.5851
 IR Inten    --     40.1498                 1.7071                 1.3123

                     19                     20                     21
                      A                      A                      A
 Frequencies --    699.5585               787.7800               855.1413
 Red. masses --      3.0219                 1.9125                 2.3680
 Frc consts  --      0.8713                 0.6993                 1.0203
 IR Inten    --     23.5370                12.9290                 0.0000

                     22                     23                     24
                      A                      A                      A
 Frequencies --    924.8896               946.7269               991.2874
 Red. masses --      2.0006                 1.7072                 1.3178
 Frc consts  --      1.0083                 0.9016                 0.7630
 IR Inten    --      1.6702                13.4427                 0.8915

                     25                     26                     27
                      A                      A                      A
 Frequencies --    999.8746              1019.8204              1024.6981
 Red. masses --      1.2196                 1.2422                 1.1897
 Frc consts  --      0.7184                 0.7612                 0.7360
 IR Inten    --     11.8241                 0.3483                16.2071

                     28                     29                     30
                      A                      A                      A
 Frequencies --   1074.4492              1095.4575              1097.4739
 Red. masses --      1.6243                 2.3704                 2.6210
 Frc consts  --      1.1048                 1.6759                 1.8600
 IR Inten    --      1.1492                12.4340                 0.0519

                     31                     32                     33
                      A                      A                      A
 Frequencies --   1110.9831              1118.2746              1149.5322
 Red. masses --      1.5666                 1.4437                 1.4118
 Frc consts  --      1.1393                 1.0637                 1.0992
 IR Inten    --     21.3388                 0.0798                 2.7659

                     34                     35                     36
                      A                      A                      A
 Frequencies --   1164.9191              1203.7314              1217.7781
 Red. masses --      1.7271                 1.7027                 1.7234
 Frc consts  --      1.3809                 1.4536                 1.5058
 IR Inten    --      1.3116                 5.3369                 0.4024

                     37                     38                     39
                      A                      A                      A
 Frequencies --   1244.3374              1259.8180              1342.6431
 Red. masses --      1.3717                 1.2979                 1.2802
 Frc consts  --      1.2514                 1.2137                 1.3597
 IR Inten    --     10.6210                 2.4190                11.3183

                     40                     41                     42
                      A                      A                      A
 Frequencies --   1362.8527              1376.6712              1385.7568
 Red. masses --      1.2085                 1.3480                 1.3651
 Frc consts  --      1.3225                 1.5052                 1.5445
 IR Inten    --      2.5129                 0.7319                 8.8967

                     43                     44                     45
                      A                      A                      A
 Frequencies --   1439.5878              1440.3759              1457.8227
 Red. masses --      1.2422                 1.2419                 2.0034
 Frc consts  --      1.5168                 1.5181                 2.5085
 IR Inten    --      5.6807                 0.5956                 0.8742

                     46                     47                     48
                      A                      A                      A
 Frequencies --   1462.4063              1512.6653              1514.2201
 Red. masses --      1.9910                 1.0670                 1.0633
 Frc consts  --      2.5087                 1.4385                 1.4365
 IR Inten    --      8.8382                 4.6793                 0.2362

                     49                     50                     51
                      A                      A                      A
 Frequencies --   1516.1174              1519.2740              1526.1533
 Red. masses --      1.0836                 1.0930                 1.0486
 Frc consts  --      1.4675                 1.4864                 1.4390
 IR Inten    --     13.8909                 2.9516                 4.4796

                     52                     53                     54
                      A                      A                      A
 Frequencies --   1526.3645              3043.0664              3043.1171
 Red. masses --      1.0487                 1.0407                 1.0406
 Frc consts  --      1.4396                 5.6779                 5.6776
 IR Inten    --     10.3347                15.7223                32.6205

                     55                     56                     57
                      A                      A                      A
 Frequencies --   3053.8495              3055.1861              3095.1557
 Red. masses --      1.0643                 1.0598                 1.0992
 Frc consts  --      5.8478                 5.8281                 6.2042
 IR Inten    --     10.0688                18.5010                 9.1574

                     58                     59                     60
                      A                      A                      A
 Frequencies --   3101.2753              3112.0529              3112.0726
 Red. masses --      1.1043                 1.0954                 1.0953
 Frc consts  --      6.2580                 6.2503                 6.2500
 IR Inten    --     28.6919                26.8307                 3.0435

                     61                     62                     63
                      A                      A                      A
 Frequencies --   3132.4411              3132.5651              3141.1316
 Red. masses --      1.0970                 1.0972                 1.0912
 Frc consts  --      6.3418                 6.3438                 6.3432
 IR Inten    --     20.5708                 0.0009                11.4399

                     64                     65                     66
                      A                      A                      A
 Frequencies --   3146.3340              3151.3629              3157.1901
 Red. masses --      1.0933                 1.0907                 1.0876
 Frc consts  --      6.3770                 6.3821                 6.3874
 IR Inten    --      3.1166                29.5736                25.7555

 - Thermochemistry -
 -------------------
 Temperature   298.150 Kelvin.  Pressure   1.00000 Atm.
 Atom     1 has atomic number  6 and mass  12.00000

 Molecular mass:   174.05369 amu.
 Principal axes and moments of inertia in atomic units:
                           1         2         3
     Eigenvalues --   971.620534460.353484673.27446
           X            0.99941  -0.03421   0.00000
           Y            0.03421   0.99941   0.00000
           Z           -0.00000  -0.00000   1.00000
 This molecule is an asymmetric top.
 Rotational symmetry number  1.
 Warning -- assumption of classical behavior for rotation
           may cause significant error
 Rotational temperatures (Kelvin)      0.08914     0.01942     0.01853
 Rotational constants (GHZ):           1.85745     0.40462     0.38618
 Zero-point vibrational energy     541062.6 (Joules/Mol)
                                  129.31706 (Kcal/Mol)
 Warning -- explicit consideration of  17 degrees of freedom as
           vibrations may cause significant error
 Vibrational temperatures:     39.54    56.47   109.39   189.58   243.00
          (Kelvin)            310.47   325.35   333.77   421.64   437.90
                              461.20   476.75   620.69   646.80   663.96
                              875.96   876.90   985.54  1006.51  1133.44
                             1230.36  1330.71  1362.13  1426.24  1438.60
                             1467.29  1474.31  1545.89  1576.12  1579.02
                             1598.46  1608.95  1653.92  1676.06  1731.90
                             1752.11  1790.32  1812.60  1931.76  1960.84
                             1980.72  1993.79  2071.25  2072.38  2097.48
                             2104.08  2176.39  2178.62  2181.35  2185.90
                             2195.79  2196.10  4378.29  4378.37  4393.81
                             4395.73  4453.24  4462.04  4477.55  4477.58
                             4506.88  4507.06  4519.39  4526.87  4534.11
                             4542.49

 Zero-point correction=                           0.206080 (Hartree/Particle)
 Thermal correction to Energy=                    0.217945
 Thermal correction to Enthalpy=                  0.218889
 Thermal correction to Gibbs Free Energy=         0.166504
 Sum of electronic and zero-point Energies=          -1109.474815
 Sum of electronic and thermal Energies=             -1109.462950
 Sum of electronic and thermal Enthalpies=           -1109.462005
 Sum of electronic and thermal Free Energies=        -1109.514390

                     E (Thermal)             CV                S
                      KCal/Mol        Cal/Mol-Kelvin    Cal/Mol-Kelvin
 Total                  136.762             42.998            110.253
 Electronic               0.000              0.000              0.000
 Translational            0.889              2.981             41.370
 Rotational               0.889              2.981             31.383
 Vibrational            134.985             37.036             37.500
 Vibration     1          0.593              1.984              6.003
 Vibration     2          0.594              1.981              5.297
 Vibration     3          0.599              1.965              3.991
 Vibration     4          0.612              1.922              2.920
 Vibration     5          0.625              1.881              2.448
 Vibration     6          0.645              1.817              1.994
 Vibration     7          0.650              1.801              1.909
 Vibration     8          0.653              1.792              1.864
 Vibration     9          0.688              1.687              1.456
 Vibration    10          0.695              1.665              1.393
 Vibration    11          0.706              1.634              1.307
 Vibration    12          0.714              1.613              1.253
 Vibration    13          0.792              1.402              0.854
 Vibration    14          0.808              1.362              0.797
 Vibration    15          0.819              1.335              0.762
 Vibration    16          0.968              1.013              0.435
 Vibration    17          0.968              1.012              0.434

 Optimization completed.
    -- Stationary point found.

 1\1\GINC-NODE102\Freq\RB3LYP\6-31G(d)\C8H14S2\VSC10255\08-Dec-2020\0\\
 #N Geom=AllCheck Guess=TCheck SCRF=Check GenChk RB3LYP/6-31G(d) Freq\\
 CID_17781163_JID_854_neutraal\\0,1\C,0.8111996578,-0.0738368767,0.1193
 023447\C,0.4780330007,0.0511837021,-1.3483520423\C,1.5409634426,0.2594
 711895,-2.3583811584\S,0.757376941,-1.4101424426,-2.4481278771\C,1.333
 03622,1.2228682293,-3.5079247688\C,1.5423621828,2.6955992799,-3.098433
 1593\C,2.9541208547,2.9788855435,-2.6299121696\C,4.0479049651,3.174237
 696,-3.6091147656\S,3.5793265747,4.7150020194,-2.6983529125\C,5.418130

 Normal termination of Gaussian 16 at Tue Dec  8 13:17:02 2020.

 ----------------------------------------------------------------------
 # B3LYP/6-311++G(d,p) empiricaldispersion=gd3bj scf=xqc pop=npa geom=c
 heck
 ----------------------------------------------------------------------

 -------------------------------------
 CID_17781163_JID_854_Energie_neutraal
 -------------------------------------
 Structure from the checkpoint file:  "JID_854.chk"
 Charge =  0 Multiplicity = 1

 SCF Done:  E(RB3LYP) =  -1109.81929495     A.U. after   13 cycles
 Normal termination of Gaussian 16 at Tue Dec  8 13:23:35 2020.

 ----------------------------------------------------------------------
 # B3LYP/6-311++G(d,p) empiricaldispersion=gd3bj scf=xqc pop=npa geom=c
 heck
 ----------------------------------------------------------------------

 -----------------------------------
 CID_17781163_JID_854_Energie_kation
 -----------------------------------
 Structure from the checkpoint file:  "JID_854.chk"
 Charge =  1 Multiplicity = 2

 SCF Done:  E(UB3LYP) =  -1109.52402708     A.U. after   18 cycles
 Normal termination of Gaussian 16 at Tue Dec  8 13:29:22 2020.
 Gaussian 16:  ES64L-G16RevA.03 25-Dec-2016

 ----------------------------------
 CID_17781163_JID_854_Energie_anion
 ----------------------------------
 Structure from the checkpoint file:  "JID_854.chk"
 Charge = -1 Multiplicity = 2

                         Standard orientation:
 ---------------------------------------------------------------------
 Center     Atomic      Atomic             Coordinates (Angstroms)
 Number     Number       Type             X           Y           Z
 ---------------------------------------------------------------------
      1          6           0       -2.782131    1.544158    1.272089
      2          6           0       -2.518465    0.747956    0.016230
      3          6           0       -1.502638   -0.329515   -0.006510
      4         16           0       -3.237506   -0.951026   -0.123261
      5          6           0       -0.587377   -0.500120   -1.200666
      6          6           0        0.587370    0.500083   -1.200676
      7          6           0        1.502633    0.329504   -0.006514
      8          6           0        2.518475   -0.747952    0.016239
      9         16           0        3.237490    0.951036   -0.123280
     10          6           0        2.782160   -1.544136    1.272106
     11          1           0       -3.792839    1.963986    1.269337
     12          1           0       -2.068320    2.375471    1.345927
     13          1           0       -2.677494    0.914220    2.160611
     14          1           0       -2.617767    1.311551   -0.911569
     15          1           0       -1.051456   -0.561461    0.957702
     16          1           0       -0.199147   -1.525916   -1.219823
     17          1           0       -1.173746   -0.367272   -2.116764
     18          1           0        1.173741    0.367215   -2.116770
     19          1           0        0.199140    1.525878   -1.219856
     20          1           0        1.051445    0.561455    0.957694
     21          1           0        2.617778   -1.311560   -0.911552
     22          1           0        2.068374   -2.375470    1.345947
     23          1           0        3.792881   -1.963932    1.269363
     24          1           0        2.677498   -0.914194    2.160623
 ---------------------------------------------------------------------

 SCF Done:  E(UB3LYP) =  -1109.80377201     A.U. after   30 cycles

 The electronic state is 2-A.
 Alpha  occ. eigenvalues --  -88.73479 -88.73479 -10.11890 -10.11890 -10.11649
 Alpha  occ. eigenvalues --  -10.11649 -10.08297 -10.08276 -10.07224 -10.07224
 Alpha  occ. eigenvalues --   -7.82099  -7.82099  -5.78501  -5.78501  -5.78135
 Alpha  occ. eigenvalues --   -5.78135  -5.77441  -5.77441  -0.78188  -0.77212
 Alpha  occ. eigenvalues --   -0.68330  -0.63170  -0.61922  -0.56323  -0.50657
 Alpha  occ. eigenvalues --   -0.49561  -0.48762  -0.46549  -0.38250  -0.37792
 Alpha  occ. eigenvalues --   -0.36493  -0.35235  -0.32386  -0.32149  -0.31834
 Alpha  occ. eigenvalues --   -0.31436  -0.29406  -0.28330  -0.27834  -0.26439
 Alpha  occ. eigenvalues --   -0.24910  -0.21517  -0.20324  -0.20104  -0.19408
 Alpha  occ. eigenvalues --   -0.13244  -0.13010   0.04622
 Alpha virt. eigenvalues --    0.06341   0.07005   0.07831   0.08566   0.08952
 Alpha virt. eigenvalues --    0.09742   0.09911   0.10472   0.10808   0.11356
 Alpha virt. eigenvalues --    0.11784   0.11962   0.12438   0.13010   0.13673

  Beta  occ. eigenvalues --  -88.73474 -88.73474 -10.11873 -10.11873 -10.11629
  Beta  occ. eigenvalues --  -10.11629 -10.08278 -10.08257 -10.07181 -10.07181
  Beta  occ. eigenvalues --   -7.82095  -7.82095  -5.78494  -5.78494  -5.78126
  Beta  occ. eigenvalues --   -5.78126  -5.77438  -5.77438  -0.78158  -0.77182
  Beta  occ. eigenvalues --   -0.68288  -0.63110  -0.61862  -0.56280  -0.50604
  Beta  occ. eigenvalues --   -0.49497  -0.48685  -0.46481  -0.38191  -0.37743
  Beta  occ. eigenvalues --   -0.36438  -0.35179  -0.32337  -0.32103  -0.31763
  Beta  occ. eigenvalues --   -0.31383  -0.29365  -0.28278  -0.27779  -0.26396
  Beta  occ. eigenvalues --   -0.24856  -0.21465  -0.20288  -0.20068  -0.19363
  Beta  occ. eigenvalues --   -0.13227  -0.12992
  Beta virt. eigenvalues --    0.07071   0.07275   0.07824   0.08072   0.08917
  Beta virt. eigenvalues --    0.09436   0.10087   0.10487   0.10663   0.11262
  Beta virt. eigenvalues --    0.11792   0.12119   0.12444   0.12529   0.13321

 Mulliken charges and spin densities:
               1          2
     1  C    1.697548  -2.384685
     2  C   -1.160324   0.845563
     3  C    0.080847   0.586445
     4  S   -0.294868  -0.036619
     5  C    0.681489  -1.288827
     6  C    0.681462  -1.288783
     7  C    0.080824   0.586475
     8  C   -1.160304   0.845527
     9  S   -0.294881  -0.036607
    10  C    1.697573  -2.384708
    11  H   -0.175524   0.313543
    12  H   -0.333379   0.493697
    13  H   -0.363925   0.510666
    14  H   -0.355088   0.597318
    15  H   -0.035550   0.312724
    16  H   -0.179540   0.325156
    17  H   -0.061682   0.225013
    18  H   -0.061688   0.225018
    19  H   -0.179528   0.325143
    20  H   -0.035530   0.312705
    21  H   -0.355092   0.597321
    22  H   -0.333391   0.493710
    23  H   -0.175510   0.313529
    24  H   -0.363938   0.510678
 Sum of Mulliken charges =  -1.00000   1.00000

 Dipole moment (field-independent basis, Debye):
    X=             -0.0000    Y=              0.0001    Z=             -2.2480  Tot=              2.2480
 Quadrupole moment (field-independent basis, Debye-Ang):
   XX=           -138.6984   YY=           -124.5992   ZZ=           -118.5209
   XY=              8.3163   XZ=             -0.0001   YZ=              0.0000

 Summary of Natural Population Analysis:

                                       Natural Population
                Natural  -----------------------------------------------
    Atom  No    Charge         Core      Valence    Rydberg      Total
 -----------------------------------------------------------------------
      C    1   -0.29137      0.99963     2.28394    0.00780     3.29137
      C    2   -0.13429      0.99955     2.12020    0.01455     3.13429
      C    3   -0.13511      0.99952     2.12207    0.01352     3.13511
      S    4    0.01869      4.99967     2.96801    0.01363     7.98131
      C    5   -0.19467      0.99958     2.18465    0.01044     3.19467
      C    6   -0.19467      0.99958     2.18465    0.01044     3.19467
      C    7   -0.13511      0.99952     2.12207    0.01352     3.13511
      C    8   -0.13429      0.99955     2.12020    0.01455     3.13429
      S    9    0.01869      4.99967     2.96801    0.01363     7.98131
      C   10   -0.29137      0.99963     2.28394    0.00780     3.29137
      H   11    0.10210      0.00000     0.39666    0.00124     0.39790
      H   12    0.10668      0.00000     0.39092    0.00240     0.39332
      H   13    0.10483      0.00000     0.39356    0.00161     0.39517
      H   14    0.10570      0.00000     0.39277    0.00152     0.39430
      H   15    0.10878      0.00000     0.38917    0.00205     0.39122
      H   16    0.10283      0.00000     0.39550    0.00167     0.39717
      H   17    0.10585      0.00000     0.39234    0.00181     0.39415
      H   18    0.10585      0.00000     0.39234    0.00181     0.39415
      H   19    0.10283      0.00000     0.39550    0.00167     0.39717
      H   20    0.10878      0.00000     0.38917    0.00205     0.39122
      H   21    0.10570      0.00000     0.39277    0.00152     0.39430
      H   22    0.10668      0.00000     0.39092    0.00240     0.39332
      H   23    0.10210      0.00000     0.39666    0.00124     0.39790
      H   24    0.10483      0.00000     0.39356    0.00161     0.39517
 =======================================================================
   * Total *    0.00000     17.99591    28.85958    0.14451    47.00000

 Normal termination of Gaussian 16 at Tue Dec  8 13:40:17 2020.
