 Gaussian 16, Revision A.03,

 -----------------------------------------------------------
 # opt freq B3LYP/6-31G(d) empiricaldispersion=gd3bj scf=xqc
 -----------------------------------------------------------

 -------------------------------
 CID_118308716_JID_6274_neutraal
 -------------------------------
 Symbolic Z-matrix:
 Charge =  0 Multiplicity = 1

 SCF Done:  E(RB3LYP) =  -858.029999482     A.U. after   15 cycles
 SCF Done:  E(RB3LYP) =  -858.038176486     A.U. after   14 cycles
 SCF Done:  E(RB3LYP) =  -858.036012497     A.U. after   14 cycles
 SCF Done:  E(RB3LYP) =  -858.036325139     A.U. after   14 cycles
 SCF Done:  E(RB3LYP) =  -858.038916821     A.U. after   10 cycles
 SCF Done:  E(RB3LYP) =  -858.038846602     A.U. after   14 cycles
 SCF Done:  E(RB3LYP) =  -858.039256899     A.U. after   12 cycles
 SCF Done:  E(RB3LYP) =  -858.039293301     A.U. after   11 cycles
 SCF Done:  E(RB3LYP) =  -858.039307621     A.U. after   11 cycles
 SCF Done:  E(RB3LYP) =  -858.039320184     A.U. after   10 cycles
 SCF Done:  E(RB3LYP) =  -858.039582012     A.U. after    9 cycles
 SCF Done:  E(RB3LYP) =  -858.038510797     A.U. after   14 cycles
 SCF Done:  E(RB3LYP) =  -858.039605091     A.U. after   10 cycles
 SCF Done:  E(RB3LYP) =  -858.039606702     A.U. after   10 cycles
 SCF Done:  E(RB3LYP) =  -858.039607277     A.U. after    8 cycles
 SCF Done:  E(RB3LYP) =  -858.039607416     A.U. after    9 cycles
 Optimization completed.
    -- Stationary point found.
 Normal termination of Gaussian 16 at Thu Dec 10 22:17:41 2020.

 --------------------------------------------------------------------
 #N Geom=AllCheck Guess=TCheck SCRF=Check GenChk RB3LYP/6-31G(d) Freq
 --------------------------------------------------------------------

 Structure from the checkpoint file:  "JID_6274.chk"
 -------------------------------
 CID_118308716_JID_6274_neutraal
 -------------------------------
 Charge =  0 Multiplicity = 1

 SCF Done:  E(RB3LYP) =  -858.039607416     A.U. after    1 cycles

  Exact polarizability: 135.299   2.853 109.762   0.183  -5.076 104.398
 Approx polarizability: 165.331   2.949 166.663   5.356 -19.510 181.829

                      1                      2                      3
                      A                      A                      A
 Frequencies --     29.2889                39.9974                47.7427
 Red. masses --      4.0380                 4.3737                 5.7962
 Frc consts  --      0.0020                 0.0041                 0.0078
 IR Inten    --      0.1319                 0.5355                 0.8546

                      4                      5                      6
                      A                      A                      A
 Frequencies --     56.5628               105.3484               126.4366
 Red. masses --      4.6325                 4.5611                 3.6887
 Frc consts  --      0.0087                 0.0298                 0.0347
 IR Inten    --      1.4728                 0.8364                 2.3372

                      7                      8                      9
                      A                      A                      A
 Frequencies --    142.7101               162.7499               199.4822
 Red. masses --      3.9664                 4.5753                 2.3367
 Frc consts  --      0.0476                 0.0714                 0.0548
 IR Inten    --      0.1432                 1.0215                 5.0411

                     10                     11                     12
                      A                      A                      A
 Frequencies --    216.7540               237.9210               254.3658
 Red. masses --      1.1008                 1.7752                 1.1567
 Frc consts  --      0.0305                 0.0592                 0.0441
 IR Inten    --      0.6691                 2.1800                 0.0710

                     13                     14                     15
                      A                      A                      A
 Frequencies --    267.1089               293.5489               315.6631
 Red. masses --      2.6005                 3.7542                 2.3134
 Frc consts  --      0.1093                 0.1906                 0.1358
 IR Inten    --      3.2634                 0.7123                 6.1785

                     16                     17                     18
                      A                      A                      A
 Frequencies --    350.4141               381.8280               383.7893
 Red. masses --      3.0139                 2.9361                 3.7249
 Frc consts  --      0.2180                 0.2522                 0.3233
 IR Inten    --      8.8023                 3.1169                 3.1738

                     19                     20                     21
                      A                      A                      A
 Frequencies --    397.8749               431.1159               459.6917
 Red. masses --      2.9893                 4.1552                 4.0395
 Frc consts  --      0.2788                 0.4550                 0.5029
 IR Inten    --      6.9294                 7.6962                 3.7685

                     22                     23                     24
                      A                      A                      A
 Frequencies --    473.6762               503.6087               532.5889
 Red. masses --      4.6623                 6.2794                 3.4243
 Frc consts  --      0.6163                 0.9383                 0.5723
 IR Inten    --      1.7716                22.4542                 3.7886

                     25                     26                     27
                      A                      A                      A
 Frequencies --    581.4654               664.6416               703.8782
 Red. masses --      5.0119                 5.7725                 4.8480
 Frc consts  --      0.9984                 1.5024                 1.4152
 IR Inten    --      6.1374                 9.0598                11.5411

                     28                     29                     30
                      A                      A                      A
 Frequencies --    733.4609               760.5958               799.5464
 Red. masses --      4.6879                 4.6361                 1.5741
 Frc consts  --      1.4859                 1.5802                 0.5929
 IR Inten    --      1.9033                 4.3111                 2.5818

                     31                     32                     33
                      A                      A                      A
 Frequencies --    815.2659               848.1600               858.6758
 Red. masses --      4.6917                 2.6430                 3.6026
 Frc consts  --      1.8373                 1.1202                 1.5650
 IR Inten    --     20.5590                54.3952                 7.8509

                     34                     35                     36
                      A                      A                      A
 Frequencies --    875.8682               911.2233               946.0483
 Red. masses --      2.9501                 2.9380                 1.4522
 Frc consts  --      1.3334                 1.4373                 0.7658
 IR Inten    --     19.0974                 9.2521                 0.4193

                     37                     38                     39
                      A                      A                      A
 Frequencies --    970.5133               982.6317              1023.5542
 Red. masses --      2.0883                 2.5894                 1.3672
 Frc consts  --      1.1589                 1.4731                 0.8439
 IR Inten    --      1.9335                 5.0854                 0.6569

                     40                     41                     42
                      A                      A                      A
 Frequencies --   1039.7103              1076.4076              1108.8139
 Red. masses --      2.8720                 7.7916                 3.2037
 Frc consts  --      1.8292                 5.3190                 2.3207
 IR Inten    --     19.4022                24.0060                70.5521

                     43                     44                     45
                      A                      A                      A
 Frequencies --   1131.3871              1138.4685              1163.7414
 Red. masses --      1.9610                 3.9234                 2.8969
 Frc consts  --      1.4790                 2.9961                 2.3115
 IR Inten    --     23.3336               207.2170                46.0334

                     46                     47                     48
                      A                      A                      A
 Frequencies --   1191.8879              1202.8096              1213.0303
 Red. masses --      4.3863                 2.5509                 1.8411
 Frc consts  --      3.6713                 2.1744                 1.5961
 IR Inten    --     11.8532                20.7237                 0.6863

                     49                     50                     51
                      A                      A                      A
 Frequencies --   1250.1817              1276.5161              1280.5047
 Red. masses --      2.5111                 2.7571                 2.8111
 Frc consts  --      2.3124                 2.6471                 2.7158
 IR Inten    --    333.0258               102.0366               169.0909

                     52                     53                     54
                      A                      A                      A
 Frequencies --   1305.1525              1333.2348              1340.9300
 Red. masses --      1.2861                 1.3435                 1.2070
 Frc consts  --      1.2907                 1.4070                 1.2787
 IR Inten    --     27.4546                 6.9299                32.1278

                     55                     56                     57
                      A                      A                      A
 Frequencies --   1394.0137              1402.0863              1419.8366
 Red. masses --      1.5489                 1.7209                 1.3241
 Frc consts  --      1.7734                 1.9932                 1.5728
 IR Inten    --     33.8459                60.7946                 8.8940

                     58                     59                     60
                      A                      A                      A
 Frequencies --   1432.7018              1436.3192              1445.8197
 Red. masses --      1.3706                 2.1240                 1.2823
 Frc consts  --      1.6576                 2.5817                 1.5793
 IR Inten    --     27.2608                63.7791                 3.8590

                     61                     62                     63
                      A                      A                      A
 Frequencies --   1447.4138              1507.0846              1507.9876
 Red. masses --      1.4042                 1.0540                 1.0476
 Frc consts  --      1.7332                 1.4105                 1.4035
 IR Inten    --     10.5586                 0.2865                 0.3425

                     64                     65                     66
                      A                      A                      A
 Frequencies --   1515.5030              1520.6144              1523.0033
 Red. masses --      1.0444                 1.0795                 1.0746
 Frc consts  --      1.4133                 1.4707                 1.4686
 IR Inten    --      7.1721                 1.9432                 7.8059

                     67                     68                     69
                      A                      A                      A
 Frequencies --   1524.8791              1528.9626              1535.1625
 Red. masses --      1.0778                 1.0669                 1.0658
 Frc consts  --      1.4766                 1.4695                 1.4800
 IR Inten    --      4.5947                 3.4475                11.4495

                     70                     71                     72
                      A                      A                      A
 Frequencies --   1545.0027              1660.3773              1831.3961
 Red. masses --      1.0642                14.2634                11.5881
 Frc consts  --      1.4967                23.1680                22.8996
 IR Inten    --      3.3575               235.2940               186.0878

                     73                     74                     75
                      A                      A                      A
 Frequencies --   3066.6406              3069.6840              3074.7782
 Red. masses --      1.0360                 1.0347                 1.0356
 Frc consts  --      5.7405                 5.7444                 5.7685
 IR Inten    --     12.0448                 6.7492                10.4846

                     76                     77                     78
                      A                      A                      A
 Frequencies --   3091.8236              3100.3395              3104.5603
 Red. masses --      1.0636                 1.0608                 1.0595
 Frc consts  --      5.9907                 6.0078                 6.0164
 IR Inten    --     14.0082                11.1548                18.3659

                     79                     80                     81
                      A                      A                      A
 Frequencies --   3136.9272              3143.9668              3145.5697
 Red. masses --      1.1003                 1.1033                 1.1048
 Frc consts  --      6.3791                 6.4257                 6.4408
 IR Inten    --     23.3061                 7.9960                 2.7630

                     82                     83                     84
                      A                      A                      A
 Frequencies --   3146.7133              3155.5428              3157.6895
 Red. masses --      1.1032                 1.1033                 1.1034
 Frc consts  --      6.4358                 6.4730                 6.4824
 IR Inten    --     16.6505                23.7892                11.4323

                     85                     86                     87
                      A                      A                      A
 Frequencies --   3163.0096              3168.3335              3173.5165
 Red. masses --      1.1058                 1.1094                 1.1035
 Frc consts  --      6.5182                 6.5614                 6.5477
 IR Inten    --      3.9711                21.5642                 8.1204

 - Thermochemistry -
 -------------------
 Temperature   298.150 Kelvin.  Pressure   1.00000 Atm.
 Atom     1 has atomic number  6 and mass  12.00000

 Molecular mass:   233.08994 amu.
 Principal axes and moments of inertia in atomic units:
                           1         2         3
     Eigenvalues --  2029.908064619.230905460.28249
           X            0.99991  -0.01342   0.00032
           Y            0.01343   0.99984  -0.01145
           Z           -0.00017   0.01145   0.99993
 This molecule is an asymmetric top.
 Rotational symmetry number  1.
 Warning -- assumption of classical behavior for rotation
           may cause significant error
 Rotational temperatures (Kelvin)      0.04267     0.01875     0.01586
 Rotational constants (GHZ):           0.88908     0.39070     0.33052
 Zero-point vibrational energy     664022.1 (Joules/Mol)
                                  158.70510 (Kcal/Mol)
 Warning -- explicit consideration of  25 degrees of freedom as
           vibrations may cause significant error
 Vibrational temperatures:     42.14    57.55    68.69    81.38   151.57
          (Kelvin)            181.91   205.33   234.16   287.01   311.86
                              342.32   365.98   384.31   422.35   454.17
                              504.17   549.37   552.19   572.45   620.28
                              661.39   681.51   724.58   766.28   836.60
                              956.27  1012.72  1055.29  1094.33  1150.37
                             1172.99  1220.31  1235.44  1260.18  1311.05
                             1361.15  1396.35  1413.79  1472.67  1495.91
                             1548.71  1595.34  1627.81  1638.00  1674.36
                             1714.86  1730.57  1745.28  1798.73  1836.62
                             1842.36  1877.82  1918.23  1929.30  2005.67
                             2017.29  2042.83  2061.34  2066.54  2080.21
                             2082.51  2168.36  2169.66  2180.47  2187.82
                             2191.26  2193.96  2199.84  2208.76  2222.91
                             2388.91  2634.97  4412.21  4416.59  4423.92
                             4448.44  4460.70  4466.77  4513.34  4523.47
                             4525.77  4527.42  4540.12  4543.21  4550.87
                             4558.53  4565.98

 Zero-point correction=                           0.252913 (Hartree/Particle)
 Thermal correction to Energy=                    0.269235
 Thermal correction to Enthalpy=                  0.270180
 Thermal correction to Gibbs Free Energy=         0.208144
 Sum of electronic and zero-point Energies=           -857.786695
 Sum of electronic and thermal Energies=              -857.770372
 Sum of electronic and thermal Enthalpies=            -857.769428
 Sum of electronic and thermal Free Energies=         -857.831464

                     E (Thermal)             CV                S
                      KCal/Mol        Cal/Mol-Kelvin    Cal/Mol-Kelvin
 Total                  168.948             60.166            130.566
 Electronic               0.000              0.000              0.000
 Translational            0.889              2.981             42.241
 Rotational               0.889              2.981             32.304
 Vibrational            167.170             54.204             56.021
 Vibration     1          0.593              1.984              5.877
 Vibration     2          0.594              1.981              5.259
 Vibration     3          0.595              1.978              4.909
 Vibration     4          0.596              1.975              4.574
 Vibration     5          0.605              1.945              3.353
 Vibration     6          0.611              1.927              3.000
 Vibration     7          0.616              1.910              2.767
 Vibration     8          0.623              1.888              2.518
 Vibration     9          0.638              1.841              2.138
 Vibration    10          0.646              1.816              1.986
 Vibration    11          0.656              1.783              1.818
 Vibration    12          0.665              1.755              1.700
 Vibration    13          0.672              1.733              1.615
 Vibration    14          0.688              1.686              1.453
 Vibration    15          0.703              1.644              1.332
 Vibration    16          0.727              1.574              1.164
 Vibration    17          0.751              1.509              1.032
 Vibration    18          0.753              1.505              1.024
 Vibration    19          0.764              1.475              0.970
 Vibration    20          0.792              1.402              0.855
 Vibration    21          0.818              1.339              0.767
 Vibration    22          0.830              1.308              0.727
 Vibration    23          0.859              1.242              0.649
 Vibration    24          0.888              1.178              0.581
 Vibration    25          0.938              1.071              0.483

 Optimization completed.
    -- Stationary point found.
 Normal termination of Gaussian 16 at Thu Dec 10 22:28:48 2020.

 ----------------------------------------------------------------------
 # B3LYP/6-311++G(d,p) empiricaldispersion=gd3bj scf=xqc pop=npa geom=c
 heck
 ----------------------------------------------------------------------

 ---------------------------------------
 CID_118308716_JID_6274_Energie_neutraal
 ---------------------------------------
 Structure from the checkpoint file:  "JID_6274.chk"
 Charge =  0 Multiplicity = 1

 SCF Done:  E(RB3LYP) =  -858.293505140     A.U. after   15 cycles
 Normal termination of Gaussian 16 at Thu Dec 10 22:33:08 2020.

 ----------------------------------------------------------------------
 # B3LYP/6-311++G(d,p) empiricaldispersion=gd3bj scf=xqc pop=npa geom=c
 heck
 ----------------------------------------------------------------------

 -------------------------------------
 CID_118308716_JID_6274_Energie_kation
 -------------------------------------
 Structure from the checkpoint file:  "JID_6274.chk"
 Charge =  1 Multiplicity = 2

 SCF Done:  E(UB3LYP) =  -857.944374093     A.U. after   32 cycles
 Normal termination of Gaussian 16 at Thu Dec 10 22:47:41 2020.
 Gaussian 16:  ES64L-G16RevA.03 25-Dec-2016

 ----------------------------------------------------------------------
 # B3LYP/6-311++G(d,p) empiricaldispersion=gd3bj scf=xqc pop=npa geom=c
 heck
 ----------------------------------------------------------------------

 ------------------------------------
 CID_118308716_JID_6274_Energie_anion
 ------------------------------------
 Structure from the checkpoint file:  "JID_6274.chk"
 Charge = -1 Multiplicity = 2

                         Standard orientation:
 ---------------------------------------------------------------------
 Center     Atomic      Atomic             Coordinates (Angstroms)
 Number     Number       Type             X           Y           Z
 ---------------------------------------------------------------------
      1          6           0        4.141641   -1.082128    0.215933
      2          6           0        3.081516   -1.422149   -0.816812
      3          8           0        2.010516   -0.438717   -0.792016
      4          6           0        1.076644   -0.590979    0.153212
      5          8           0        1.003987   -1.515888    0.928243
      6          6           0        0.074634    0.574818    0.088345
      7          6           0       -0.905102    0.546347    1.292384
      8          8           0       -2.245420    0.564724    0.836892
      9          6           0       -2.597179   -0.494034   -0.049709
     10          8           0       -1.587842   -0.640340   -1.072020
     11          6           0       -0.757663    0.497607   -1.202020
     12          6           0       -3.910043   -0.065697   -0.689558
     13          6           0       -2.681553   -1.841646    0.657805
     14          7           0        0.906264    1.842648    0.135217
     15          8           0        1.627406    1.973834    1.121407
     16          8           0        0.802872    2.642076   -0.786636
     17          1           0        4.520981   -0.067801    0.060139
     18          1           0        4.978106   -1.784452    0.130893
     19          1           0        3.732197   -1.154288    1.226983
     20          1           0        3.467857   -1.362978   -1.835790
     21          1           0        2.646975   -2.409319   -0.645510
     22          1           0       -0.781332    1.438913    1.906352
     23          1           0       -0.685355   -0.333635    1.902266
     24          1           0       -1.324057    1.424667   -1.329517
     25          1           0       -0.123577    0.341499   -2.074210
     26          1           0       -3.777819    0.887308   -1.209998
     27          1           0       -4.234689   -0.821837   -1.408981
     28          1           0       -4.682828    0.059936    0.074378
     29          1           0       -2.971183   -2.614033   -0.060377
     30          1           0       -1.711030   -2.119942    1.075809
     31          1           0       -3.427613   -1.800920    1.456606
 ---------------------------------------------------------------------

 SCF Done:  E(UB3LYP) =  -858.310920464     A.U. after   30 cycles

 The electronic state is 2-A.
 Alpha  occ. eigenvalues --  -19.05087 -19.02625 -19.02046 -18.99604 -18.94043
 Alpha  occ. eigenvalues --  -18.93779 -14.29726 -10.18115 -10.17987 -10.12191
 Alpha  occ. eigenvalues --  -10.10497 -10.10158 -10.09733 -10.07139 -10.06607
 Alpha  occ. eigenvalues --  -10.05777  -1.02063  -0.99250  -0.97516  -0.90835
 Alpha  occ. eigenvalues --   -0.90208  -0.85007  -0.71804  -0.67456  -0.65063
 Alpha  occ. eigenvalues --   -0.61120  -0.57349  -0.56023  -0.53798  -0.47991
 Alpha  occ. eigenvalues --   -0.46106  -0.43304  -0.41351  -0.40310  -0.38564
 Alpha  occ. eigenvalues --   -0.37318  -0.36826  -0.36337  -0.34687  -0.34452
 Alpha  occ. eigenvalues --   -0.32541  -0.32240  -0.31185  -0.30530  -0.30306
 Alpha  occ. eigenvalues --   -0.29167  -0.28728  -0.27957  -0.27734  -0.27497
 Alpha  occ. eigenvalues --   -0.26913  -0.26323  -0.25432  -0.23280  -0.20163
 Alpha  occ. eigenvalues --   -0.19576  -0.19164  -0.16121  -0.15229  -0.13278
 Alpha  occ. eigenvalues --   -0.11208  -0.10048   0.04791
 Alpha virt. eigenvalues --    0.07086   0.07258   0.09144   0.09444   0.10022
 Alpha virt. eigenvalues --    0.10785   0.10871   0.11660   0.12305   0.12424
 Alpha virt. eigenvalues --    0.12847   0.12981   0.14195   0.14776   0.15486

  Beta  occ. eigenvalues --  -19.05081 -19.02625 -19.02047 -18.99571 -18.93478
  Beta  occ. eigenvalues --  -18.93293 -14.28681 -10.18023 -10.17985 -10.12181
  Beta  occ. eigenvalues --  -10.10493 -10.10118 -10.09792 -10.07138 -10.06606
  Beta  occ. eigenvalues --  -10.05754  -1.00753  -0.99078  -0.97508  -0.90776
  Beta  occ. eigenvalues --   -0.90207  -0.83998  -0.71694  -0.67376  -0.64932
  Beta  occ. eigenvalues --   -0.61114  -0.57290  -0.55938  -0.53422  -0.47079
  Beta  occ. eigenvalues --   -0.45954  -0.43248  -0.41248  -0.40134  -0.38360
  Beta  occ. eigenvalues --   -0.37232  -0.36461  -0.35729  -0.34448  -0.34095
  Beta  occ. eigenvalues --   -0.32274  -0.31144  -0.30840  -0.30001  -0.29441
  Beta  occ. eigenvalues --   -0.28838  -0.28620  -0.27869  -0.27542  -0.27214
  Beta  occ. eigenvalues --   -0.26820  -0.25990  -0.25250  -0.23237  -0.20111
  Beta  occ. eigenvalues --   -0.19493  -0.19116  -0.15993  -0.15204  -0.10790
  Beta  occ. eigenvalues --   -0.09709  -0.09537
  Beta virt. eigenvalues --    0.07014   0.07542   0.09048   0.09434   0.10022
  Beta virt. eigenvalues --    0.10830   0.10918   0.11853   0.12191   0.12323
  Beta virt. eigenvalues --    0.12701   0.12814   0.14187   0.14396   0.15291

 Mulliken charges and spin densities:
               1          2
     1  C    0.034104  -0.458771
     2  C   -0.002810  -0.069570
     3  O    0.109106   0.015521
     4  C   -0.657473   0.051996
     5  O   -0.213122   0.008696
     6  C   -0.225280  -0.079326
     7  C   -0.061323  -0.059074
     8  O    0.011999   0.000361
     9  C   -0.824975   0.042555
    10  O    0.062095  -0.009322
    11  C    0.251264  -0.086632
    12  C   -0.273446   0.012688
    13  C   -0.193467  -0.067576
    14  N   -0.165806   0.335573
    15  O   -0.210779   0.195142
    16  O   -0.195568   0.219748
    17  H    0.105769   0.053767
    18  H   -0.220437   0.350470
    19  H    0.064173   0.115896
    20  H   -0.076589   0.219817
    21  H    0.069216   0.081850
    22  H    0.212339  -0.001086
    23  H    0.160652   0.041299
    24  H    0.212598  -0.013877
    25  H    0.189353   0.045759
    26  H    0.139543   0.007658
    27  H    0.144266   0.007223
    28  H    0.133330   0.005328
    29  H    0.118288   0.021554
    30  H    0.153052   0.013550
    31  H    0.149928  -0.001219
 Sum of Mulliken charges =  -1.00000   1.00000

 Dipole moment (field-independent basis, Debye):
    X=             -6.2998    Y=             -5.3617    Z=             -1.0018  Tot=              8.3330
 Quadrupole moment (field-independent basis, Debye-Ang):
   XX=           -127.2564   YY=           -132.4649   ZZ=           -109.8600
   XY=             -4.4298   XZ=             -2.5650   YZ=              0.8766

 Summary of Natural Population Analysis:

                                       Natural Population
                Natural  -----------------------------------------------
    Atom  No    Charge         Core      Valence    Rydberg      Total
 -----------------------------------------------------------------------
      C    1   -0.29911      0.99966     2.29497    0.00447     3.29911
      C    2   -0.01589      0.99958     2.00474    0.01157     3.01589
      O    3   -0.27654      0.99985     3.26722    0.00947     4.27654
      C    4    0.42931      0.99962     1.53993    0.03115     2.57069
      O    5   -0.31478      0.99986     3.30930    0.00562     4.31478
      C    6   -0.02824      0.99949     2.01230    0.01645     3.02824
      C    7   -0.01025      0.99953     1.99863    0.01210     3.01025
      O    8   -0.31258      0.99987     3.30381    0.00890     4.31258
      C    9    0.29719      0.99958     1.68525    0.01798     2.70281
      O   10   -0.32043      0.99987     3.31066    0.00989     4.32043
      C   11   -0.01610      0.99952     2.00229    0.01429     3.01610
      C   12   -0.29834      0.99959     2.29280    0.00595     3.29834
      C   13   -0.30748      0.99959     2.30175    0.00615     3.30748
      N   14    0.35455      0.99972     2.11486    0.03088     3.14545
      O   15   -0.20934      0.99990     3.20142    0.00802     4.20934
      O   16   -0.18467      0.99989     3.17716    0.00762     4.18467
      H   17    0.10594      0.00000     0.39273    0.00133     0.39406
      H   18    0.09635      0.00000     0.40232    0.00133     0.40365
      H   19    0.10855      0.00000     0.39026    0.00120     0.39145
      H   20    0.08811      0.00000     0.41082    0.00107     0.41189
      H   21    0.09225      0.00000     0.40631    0.00144     0.40775
      H   22    0.10660      0.00000     0.39242    0.00098     0.39340
      H   23    0.09384      0.00000     0.40472    0.00144     0.40616
      H   24    0.09810      0.00000     0.40053    0.00137     0.40190
      H   25    0.10385      0.00000     0.39491    0.00124     0.39615
      H   26    0.10574      0.00000     0.39335    0.00091     0.39426
      H   27    0.09923      0.00000     0.39996    0.00081     0.40077
      H   28    0.09992      0.00000     0.39921    0.00086     0.40008
      H   29    0.10136      0.00000     0.39761    0.00103     0.39864
      H   30    0.11539      0.00000     0.38351    0.00110     0.38461
      H   31    0.09748      0.00000     0.40143    0.00110     0.40252
 =======================================================================
   * Total *    0.00000     15.99512    45.78718    0.21771    62.00000

 Normal termination of Gaussian 16 at Thu Dec 10 23:03:43 2020.
