 Gaussian 16, Revision A.03,

 -----------------------------------------------------------
 # opt freq B3LYP/6-31G(d) empiricaldispersion=gd3bj scf=xqc
 -----------------------------------------------------------

 ------------------------------
 CID_53763053_JID_4222_neutraal
 ------------------------------
 Symbolic Z-matrix:
 Charge =  0 Multiplicity = 1

 SCF Done:  E(RB3LYP) =  -545.510382593     A.U. after   13 cycles
 SCF Done:  E(RB3LYP) =  -545.513964179     A.U. after   12 cycles
 SCF Done:  E(RB3LYP) =  -545.508379022     A.U. after   12 cycles
 SCF Done:  E(RB3LYP) =  -545.517032295     A.U. after   11 cycles
 SCF Done:  E(RB3LYP) =  -545.518644388     A.U. after   11 cycles
 SCF Done:  E(RB3LYP) =  -545.519123070     A.U. after   11 cycles
 SCF Done:  E(RB3LYP) =  -545.519290879     A.U. after   10 cycles
 SCF Done:  E(RB3LYP) =  -545.519312789     A.U. after    9 cycles
 SCF Done:  E(RB3LYP) =  -545.519316976     A.U. after    8 cycles
 SCF Done:  E(RB3LYP) =  -545.519317723     A.U. after    7 cycles
 Optimization completed.
    -- Stationary point found.
 Normal termination of Gaussian 16 at Thu Dec 10 09:20:58 2020.

 --------------------------------------------------------------------
 #N Geom=AllCheck Guess=TCheck SCRF=Check GenChk RB3LYP/6-31G(d) Freq
 --------------------------------------------------------------------

 Structure from the checkpoint file:  "JID_4222.chk"
 ------------------------------
 CID_53763053_JID_4222_neutraal
 ------------------------------
 Charge =  0 Multiplicity = 1

 SCF Done:  E(RB3LYP) =  -545.519317723     A.U. after    1 cycles

  Exact polarizability: 140.442   3.607 129.359  -0.733  -0.958 123.523
 Approx polarizability: 191.053   7.260 186.666  -0.532  -4.363 207.146

                      1                      2                      3
                      A                      A                      A
 Frequencies --    104.1459               199.4568               208.3430
 Red. masses --      3.1272                 3.1122                 2.8350
 Frc consts  --      0.0200                 0.0729                 0.0725
 IR Inten    --      0.0044                 0.3304                 0.0197

                      4                      5                      6
                      A                      A                      A
 Frequencies --    272.6919               281.0630               289.8578
 Red. masses --      2.5012                 2.7180                 2.7411
 Frc consts  --      0.1096                 0.1265                 0.1357
 IR Inten    --      0.0132                 0.8690                 0.4301

                      7                      8                      9
                      A                      A                      A
 Frequencies --    312.7529               345.9558               360.6935
 Red. masses --      1.6587                 1.8236                 2.5212
 Frc consts  --      0.0956                 0.1286                 0.1933
 IR Inten    --      0.1812                 0.1200                 0.7837

                     10                     11                     12
                      A                      A                      A
 Frequencies --    412.2732               415.9325               434.0900
 Red. masses --      1.2869                 1.6752                 2.1632
 Frc consts  --      0.1289                 0.1708                 0.2402
 IR Inten    --      0.1524                 0.4675                 1.8417

                     13                     14                     15
                      A                      A                      A
 Frequencies --    474.3790               541.6292               563.5214
 Red. masses --      2.9875                 3.5533                 4.0121
 Frc consts  --      0.3961                 0.6142                 0.7507
 IR Inten    --      0.3607                 1.1853                 0.4880

                     16                     17                     18
                      A                      A                      A
 Frequencies --    585.3042               667.0908               700.2998
 Red. masses --      3.4178                 2.2833                 2.2663
 Frc consts  --      0.6899                 0.5987                 0.6548
 IR Inten    --      0.5431                 5.0999                15.2107

                     19                     20                     21
                      A                      A                      A
 Frequencies --    718.1543               750.0482               771.8335
 Red. masses --      3.0388                 2.4618                 3.8707
 Frc consts  --      0.9234                 0.8160                 1.3586
 IR Inten    --      2.7159                 6.3812                 0.3507

                     22                     23                     24
                      A                      A                      A
 Frequencies --    793.1832               827.7967               851.1535
 Red. masses --      3.9357                 1.7919                 2.9435
 Frc consts  --      1.4589                 0.7235                 1.2564
 IR Inten    --      4.9890                12.6291                 1.8705

                     25                     26                     27
                      A                      A                      A
 Frequencies --    862.3296               872.9272               882.9159
 Red. masses --      3.0248                 2.3778                 2.8053
 Frc consts  --      1.3252                 1.0675                 1.2885
 IR Inten    --      1.0013                 0.6004                 0.4499

                     28                     29                     30
                      A                      A                      A
 Frequencies --    898.5386               909.8525               927.1121
 Red. masses --      2.3664                 2.2040                 1.4855
 Frc consts  --      1.1257                 1.0750                 0.7523
 IR Inten    --      1.0328                 1.6941                 3.1796

                     31                     32                     33
                      A                      A                      A
 Frequencies --    939.9748               954.5645               954.8732
 Red. masses --      2.2528                 2.2244                 2.1097
 Frc consts  --      1.1727                 1.1942                 1.1333
 IR Inten    --      0.2180                 0.2904                 1.3330

                     34                     35                     36
                      A                      A                      A
 Frequencies --    976.6344               988.9486              1017.9387
 Red. masses --      1.8657                 2.6784                 2.4824
 Frc consts  --      1.0485                 1.5434                 1.5155
 IR Inten    --      0.2508                 1.1940                 0.1452

                     37                     38                     39
                      A                      A                      A
 Frequencies --   1028.3506              1044.2159              1068.3651
 Red. masses --      2.0970                 1.9672                 1.5848
 Frc consts  --      1.3066                 1.2638                 1.0658
 IR Inten    --      0.4779                 0.7446                 0.8112

                     40                     41                     42
                      A                      A                      A
 Frequencies --   1084.9037              1091.0717              1106.9572
 Red. masses --      1.3401                 1.4128                 1.5163
 Frc consts  --      0.9293                 0.9909                 1.0947
 IR Inten    --      1.4233                 0.6174                 0.0754

                     43                     44                     45
                      A                      A                      A
 Frequencies --   1111.8964              1120.8717              1129.4205
 Red. masses --      1.5332                 1.3633                 1.3519
 Frc consts  --      1.1168                 1.0091                 1.0160
 IR Inten    --      1.6020                 0.2721                 1.7287

                     46                     47                     48
                      A                      A                      A
 Frequencies --   1146.3073              1171.2438              1176.4603
 Red. masses --      1.8273                 1.3516                 1.5733
 Frc consts  --      1.4147                 1.0925                 1.2830
 IR Inten    --      0.6861                 3.8794                 0.5595

                     49                     50                     51
                      A                      A                      A
 Frequencies --   1187.9949              1200.6997              1222.7358
 Red. masses --      1.7981                 1.8134                 1.6429
 Frc consts  --      1.4952                 1.5403                 1.4472
 IR Inten    --      0.2857                 0.0528                 0.0684

                     52                     53                     54
                      A                      A                      A
 Frequencies --   1239.7675              1251.6360              1261.7888
 Red. masses --      1.4615                 1.4515                 1.3350
 Frc consts  --      1.3235                 1.3398                 1.2523
 IR Inten    --      0.1331                 0.8698                 0.3048

                     55                     56                     57
                      A                      A                      A
 Frequencies --   1273.1667              1293.1355              1305.8181
 Red. masses --      1.7290                 1.6034                 1.4039
 Frc consts  --      1.6513                 1.5797                 1.4105
 IR Inten    --      2.8048                 1.5462                 0.0607

                     58                     59                     60
                      A                      A                      A
 Frequencies --   1317.1836              1324.3814              1333.4205
 Red. masses --      1.5402                 1.4773                 1.3809
 Frc consts  --      1.5745                 1.5267                 1.4466
 IR Inten    --      0.4887                 0.0326                 1.2953

                     61                     62                     63
                      A                      A                      A
 Frequencies --   1342.5252              1350.1781              1360.4028
 Red. masses --      1.5005                 1.6250                 1.6589
 Frc consts  --      1.5934                 1.7454                 1.8089
 IR Inten    --      0.3001                 4.5199                 0.3638

                     64                     65                     66
                      A                      A                      A
 Frequencies --   1414.6726              1421.2222              1442.2623
 Red. masses --      1.2027                 1.2476                 1.2216
 Frc consts  --      1.4181                 1.4847                 1.4971
 IR Inten    --      1.8961                 1.3128                 1.1124

                     67                     68                     69
                      A                      A                      A
 Frequencies --   1446.9851              1465.3612              1479.9390
 Red. masses --      1.2211                 1.2059                 1.2079
 Frc consts  --      1.5063                 1.5256                 1.5588
 IR Inten    --      2.7045                 4.1738                 1.2906

                     70                     71                     72
                      A                      A                      A
 Frequencies --   1520.2276              1526.0072              1538.3439
 Red. masses --      1.0459                 1.0823                 1.0486
 Frc consts  --      1.4241                 1.4850                 1.4620
 IR Inten    --     12.3358                 0.6823                 0.9630

                     73                     74                     75
                      A                      A                      A
 Frequencies --   1550.0027              1554.5287              1564.3559
 Red. masses --      1.0919                 1.0517                 1.0441
 Frc consts  --      1.5456                 1.4975                 1.5054
 IR Inten    --      2.9326                 5.3891                 0.0650

                     76                     77                     78
                      A                      A                      A
 Frequencies --   1644.4369              3015.3669              3047.6506
 Red. masses --      5.6482                 1.0830                 1.0561
 Frc consts  --      8.9990                 5.8017                 5.7792
 IR Inten    --      1.8359                28.6619                23.1075

                     79                     80                     81
                      A                      A                      A
 Frequencies --   3050.8597              3059.6386              3065.4664
 Red. masses --      1.0499                 1.0611                 1.0826
 Frc consts  --      5.7576                 5.8526                 5.9940
 IR Inten    --     44.0956                18.7717                19.5953

                     82                     83                     84
                      A                      A                      A
 Frequencies --   3066.1235              3068.3133              3076.8003
 Red. masses --      1.0787                 1.0660                 1.0861
 Frc consts  --      5.9750                 5.9128                 6.0578
 IR Inten    --     34.2517                64.4999                38.8803

                     85                     86                     87
                      A                      A                      A
 Frequencies --   3092.1272              3098.8173              3104.0912
 Red. masses --      1.0909                 1.0999                 1.0916
 Frc consts  --      6.1453                 6.2228                 6.1970
 IR Inten    --     44.8750                21.0961                 8.8771

                     88                     89                     90
                      A                      A                      A
 Frequencies --   3104.8346              3108.5127              3110.1261
 Red. masses --      1.0905                 1.0879                 1.0931
 Frc consts  --      6.1937                 6.1938                 6.2295
 IR Inten    --     36.2017                80.0148                22.1738

                     91                     92                     93
                      A                      A                      A
 Frequencies --   3116.7957              3119.1392              3188.7908
 Red. masses --      1.1050                 1.0887                 1.0942
 Frc consts  --      6.3245                 6.2407                 6.5556
 IR Inten    --     69.7051                39.2764                17.1515

                     94                     95                     96
                      A                      A                      A
 Frequencies --   3199.1740              3206.0939              3224.1795
 Red. masses --      1.0859                 1.0930                 1.1052
 Frc consts  --      6.5483                 6.6196                 6.7692
 IR Inten    --     10.5709                22.2116                27.9574

 - Thermochemistry -
 -------------------
 Temperature   298.150 Kelvin.  Pressure   1.00000 Atm.
 Atom     1 has atomic number  6 and mass  12.00000

 Molecular mass:   188.15650 amu.
 Principal axes and moments of inertia in atomic units:
                           1         2         3
     Eigenvalues --  1592.749942536.912193037.82973
           X            0.99988  -0.01504  -0.00390
           Y            0.01502   0.99988  -0.00289
           Z            0.00395   0.00283   0.99999
 This molecule is an asymmetric top.
 Rotational symmetry number  1.
 Warning -- assumption of classical behavior for rotation
           may cause significant error
 Rotational temperatures (Kelvin)      0.05438     0.03414     0.02851
 Rotational constants (GHZ):           1.13310     0.71139     0.59409
 Zero-point vibrational energy     821262.7 (Joules/Mol)
                                  196.28650 (Kcal/Mol)
 Warning -- explicit consideration of  16 degrees of freedom as
           vibrations may cause significant error
 Vibrational temperatures:    149.84   286.97   299.76   392.34   404.39
          (Kelvin)            417.04   449.98   497.75   518.96   593.17
                              598.43   624.56   682.53   779.28   810.78
                              842.12   959.79  1007.58  1033.26  1079.15
                             1110.50  1141.21  1191.01  1224.62  1240.70
                             1255.95  1270.32  1292.80  1309.07  1333.91
                             1352.41  1373.41  1373.85  1405.16  1422.88
                             1464.59  1479.57  1502.39  1537.14  1560.93
                             1569.81  1592.66  1599.77  1612.68  1624.98
                             1649.28  1685.16  1692.66  1709.26  1727.54
                             1759.24  1783.75  1800.83  1815.43  1831.80
                             1860.53  1878.78  1895.13  1905.49  1918.49
                             1931.59  1942.61  1957.32  2035.40  2044.82
                             2075.09  2081.89  2108.33  2129.30  2187.27
                             2195.58  2213.33  2230.11  2236.62  2250.76
                             2365.98  4338.44  4384.89  4389.51  4402.14
                             4410.52  4411.47  4414.62  4426.83  4448.88
                             4458.51  4466.09  4467.16  4472.46  4474.78
                             4484.37  4487.75  4587.96  4602.90  4612.85
                             4638.88

 Zero-point correction=                           0.312802 (Hartree/Particle)
 Thermal correction to Energy=                    0.323449
 Thermal correction to Enthalpy=                  0.324393
 Thermal correction to Gibbs Free Energy=         0.277795
 Sum of electronic and zero-point Energies=           -545.206515
 Sum of electronic and thermal Energies=              -545.195869
 Sum of electronic and thermal Enthalpies=            -545.194925
 Sum of electronic and thermal Free Energies=         -545.241522

                     E (Thermal)             CV                S
                      KCal/Mol        Cal/Mol-Kelvin    Cal/Mol-Kelvin
 Total                  202.967             48.386             98.072
 Electronic               0.000              0.000              0.000
 Translational            0.889              2.981             41.602
 Rotational               0.889              2.981             30.885
 Vibrational            201.190             42.425             25.585
 Vibration     1          0.605              1.946              3.375
 Vibration     2          0.638              1.841              2.138
 Vibration     3          0.642              1.828              2.058
 Vibration     4          0.676              1.724              1.579
 Vibration     5          0.681              1.709              1.527
 Vibration     6          0.686              1.693              1.475
 Vibration     7          0.701              1.649              1.348
 Vibration     8          0.724              1.583              1.185
 Vibration     9          0.735              1.553              1.119
 Vibration    10          0.776              1.444              0.919
 Vibration    11          0.779              1.436              0.906
 Vibration    12          0.795              1.396              0.845
 Vibration    13          0.831              1.307              0.725
 Vibration    14          0.897              1.158              0.562
 Vibration    15          0.919              1.110              0.517
 Vibration    16          0.942              1.063              0.476

 Optimization completed.
    -- Stationary point found.
 Normal termination of Gaussian 16 at Thu Dec 10 09:33:11 2020.

 ----------------------------------------------------------------------
 # B3LYP/6-311++G(d,p) empiricaldispersion=gd3bj scf=xqc pop=npa geom=c
 heck
 ----------------------------------------------------------------------

 --------------------------------------
 CID_53763053_JID_4222_Energie_neutraal
 --------------------------------------
 Structure from the checkpoint file:  "JID_4222.chk"
 Charge =  0 Multiplicity = 1

 SCF Done:  E(RB3LYP) =  -545.657700666     A.U. after   14 cycles
 Normal termination of Gaussian 16 at Thu Dec 10 09:38:38 2020.

 ----------------------------------------------------------------------
 # B3LYP/6-311++G(d,p) empiricaldispersion=gd3bj scf=xqc pop=npa geom=c
 heck
 ----------------------------------------------------------------------

 ------------------------------------
 CID_53763053_JID_4222_Energie_kation
 ------------------------------------
 Structure from the checkpoint file:  "JID_4222.chk"
 Charge =  1 Multiplicity = 2

 SCF Done:  E(UB3LYP) =  -545.347972171     A.U. after   25 cycles
 Normal termination of Gaussian 16 at Thu Dec 10 09:52:21 2020.
 Gaussian 16:  ES64L-G16RevA.03 25-Dec-2016

 ----------------------------------------------------------------------
 # B3LYP/6-311++G(d,p) empiricaldispersion=gd3bj scf=xqc pop=npa geom=c
 heck
 ----------------------------------------------------------------------

 -----------------------------------
 CID_53763053_JID_4222_Energie_anion
 -----------------------------------
 Structure from the checkpoint file:  "JID_4222.chk"
 Charge = -1 Multiplicity = 2

                         Standard orientation:
 ---------------------------------------------------------------------
 Center     Atomic      Atomic             Coordinates (Angstroms)
 Number     Number       Type             X           Y           Z
 ---------------------------------------------------------------------
      1          6           0        1.204671    2.244547   -0.705413
      2          6           0        1.676815    0.903605   -0.142767
      3          6           0        1.190031    0.094879    1.129288
      4          6           0        2.321184   -0.971086    1.091867
      5          6           0        2.376033   -1.342972   -0.433871
      6          6           0        1.447017   -0.279845   -1.087648
      7          6           0        0.003984   -0.748546   -0.800983
      8          6           0       -0.074860   -0.762662    0.755436
      9          6           0       -1.561208   -0.372052    1.064207
     10          6           0       -2.404465   -1.419172    0.338423
     11          6           0       -2.322897   -1.152718   -0.973984
     12          6           0       -1.347277    0.020723   -1.145488
     13          6           0       -1.826467    0.827608    0.134308
     14          6           0       -1.370604    2.176827    0.686290
     15          1           0        1.902925    2.515385   -1.507682
     16          1           0        1.231471    3.054625    0.029615
     17          1           0        0.211671    2.210781   -1.149769
     18          1           0        2.755625    1.045154    0.008799
     19          1           0        1.129610    0.645063    2.072289
     20          1           0        3.273027   -0.544797    1.426296
     21          1           0        2.105396   -1.833696    1.729333
     22          1           0        2.032294   -2.365672   -0.623055
     23          1           0        3.394887   -1.262396   -0.826165
     24          1           0        1.660829   -0.093544   -2.144848
     25          1           0       -0.089782   -1.750033   -1.230066
     26          1           0        0.078185   -1.764684    1.166369
     27          1           0       -1.780441   -0.225386    2.125498
     28          1           0       -2.904409   -2.258112    0.811404
     29          1           0       -2.719086   -1.741962   -1.795153
     30          1           0       -1.377200    0.533744   -2.109604
     31          1           0       -2.907454    0.933721   -0.001090
     32          1           0       -1.438336    2.982881   -0.050619
     33          1           0       -2.061500    2.429181    1.500967
     34          1           0       -0.369444    2.174922    1.109491
 ---------------------------------------------------------------------

 SCF Done:  E(UB3LYP) =  -545.639782385     A.U. after   33 cycles
 SCF Done:  E(UB3LYP) =  -545.639782385     a.u. after    1 cycles

 The electronic state is 2-A.
 Alpha  occ. eigenvalues --  -10.08069 -10.07343 -10.07209 -10.07154 -10.06730
 Alpha  occ. eigenvalues --  -10.06680 -10.06607 -10.06573 -10.06379 -10.06289
 Alpha  occ. eigenvalues --  -10.06186 -10.06125 -10.05481 -10.05242  -0.79231
 Alpha  occ. eigenvalues --   -0.75240  -0.65179  -0.64269  -0.62964  -0.62306
 Alpha  occ. eigenvalues --   -0.58915  -0.55302  -0.54388  -0.47553  -0.45626
 Alpha  occ. eigenvalues --   -0.43674  -0.43153  -0.41809  -0.39988  -0.38912
 Alpha  occ. eigenvalues --   -0.37679  -0.35204  -0.32625  -0.32460  -0.30769
 Alpha  occ. eigenvalues --   -0.29854  -0.28718  -0.28178  -0.27852  -0.25771
 Alpha  occ. eigenvalues --   -0.25125  -0.24447  -0.24248  -0.23637  -0.23089
 Alpha  occ. eigenvalues --   -0.21958  -0.21009  -0.20522  -0.19845  -0.18267
 Alpha  occ. eigenvalues --   -0.18083  -0.13932   0.04598
 Alpha virt. eigenvalues --    0.06620   0.07096   0.07201   0.08650   0.08691
 Alpha virt. eigenvalues --    0.08945   0.09190   0.09444   0.10219   0.11028
 Alpha virt. eigenvalues --    0.11314   0.11771   0.12016   0.12463   0.12557

  Beta  occ. eigenvalues --  -10.08059 -10.07334 -10.07200 -10.07149 -10.06724
  Beta  occ. eigenvalues --  -10.06676 -10.06597 -10.06563 -10.06370 -10.06280
  Beta  occ. eigenvalues --  -10.06170 -10.06110 -10.05464 -10.05221  -0.79212
  Beta  occ. eigenvalues --   -0.75216  -0.65155  -0.64243  -0.62939  -0.62279
  Beta  occ. eigenvalues --   -0.58890  -0.55262  -0.54345  -0.47516  -0.45595
  Beta  occ. eigenvalues --   -0.43641  -0.43117  -0.41776  -0.39950  -0.38876
  Beta  occ. eigenvalues --   -0.37631  -0.35171  -0.32598  -0.32435  -0.30742
  Beta  occ. eigenvalues --   -0.29833  -0.28695  -0.28155  -0.27829  -0.25742
  Beta  occ. eigenvalues --   -0.25101  -0.24422  -0.24214  -0.23616  -0.23057
  Beta  occ. eigenvalues --   -0.21937  -0.20985  -0.20500  -0.19821  -0.18244
  Beta  occ. eigenvalues --   -0.18061  -0.13916
  Beta virt. eigenvalues --    0.06693   0.07517   0.07680   0.08006   0.09187
  Beta virt. eigenvalues --    0.09268   0.09387   0.09641   0.09904   0.10396
  Beta virt. eigenvalues --    0.11458   0.11807   0.12212   0.12455   0.12842

 Mulliken charges and spin densities:
               1          2
     1  C    1.134523  -1.808788
     2  C    0.983884  -1.182778
     3  C   -1.458334   1.729725
     4  C   -0.236671  -0.357103
     5  C    0.135706  -0.674468
     6  C   -1.302053   1.628283
     7  C    0.427817  -0.693740
     8  C    0.794421  -1.004525
     9  C    0.327406  -0.172419
    10  C    0.281099  -0.720700
    11  C   -0.462381  -0.107086
    12  C    0.333844  -0.196745
    13  C   -0.556220   0.211019
    14  C    0.986843  -1.603598
    15  H   -0.237609   0.379336
    16  H   -0.208768   0.356861
    17  H    0.321904  -0.189090
    18  H    0.029803   0.167177
    19  H   -0.374089   0.606355
    20  H   -0.214802   0.379792
    21  H   -0.137224   0.267806
    22  H   -0.064901   0.193801
    23  H   -0.327588   0.494993
    24  H   -0.383693   0.623157
    25  H    0.082778   0.153909
    26  H    0.195195   0.039980
    27  H   -0.120308   0.363628
    28  H   -0.553443   0.700848
    29  H   -0.514098   0.657150
    30  H   -0.112530   0.357405
    31  H   -0.008531   0.205396
    32  H   -0.111426   0.261992
    33  H   -0.098219   0.238115
    34  H    0.447664  -0.305687
 Sum of Mulliken charges =  -1.00000   1.00000

 Dipole moment (field-independent basis, Debye):
    X=             -0.9155    Y=              0.3248    Z=              0.5341  Tot=              1.1086
 Quadrupole moment (field-independent basis, Debye-Ang):
   XX=           -151.8044   YY=           -133.1857   ZZ=           -131.6037
   XY=             -6.0481   XZ=              1.6964   YZ=             -0.0697

 Summary of Natural Population Analysis:

                                       Natural Population
                Natural  -----------------------------------------------
    Atom  No    Charge         Core      Valence    Rydberg      Total
 -----------------------------------------------------------------------
      C    1   -0.28280      0.99963     2.27688    0.00630     3.28280
      C    2   -0.11168      0.99956     2.09932    0.01280     3.11168
      C    3   -0.10620      0.99958     2.09493    0.01169     3.10620
      C    4   -0.18569      0.99963     2.17723    0.00883     3.18569
      C    5   -0.18861      0.99963     2.18042    0.00855     3.18861
      C    6   -0.10688      0.99955     2.09472    0.01261     3.10688
      C    7   -0.10315      0.99956     2.09118    0.01241     3.10315
      C    8   -0.10636      0.99956     2.09455    0.01225     3.10636
      C    9   -0.12092      0.99956     2.10840    0.01296     3.12092
      C   10   -0.09443      0.99951     2.08364    0.01128     3.09443
      C   11   -0.08955      0.99952     2.07818    0.01185     3.08955
      C   12   -0.11972      0.99958     2.10756    0.01259     3.11972
      C   13   -0.10282      0.99958     2.09111    0.01213     3.10282
      C   14   -0.28617      0.99962     2.28073    0.00582     3.28617
      H   15    0.10024      0.00000     0.39869    0.00107     0.39976
      H   16    0.09882      0.00000     0.40030    0.00088     0.40118
      H   17    0.09866      0.00000     0.39954    0.00180     0.40134
      H   18    0.09495      0.00000     0.40292    0.00213     0.40505
      H   19    0.10400      0.00000     0.39487    0.00113     0.39600
      H   20    0.09820      0.00000     0.40043    0.00137     0.40180
      H   21    0.09665      0.00000     0.40222    0.00113     0.40335
      H   22    0.09642      0.00000     0.40241    0.00118     0.40358
      H   23    0.10109      0.00000     0.39767    0.00124     0.39891
      H   24    0.10377      0.00000     0.39494    0.00129     0.39623
      H   25    0.10105      0.00000     0.39730    0.00166     0.39895
      H   26    0.09999      0.00000     0.39842    0.00158     0.40001
      H   27    0.10404      0.00000     0.39456    0.00140     0.39596
      H   28    0.10138      0.00000     0.39750    0.00112     0.39862
      H   29    0.10206      0.00000     0.39684    0.00110     0.39794
      H   30    0.10547      0.00000     0.39343    0.00110     0.39453
      H   31    0.09812      0.00000     0.40015    0.00174     0.40188
      H   32    0.09964      0.00000     0.39951    0.00085     0.40036
      H   33    0.09906      0.00000     0.39997    0.00097     0.40094
      H   34    0.10137      0.00000     0.39686    0.00177     0.39863
 =======================================================================
   * Total *    0.00000     13.99407    37.82735    0.17858    52.00000

 Normal termination of Gaussian 16 at Thu Dec 10 10:11:03 2020.
