 Gaussian 16, Revision A.03,

 -----------------------------------------------------------
 # opt freq B3LYP/6-31G(d) empiricaldispersion=gd3bj scf=xqc
 -----------------------------------------------------------

 -------------------------------
 CID_103705697_JID_3507_neutraal
 -------------------------------
 Symbolic Z-matrix:
 Charge =  0 Multiplicity = 1

 SCF Done:  E(RB3LYP) =  -941.800896481     A.U. after   14 cycles
 SCF Done:  E(RB3LYP) =  -941.795072156     A.U. after   15 cycles
 SCF Done:  E(RB3LYP) =  -941.804145491     A.U. after   12 cycles
 SCF Done:  E(RB3LYP) =  -941.791625845     A.U. after   14 cycles
 SCF Done:  E(RB3LYP) =  -941.806591485     A.U. after   12 cycles
 SCF Done:  E(RB3LYP) =  -941.806786100     A.U. after   11 cycles
 SCF Done:  E(RB3LYP) =  -941.807139833     A.U. after   11 cycles
 SCF Done:  E(RB3LYP) =  -941.807041812     A.U. after   12 cycles
 SCF Done:  E(RB3LYP) =  -941.807581744     A.U. after   12 cycles
 SCF Done:  E(RB3LYP) =  -941.807243222     A.U. after   12 cycles
 SCF Done:  E(RB3LYP) =  -941.807717482     A.U. after   11 cycles
 SCF Done:  E(RB3LYP) =  -941.807726138     A.U. after   10 cycles
 SCF Done:  E(RB3LYP) =  -941.807726669     A.U. after    8 cycles
 SCF Done:  E(RB3LYP) =  -941.807727006     A.U. after    8 cycles
 SCF Done:  E(RB3LYP) =  -941.807727024     A.U. after    7 cycles
 Optimization completed.
    -- Stationary point found.
 Normal termination of Gaussian 16 at Sun Dec 13 16:00:30 2020.

 --------------------------------------------------------------------
 #N Geom=AllCheck Guess=TCheck SCRF=Check GenChk RB3LYP/6-31G(d) Freq
 --------------------------------------------------------------------

 Structure from the checkpoint file:  "JID_3507.chk"
 -------------------------------
 CID_103705697_JID_3507_neutraal
 -------------------------------
 Charge =  0 Multiplicity = 1

 SCF Done:  E(RB3LYP) =  -941.807727024     A.U. after    1 cycles

  Exact polarizability: 156.489   1.697 117.169  -5.511  -2.216 110.941
 Approx polarizability: 196.045   3.480 189.137 -11.693  -3.406 166.731

                      1                      2                      3
                      A                      A                      A
 Frequencies --     29.1385                38.2105                70.0793
 Red. masses --      3.7516                 3.0686                 3.8022
 Frc consts  --      0.0019                 0.0026                 0.0110
 IR Inten    --      1.4180                 0.0838                 1.8500

                      4                      5                      6
                      A                      A                      A
 Frequencies --    127.3519               144.5101               160.8707
 Red. masses --      4.0787                 4.6750                 3.9970
 Frc consts  --      0.0390                 0.0575                 0.0609
 IR Inten    --      5.1177                 4.7788                 2.2295

                      7                      8                      9
                      A                      A                      A
 Frequencies --    183.9036               206.2104               210.8438
 Red. masses --      3.6136                 1.2263                 1.2766
 Frc consts  --      0.0720                 0.0307                 0.0334
 IR Inten    --      1.0354                 0.4971                 0.9425

                     10                     11                     12
                      A                      A                      A
 Frequencies --    221.5803               249.9079               263.9491
 Red. masses --      2.2803                 1.8362                 1.2459
 Frc consts  --      0.0660                 0.0676                 0.0511
 IR Inten    --      1.7397                 0.1980                 0.5427

                     13                     14                     15
                      A                      A                      A
 Frequencies --    267.5308               283.4940               297.2047
 Red. masses --      1.2697                 1.3748                 2.5519
 Frc consts  --      0.0535                 0.0651                 0.1328
 IR Inten    --      0.1264                 1.1655                 8.8023

                     16                     17                     18
                      A                      A                      A
 Frequencies --    306.4775               334.3809               363.5300
 Red. masses --      2.4948                 2.4195                 2.5693
 Frc consts  --      0.1381                 0.1594                 0.2001
 IR Inten    --      5.6226                 0.7325                15.6245

                     19                     20                     21
                      A                      A                      A
 Frequencies --    371.3391               381.1177               388.8977
 Red. masses --      2.6133                 2.3743                 3.4167
 Frc consts  --      0.2123                 0.2032                 0.3045
 IR Inten    --      0.9193                 0.2553                 0.0652

                     22                     23                     24
                      A                      A                      A
 Frequencies --    462.2562               472.6335               563.0696
 Red. masses --      2.7566                 2.9204                 4.0940
 Frc consts  --      0.3471                 0.3844                 0.7648
 IR Inten    --      8.6485                27.6030                11.5760

                     25                     26                     27
                      A                      A                      A
 Frequencies --    600.0578               620.3777               633.9547
 Red. masses --      1.1287                 3.7249                 2.3377
 Frc consts  --      0.2394                 0.8446                 0.5535
 IR Inten    --    175.8189                 6.2955                18.2939

                     28                     29                     30
                      A                      A                      A
 Frequencies --    661.5728               710.6772               794.8826
 Red. masses --      3.3521                 3.9165                 4.5126
 Frc consts  --      0.8644                 1.1654                 1.6799
 IR Inten    --      9.9135                 2.3696                 0.7390

                     31                     32                     33
                      A                      A                      A
 Frequencies --    810.0435               850.4038               926.0502
 Red. masses --      3.1832                 2.4304                 2.0369
 Frc consts  --      1.2307                 1.0356                 1.0292
 IR Inten    --      4.2271                 4.1545                 0.4235

                     34                     35                     36
                      A                      A                      A
 Frequencies --    931.7402               949.9446               959.9845
 Red. masses --      1.9803                 1.7878                 1.6023
 Frc consts  --      1.0129                 0.9505                 0.8700
 IR Inten    --      5.4183                 1.1940                 1.3686

                     37                     38                     39
                      A                      A                      A
 Frequencies --    979.9340               991.0593              1019.0472
 Red. masses --      1.1994                 1.7119                 1.5645
 Frc consts  --      0.6786                 0.9907                 0.9572
 IR Inten    --      0.0096                 3.6079                31.2773

                     40                     41                     42
                      A                      A                      A
 Frequencies --   1039.2012              1054.9189              1088.6694
 Red. masses --      1.5605                 1.4605                 1.4021
 Frc consts  --      0.9929                 0.9576                 0.9791
 IR Inten    --     38.1921                 5.7171                20.1073

                     43                     44                     45
                      A                      A                      A
 Frequencies --   1093.4353              1115.3900              1140.9524
 Red. masses --      2.0688                 2.1839                 2.0183
 Frc consts  --      1.4573                 1.6008                 1.5480
 IR Inten    --     64.6671                24.1481                10.6775

                     46                     47                     48
                      A                      A                      A
 Frequencies --   1196.6569              1232.2757              1233.0908
 Red. masses --      2.3513                 1.4704                 2.2537
 Frc consts  --      1.9838                 1.3155                 2.0190
 IR Inten    --     28.1810                28.7831                10.1196

                     49                     50                     51
                      A                      A                      A
 Frequencies --   1259.6759              1275.3122              1286.9562
 Red. masses --      2.2987                 1.3727                 1.3127
 Frc consts  --      2.1490                 1.3154                 1.2810
 IR Inten    --      5.6151                 0.7077                 4.8235

                     52                     53                     54
                      A                      A                      A
 Frequencies --   1321.3640              1326.7093              1370.4558
 Red. masses --      1.2899                 2.5503                 1.2594
 Frc consts  --      1.3270                 2.6448                 1.3936
 IR Inten    --      7.2241                25.6243                 0.1625

                     55                     56                     57
                      A                      A                      A
 Frequencies --   1395.9181              1425.6795              1430.1880
 Red. masses --      1.3789                 1.2050                 1.2628
 Frc consts  --      1.5831                 1.4431                 1.5218
 IR Inten    --      5.6284                 5.1149                 4.9882

                     58                     59                     60
                      A                      A                      A
 Frequencies --   1431.7859              1444.3422              1455.1259
 Red. masses --      1.2289                 1.2192                 1.1643
 Frc consts  --      1.4843                 1.4986                 1.4525
 IR Inten    --      6.3166                10.7243                34.9096

                     61                     62                     63
                      A                      A                      A
 Frequencies --   1460.3170              1488.4867              1509.8513
 Red. masses --      1.2129                 1.1079                 1.0498
 Frc consts  --      1.5240                 1.4462                 1.4100
 IR Inten    --     10.2457                 9.2992                 0.7142

                     64                     65                     66
                      A                      A                      A
 Frequencies --   1512.0743              1515.7242              1516.4689
 Red. masses --      1.0457                 1.0452                 1.0556
 Frc consts  --      1.4086                 1.4148                 1.4303
 IR Inten    --      1.6368                 0.1665                 2.7801

                     67                     68                     69
                      A                      A                      A
 Frequencies --   1522.7295              1531.4103              1535.3710
 Red. masses --      1.0506                 1.0498                 1.0528
 Frc consts  --      1.4353                 1.4506                 1.4622
 IR Inten    --     17.0725                 5.1350                12.5107

                     70                     71                     72
                      A                      A                      A
 Frequencies --   1537.9808              1542.0636              1547.5068
 Red. masses --      1.0500                 1.0458                 1.0678
 Frc consts  --      1.4633                 1.4653                 1.5066
 IR Inten    --      1.9500                 8.2855                26.5416

                     73                     74                     75
                      A                      A                      A
 Frequencies --   1757.2632              3044.3720              3050.1133
 Red. masses --     10.5855                 1.0801                 1.0449
 Frc consts  --     19.2591                 5.8981                 5.7276
 IR Inten    --    139.2686                 2.0323                17.7311

                     76                     77                     78
                      A                      A                      A
 Frequencies --   3050.7947              3056.0233              3056.5849
 Red. masses --      1.0341                 1.0799                 1.0371
 Frc consts  --      5.6705                 5.9421                 5.7086
 IR Inten    --     20.1895                31.1654                18.4234

                     79                     80                     81
                      A                      A                      A
 Frequencies --   3063.3851              3069.6797              3109.2101
 Red. masses --      1.0369                 1.0418                 1.0622
 Frc consts  --      5.7333                 5.7837                 6.0502
 IR Inten    --     21.2095                28.6226                18.4385

                     82                     83                     84
                      A                      A                      A
 Frequencies --   3120.3557              3121.0558              3123.5519
 Red. masses --      1.1018                 1.0996                 1.1007
 Frc consts  --      6.3204                 6.3109                 6.3275
 IR Inten    --      4.0223                28.2948                 9.4026

                     85                     86                     87
                      A                      A                      A
 Frequencies --   3126.3028              3128.8238              3129.8225
 Red. masses --      1.1017                 1.1009                 1.1004
 Frc consts  --      6.3440                 6.3496                 6.3512
 IR Inten    --     23.5737                67.0773                20.8170

                     88                     89                     90
                      A                      A                      A
 Frequencies --   3138.6914              3141.9419              3147.9244
 Red. masses --      1.1024                 1.1022                 1.1014
 Frc consts  --      6.3987                 6.4107                 6.4306
 IR Inten    --     20.9299                22.0909                19.5895

                     91                     92                     93
                      A                      A                      A
 Frequencies --   3173.8533              3180.5989              3605.2567
 Red. masses --      1.0989                 1.1068                 1.0678
 Frc consts  --      6.5221                 6.5969                 8.1770
 IR Inten    --      5.4738                 1.9967               278.7936

 - Thermochemistry -
 -------------------
 Temperature   298.150 Kelvin.  Pressure   1.00000 Atm.
 Atom     1 has atomic number  6 and mass  12.00000

 Molecular mass:   204.11840 amu.
 Principal axes and moments of inertia in atomic units:
                           1         2         3
     Eigenvalues --  1449.045344412.632074661.53044
           X            0.99994   0.00685  -0.00820
           Y           -0.00719   0.99909  -0.04211
           Z            0.00790   0.04217   0.99908
 This molecule is an asymmetric top.
 Rotational symmetry number  1.
 Warning -- assumption of classical behavior for rotation
           may cause significant error
 Rotational temperatures (Kelvin)      0.05977     0.01963     0.01858
 Rotational constants (GHZ):           1.24547     0.40899     0.38716
 Zero-point vibrational energy     766040.1 (Joules/Mol)
                                  183.08799 (Kcal/Mol)
 Warning -- explicit consideration of  26 degrees of freedom as
           vibrations may cause significant error
 Vibrational temperatures:     41.92    54.98   100.83   183.23   207.92
          (Kelvin)            231.46   264.60   296.69   303.36   318.80
                              359.56   379.76   384.92   407.88   427.61
                              440.95   481.10   523.04   534.27   548.34
                              559.54   665.08   680.01   810.13   863.35
                              892.59   912.12   951.86  1022.51  1143.66
                             1165.47  1223.54  1332.38  1340.57  1366.76
                             1381.20  1409.91  1425.91  1466.18  1495.18
                             1517.79  1566.35  1573.21  1604.80  1641.58
                             1721.72  1772.97  1774.14  1812.39  1834.89
                             1851.64  1901.15  1908.84  1971.78  2008.41
                             2051.23  2057.72  2060.02  2078.09  2093.60
                             2101.07  2141.60  2172.34  2175.54  2180.79
                             2181.86  2190.87  2203.36  2209.06  2212.81
                             2218.69  2226.52  2528.31  4380.17  4388.43
                             4389.41  4396.94  4397.74  4407.53  4416.58
                             4473.46  4489.50  4490.50  4494.09  4498.05
                             4501.68  4503.12  4515.88  4520.55  4529.16
                             4566.47  4576.17  5187.16

 Zero-point correction=                           0.291769 (Hartree/Particle)
 Thermal correction to Energy=                    0.307962
 Thermal correction to Enthalpy=                  0.308907
 Thermal correction to Gibbs Free Energy=         0.248785
 Sum of electronic and zero-point Energies=           -941.515958
 Sum of electronic and thermal Energies=              -941.499765
 Sum of electronic and thermal Enthalpies=            -941.498820
 Sum of electronic and thermal Free Energies=         -941.558942

                     E (Thermal)             CV                S
                      KCal/Mol        Cal/Mol-Kelvin    Cal/Mol-Kelvin
 Total                  193.249             60.803            126.537
 Electronic               0.000              0.000              0.000
 Translational            0.889              2.981             41.845
 Rotational               0.889              2.981             31.767
 Vibrational            191.472             54.842             52.925
 Vibration     1          0.593              1.984              5.887
 Vibration     2          0.594              1.982              5.350
 Vibration     3          0.598              1.968              4.151
 Vibration     4          0.611              1.926              2.986
 Vibration     5          0.616              1.909              2.743
 Vibration     6          0.622              1.890              2.540
 Vibration     7          0.631              1.862              2.288
 Vibration     8          0.641              1.831              2.077
 Vibration     9          0.643              1.824              2.036
 Vibration    10          0.648              1.808              1.946
 Vibration    11          0.663              1.763              1.731
 Vibration    12          0.671              1.739              1.636
 Vibration    13          0.673              1.733              1.612
 Vibration    14          0.682              1.704              1.512
 Vibration    15          0.691              1.679              1.433
 Vibration    16          0.697              1.661              1.381
 Vibration    17          0.716              1.607              1.239
 Vibration    18          0.737              1.547              1.107
 Vibration    19          0.743              1.531              1.074
 Vibration    20          0.751              1.510              1.035
 Vibration    21          0.757              1.494              1.004
 Vibration    22          0.820              1.334              0.760
 Vibration    23          0.829              1.311              0.730
 Vibration    24          0.919              1.111              0.518
 Vibration    25          0.958              1.032              0.450
 Vibration    26          0.980              0.989              0.416

                           ! Non-Optimized Parameters !
 Normal termination of Gaussian 16 at Sun Dec 13 16:09:10 2020.

 ----------------------------------------------------------------------
 # B3LYP/6-311++G(d,p) empiricaldispersion=gd3bj scf=xqc pop=npa geom=c
 heck
 ----------------------------------------------------------------------

 ---------------------------------------
 CID_103705697_JID_3507_Energie_neutraal
 ---------------------------------------
 Structure from the checkpoint file:  "JID_3507.chk"
 Charge =  0 Multiplicity = 1

 SCF Done:  E(RB3LYP) =  -941.999492116     A.U. after   14 cycles
 Normal termination of Gaussian 16 at Sun Dec 13 16:12:47 2020.

 ----------------------------------------------------------------------
 # B3LYP/6-311++G(d,p) empiricaldispersion=gd3bj scf=xqc pop=npa geom=c
 heck
 ----------------------------------------------------------------------

 -------------------------------------
 CID_103705697_JID_3507_Energie_kation
 -------------------------------------
 Structure from the checkpoint file:  "JID_3507.chk"
 Charge =  1 Multiplicity = 2

 SCF Done:  E(UB3LYP) =  -941.699371385     A.U. after   22 cycles
 Normal termination of Gaussian 16 at Sun Dec 13 16:20:37 2020.
 Gaussian 16:  ES64L-G16RevA.03 25-Dec-2016

 ----------------------------------------------------------------------
 # B3LYP/6-311++G(d,p) empiricaldispersion=gd3bj scf=xqc pop=npa geom=c
 heck
 ----------------------------------------------------------------------

 ------------------------------------
 CID_103705697_JID_3507_Energie_anion
 ------------------------------------
 Structure from the checkpoint file:  "JID_3507.chk"
 Charge = -1 Multiplicity = 2

                         Standard orientation:
 ---------------------------------------------------------------------
 Center     Atomic      Atomic             Coordinates (Angstroms)
 Number     Number       Type             X           Y           Z
 ---------------------------------------------------------------------
      1          6           0       -4.027422   -0.797544    0.106200
      2          6           0       -2.784238   -0.140238   -0.504816
      3          6           0       -2.013398    0.697138    0.540953
      4          6           0       -1.601972   -0.049074    1.817159
      5         16           0       -0.641403    1.722009   -0.182567
      6          6           0        0.406867    0.581477   -1.188117
      7          6           0        1.121961   -0.445395   -0.328486
      8          8           0        0.544259   -1.481211   -0.017207
      9          6           0        2.567049   -0.191309    0.110727
     10          6           0        3.454853   -0.371354   -1.144354
     11          6           0        2.741390    1.235737    0.666385
     12          6           0        2.968199   -1.219066    1.177365
     13          8           0       -2.002534   -1.119836   -1.176876
     14          1           0       -3.747276   -1.563924    0.835906
     15          1           0       -4.599075   -1.286467   -0.688040
     16          1           0       -4.675243   -0.063159    0.600621
     17          1           0       -3.111230    0.557903   -1.285019
     18          1           0       -2.697186    1.503395    0.836784
     19          1           0       -0.964987   -0.910304    1.611475
     20          1           0       -1.054006    0.623987    2.482400
     21          1           0       -2.491356   -0.400720    2.351101
     22          1           0       -0.221399    0.071473   -1.917562
     23          1           0        1.105058    1.251885   -1.693080
     24          1           0        3.208424    0.350151   -1.930667
     25          1           0        4.504768   -0.219615   -0.870555
     26          1           0        3.353305   -1.380133   -1.558552
     27          1           0        2.098002    1.406817    1.534084
     28          1           0        3.783477    1.374790    0.975801
     29          1           0        2.510260    2.005112   -0.076097
     30          1           0        2.345036   -1.118171    2.071630
     31          1           0        2.853402   -2.240614    0.806902
     32          1           0        4.013474   -1.065143    1.466422
     33          1           0       -1.284544   -1.443270   -0.597918
 ---------------------------------------------------------------------

 SCF Done:  E(UB3LYP) =  -941.992584447     A.U. after   33 cycles
 SCF Done:  E(UB3LYP) =  -941.992584447     a.u. after    1 cycles

 The electronic state is 2-A.
 Alpha  occ. eigenvalues --  -88.70796 -18.98696 -18.95384 -10.10921 -10.08826
 Alpha  occ. eigenvalues --  -10.08745 -10.06724 -10.06353 -10.05416 -10.05384
 Alpha  occ. eigenvalues --  -10.04528 -10.04299 -10.04201  -7.79427  -5.75827
 Alpha  occ. eigenvalues --   -5.75457  -5.74782  -0.89926  -0.88899  -0.70245
 Alpha  occ. eigenvalues --   -0.69361  -0.64440  -0.61319  -0.57794  -0.57094
 Alpha  occ. eigenvalues --   -0.55177  -0.51449  -0.47698  -0.45273  -0.38761
 Alpha  occ. eigenvalues --   -0.37122  -0.36074  -0.35525  -0.33650  -0.32868
 Alpha  occ. eigenvalues --   -0.32713  -0.31412  -0.29873  -0.29383  -0.28490
 Alpha  occ. eigenvalues --   -0.28073  -0.27801  -0.26852  -0.26337  -0.25665
 Alpha  occ. eigenvalues --   -0.25380  -0.24641  -0.23304  -0.22139  -0.21735
 Alpha  occ. eigenvalues --   -0.20761  -0.19926  -0.17913  -0.14882  -0.12437
 Alpha  occ. eigenvalues --   -0.09061   0.05154
 Alpha virt. eigenvalues --    0.07234   0.07483   0.09104   0.09342   0.09640
 Alpha virt. eigenvalues --    0.09865   0.10464   0.11330   0.11713   0.12240
 Alpha virt. eigenvalues --    0.12351   0.12931   0.13494   0.13814   0.14614

  Beta  occ. eigenvalues --  -88.70743 -18.98695 -18.94966 -10.10913 -10.08814
  Beta  occ. eigenvalues --  -10.08263 -10.06760 -10.06369 -10.05384 -10.05373
  Beta  occ. eigenvalues --  -10.04521 -10.04246 -10.04188  -7.79369  -5.75730
  Beta  occ. eigenvalues --   -5.75404  -5.74739  -0.89666  -0.88319  -0.70074
  Beta  occ. eigenvalues --   -0.69297  -0.64269  -0.61228  -0.57705  -0.57038
  Beta  occ. eigenvalues --   -0.55021  -0.51125  -0.47448  -0.45172  -0.38458
  Beta  occ. eigenvalues --   -0.36978  -0.35850  -0.35433  -0.33499  -0.32707
  Beta  occ. eigenvalues --   -0.32523  -0.31359  -0.29656  -0.29145  -0.28350
  Beta  occ. eigenvalues --   -0.27990  -0.27750  -0.26739  -0.26279  -0.25534
  Beta  occ. eigenvalues --   -0.25054  -0.24047  -0.23016  -0.22043  -0.21665
  Beta  occ. eigenvalues --   -0.20305  -0.19401  -0.17449  -0.14811  -0.12176
  Beta  occ. eigenvalues --   -0.08840
  Beta virt. eigenvalues --    0.07329   0.07637   0.09161   0.09334   0.09693
  Beta virt. eigenvalues --    0.10053   0.10223   0.11376   0.11512   0.12065
  Beta virt. eigenvalues --    0.12459   0.12686   0.13000   0.13480   0.13825

 Mulliken charges and spin densities:
               1          2
     1  C    0.000547  -0.635369
     2  C   -0.425411   0.091599
     3  C    0.066235   0.061357
     4  C   -0.112241  -0.529799
     5  S    0.429415  -0.320248
     6  C   -0.642586   0.134312
     7  C   -0.039488   0.053061
     8  O   -0.300674   0.135726
     9  C    0.069366   0.637816
    10  C   -0.661438   0.039908
    11  C    0.319663  -0.900624
    12  C   -0.318495  -0.254989
    13  O   -0.172015  -0.000017
    14  H    0.127848   0.013958
    15  H    0.046501   0.099207
    16  H   -0.115959   0.240304
    17  H   -0.012568   0.172307
    18  H   -0.237964   0.495216
    19  H    0.168260   0.023180
    20  H   -0.004867   0.129960
    21  H    0.059021   0.070670
    22  H    0.212252   0.049351
    23  H    0.028773   0.194053
    24  H    0.086281   0.030038
    25  H    0.153630  -0.010837
    26  H    0.135769   0.013000
    27  H    0.003833   0.139477
    28  H   -0.312031   0.453748
    29  H   -0.020853   0.152481
    30  H    0.098909   0.041145
    31  H    0.107056   0.058747
    32  H    0.029924   0.095116
    33  H    0.233305   0.026145
 Sum of Mulliken charges =  -1.00000   1.00000

 Dipole moment (field-independent basis, Debye):
    X=              0.7952    Y=             -1.9001    Z=             -0.2903  Tot=              2.0802
 Quadrupole moment (field-independent basis, Debye-Ang):
   XX=           -139.1217   YY=           -125.3009   ZZ=           -112.2787
   XY=             -0.2636   XZ=             -7.3530   YZ=             -3.1440

 Summary of Natural Population Analysis:

                                       Natural Population
                Natural  -----------------------------------------------
    Atom  No    Charge         Core      Valence    Rydberg      Total
 -----------------------------------------------------------------------
      C    1   -0.29602      0.99964     2.28936    0.00702     3.29602
      C    2    0.05868      0.99952     1.92573    0.01607     2.94132
      C    3   -0.17705      0.99954     2.16226    0.01525     3.17705
      C    4   -0.30130      0.99962     2.29394    0.00774     3.30130
      S    5    0.10424      4.99962     2.87941    0.01673     7.89576
      C    6   -0.29830      0.99954     2.28746    0.01130     3.29830
      C    7    0.35859      0.99958     1.61841    0.02342     2.64141
      O    8   -0.28913      0.99986     3.28260    0.00667     4.28913
      C    9   -0.08697      0.99955     2.07752    0.00990     3.08697
      C   10   -0.27403      0.99963     2.26929    0.00512     3.27403
      C   11   -0.28168      0.99964     2.27445    0.00760     3.28168
      C   12   -0.28076      0.99964     2.27435    0.00677     3.28076
      O   13   -0.39198      0.99989     3.38487    0.00723     4.39198
      H   14    0.09732      0.00000     0.40168    0.00100     0.40268
      H   15    0.10038      0.00000     0.39870    0.00092     0.39962
      H   16    0.09570      0.00000     0.40332    0.00098     0.40430
      H   17    0.08387      0.00000     0.41424    0.00189     0.41613
      H   18    0.10562      0.00000     0.39282    0.00156     0.39438
      H   19    0.11373      0.00000     0.38499    0.00128     0.38627
      H   20    0.10359      0.00000     0.39533    0.00108     0.39641
      H   21    0.09338      0.00000     0.40571    0.00091     0.40662
      H   22    0.12169      0.00000     0.37672    0.00159     0.37831
      H   23    0.10498      0.00000     0.39385    0.00118     0.39502
      H   24    0.09734      0.00000     0.40183    0.00084     0.40266
      H   25    0.09448      0.00000     0.40468    0.00084     0.40552
      H   26    0.09923      0.00000     0.39993    0.00084     0.40077
      H   27    0.10581      0.00000     0.39300    0.00118     0.39419
      H   28    0.09431      0.00000     0.40443    0.00126     0.40569
      H   29    0.09959      0.00000     0.39944    0.00098     0.40041
      H   30    0.10242      0.00000     0.39672    0.00085     0.39758
      H   31    0.10504      0.00000     0.39404    0.00092     0.39496
      H   32    0.09034      0.00000     0.40876    0.00090     0.40966
      H   33    0.24690      0.00000     0.24946    0.00364     0.25310
 =======================================================================
   * Total *    0.00000     16.99527    38.83930    0.16543    56.00000

 Normal termination of Gaussian 16 at Sun Dec 13 16:32:15 2020.
