 Gaussian 16, Revision A.03,

 -----------------------------------------------------------
 # opt freq B3LYP/6-31G(d) empiricaldispersion=gd3bj scf=xqc
 -----------------------------------------------------------

 -------------------------------
 CID_137221062_JID_4729_neutraal
 -------------------------------
 Symbolic Z-matrix:
 Charge =  0 Multiplicity = 1

 SCF Done:  E(RB3LYP) =  -647.007461242     A.U. after   15 cycles
 SCF Done:  E(RB3LYP) =  -647.012284650     A.U. after   16 cycles
 SCF Done:  E(RB3LYP) =  -647.014445167     A.U. after   14 cycles
 SCF Done:  E(RB3LYP) =  -647.015662454     A.U. after   14 cycles
 SCF Done:  E(RB3LYP) =  -647.018867876     A.U. after   14 cycles
 SCF Done:  E(RB3LYP) =  -647.018851137     A.U. after   13 cycles
 SCF Done:  E(RB3LYP) =  -647.019094122     A.U. after   13 cycles
 SCF Done:  E(RB3LYP) =  -647.019246408     A.U. after   12 cycles
 SCF Done:  E(RB3LYP) =  -647.019262546     A.U. after   12 cycles
 SCF Done:  E(RB3LYP) =  -647.019318323     A.U. after   12 cycles
 SCF Done:  E(RB3LYP) =  -647.019386809     A.U. after    7 cycles
 SCF Done:  E(RB3LYP) =  -647.019387067     A.U. after    9 cycles
 SCF Done:  E(RB3LYP) =  -647.019387127     A.U. after    8 cycles
 SCF Done:  E(RB3LYP) =  -647.019387137     A.U. after    7 cycles
 Optimization completed.
    -- Stationary point found.
 Normal termination of Gaussian 16 at Thu Dec 10 10:38:30 2020.

 --------------------------------------------------------------------
 #N Geom=AllCheck Guess=TCheck SCRF=Check GenChk RB3LYP/6-31G(d) Freq
 --------------------------------------------------------------------

 Structure from the checkpoint file:  "JID_4729.chk"
 -------------------------------
 CID_137221062_JID_4729_neutraal
 -------------------------------
 Charge =  0 Multiplicity = 1

 SCF Done:  E(RB3LYP) =  -647.019387137     A.U. after    1 cycles

  Exact polarizability: 187.847   5.187 122.275 -10.649   2.432  67.944
 Approx polarizability: 260.257   9.577 235.427 -17.671  -2.289 111.342

                      1                      2                      3
                      A                      A                      A
 Frequencies --     31.3176                39.7691                62.3386
 Red. masses --      1.1079                 3.7895                 5.3117
 Frc consts  --      0.0006                 0.0035                 0.0122
 IR Inten    --      0.5590                 1.2443                 0.6028

                      4                      5                      6
                      A                      A                      A
 Frequencies --     96.2897               139.7608               197.9372
 Red. masses --      5.6457                 6.7900                 4.7849
 Frc consts  --      0.0308                 0.0781                 0.1105
 IR Inten    --      0.5488                 2.9107                 1.8174

                      7                      8                      9
                      A                      A                      A
 Frequencies --    206.2104               242.6799               268.1040
 Red. masses --      4.0859                 4.4823                 6.2216
 Frc consts  --      0.1024                 0.1555                 0.2635
 IR Inten    --      2.3056                 0.7000                 0.5523

                     10                     11                     12
                      A                      A                      A
 Frequencies --    311.3930               330.6830               373.0532
 Red. masses --      7.1885                 5.0698                 3.7474
 Frc consts  --      0.4107                 0.3266                 0.3073
 IR Inten    --      1.4564                 0.2576                 1.3072

                     13                     14                     15
                      A                      A                      A
 Frequencies --    397.7924               422.5651               449.1683
 Red. masses --      3.5321                 2.6701                 3.4865
 Frc consts  --      0.3293                 0.2809                 0.4144
 IR Inten    --      3.1491                 7.0050                 2.9679

                     16                     17                     18
                      A                      A                      A
 Frequencies --    502.8704               531.9439               541.4788
 Red. masses --      4.2934                 5.1582                 6.4085
 Frc consts  --      0.6397                 0.8600                 1.1071
 IR Inten    --      5.3148                 2.7428                 6.1765

                     19                     20                     21
                      A                      A                      A
 Frequencies --    599.3558               687.4842               705.9852
 Red. masses --      5.8098                 5.6010                 3.8089
 Frc consts  --      1.2296                 1.5597                 1.1185
 IR Inten    --      3.0071                18.0375                 1.1272

                     22                     23                     24
                      A                      A                      A
 Frequencies --    755.6708               807.6154               825.3647
 Red. masses --      2.2899                 3.4178                 2.2084
 Frc consts  --      0.7704                 1.3134                 0.8864
 IR Inten    --     51.0619                51.9891                27.6390

                     25                     26                     27
                      A                      A                      A
 Frequencies --    900.1167               916.4631               922.3689
 Red. masses --      3.9289                 1.4655                 1.3666
 Frc consts  --      1.8755                 0.7252                 0.6850
 IR Inten    --     21.5629                24.1033                13.6766

                     28                     29                     30
                      A                      A                      A
 Frequencies --    944.5081               957.9390               984.3144
 Red. masses --      1.4456                 1.3879                 1.3461
 Frc consts  --      0.7598                 0.7504                 0.7684
 IR Inten    --      1.2539                53.7726                 4.6260

                     31                     32                     33
                      A                      A                      A
 Frequencies --    988.2366              1022.2814              1037.4504
 Red. masses --      2.4604                 6.0807                 1.7204
 Frc consts  --      1.4157                 3.7441                 1.0910
 IR Inten    --     15.1405                 0.3457                 1.1979

                     34                     35                     36
                      A                      A                      A
 Frequencies --   1049.4303              1078.4852              1131.9117
 Red. masses --      1.0882                 1.5300                 1.6444
 Frc consts  --      0.7061                 1.0485                 1.2413
 IR Inten    --     50.0073                 7.2308                 2.7590

                     37                     38                     39
                      A                      A                      A
 Frequencies --   1166.9446              1207.9824              1243.7726
 Red. masses --      2.0052                 1.1220                 3.1149
 Frc consts  --      1.6089                 0.9647                 2.8391
 IR Inten    --      8.1687                 4.5119                42.6149

                     40                     41                     42
                      A                      A                      A
 Frequencies --   1305.5509              1329.9715              1335.5349
 Red. masses --      2.1647                 3.6793                 1.6125
 Frc consts  --      2.1739                 3.8344                 1.6945
 IR Inten    --    310.0756                92.6798                 8.5355

                     43                     44                     45
                      A                      A                      A
 Frequencies --   1365.6036              1369.2903              1424.7040
 Red. masses --      2.7933                 3.7649                 2.2010
 Frc consts  --      3.0691                 4.1591                 2.6322
 IR Inten    --    118.0052                21.0628                35.5728

                     46                     47                     48
                      A                      A                      A
 Frequencies --   1443.6894              1473.1354              1501.1047
 Red. masses --      1.2472                 2.6412                 2.5120
 Frc consts  --      1.5315                 3.3770                 3.3350
 IR Inten    --      0.3385                38.4808                43.0399

                     49                     50                     51
                      A                      A                      A
 Frequencies --   1516.8770              1522.2667              1537.8879
 Red. masses --      1.0505                 1.3862                 1.7739
 Frc consts  --      1.4241                 1.8926                 2.4719
 IR Inten    --      6.1221                11.0164                 2.2880

                     52                     53                     54
                      A                      A                      A
 Frequencies --   1571.9520              1641.8223              1664.0989
 Red. masses --      2.3007                 5.2708                 5.8011
 Frc consts  --      3.3495                 8.3711                 9.4649
 IR Inten    --     35.1567                 5.4598                18.3570

                     55                     56                     57
                      A                      A                      A
 Frequencies --   1689.6373              1751.9035              2711.6332
 Red. masses --      1.9051                12.5884                 1.0730
 Frc consts  --      3.2044                22.7637                 4.6487
 IR Inten    --    301.0714               155.8122               270.5057

                     58                     59                     60
                      A                      A                      A
 Frequencies --   3045.9764              3101.0724              3133.3421
 Red. masses --      1.0393                 1.0985                 1.1015
 Frc consts  --      5.6812                 6.2239                 6.3718
 IR Inten    --     28.8131                19.1559                13.4216

                     61                     62                     63
                      A                      A                      A
 Frequencies --   3179.7810              3197.5877              3204.1694
 Red. masses --      1.0874                 1.0905                 1.0930
 Frc consts  --      6.4781                 6.5692                 6.6112
 IR Inten    --      7.4858                24.7484                 5.2223

                     64                     65                     66
                      A                      A                      A
 Frequencies --   3210.0607              3214.1329              3384.4514
 Red. masses --      1.0901                 1.0945                 1.0767
 Frc consts  --      6.6182                 6.6618                 7.2666
 IR Inten    --      4.2531                10.9991                 1.0421

 - Thermochemistry -
 -------------------
 Temperature   298.150 Kelvin.  Pressure   1.00000 Atm.
 Atom     1 has atomic number  6 and mass  12.00000

 Molecular mass:   190.07423 amu.
 Principal axes and moments of inertia in atomic units:
                           1         2         3
     Eigenvalues --  1143.912774880.677395593.37497
           X            0.99996  -0.00535  -0.00701
           Y            0.00557   0.99947   0.03196
           Z            0.00683  -0.03200   0.99946
 This molecule is an asymmetric top.
 Rotational symmetry number  1.
 Warning -- assumption of classical behavior for rotation
           may cause significant error
 Rotational temperatures (Kelvin)      0.07572     0.01775     0.01549
 Rotational constants (GHZ):           1.57769     0.36977     0.32266
 Zero-point vibrational energy     489908.3 (Joules/Mol)
                                  117.09090 (Kcal/Mol)
 Warning -- explicit consideration of  19 degrees of freedom as
           vibrations may cause significant error
 Vibrational temperatures:     45.06    57.22    89.69   138.54   201.08
          (Kelvin)            284.79   296.69   349.16   385.74   448.03
                              475.78   536.74   572.33   607.98   646.25
                              723.52   765.35   779.07   862.34   989.14
                             1015.76  1087.24  1161.98  1187.52  1295.07
                             1318.59  1327.08  1358.94  1378.26  1416.21
                             1421.85  1470.83  1492.66  1509.90  1551.70
                             1628.57  1678.97  1738.02  1789.51  1878.40
                             1913.53  1921.54  1964.80  1970.10  2049.83
                             2077.15  2119.51  2159.75  2182.45  2190.20
                             2212.68  2261.69  2362.22  2394.27  2431.01
                             2520.60  3901.44  4382.48  4461.75  4508.18
                             4575.00  4600.62  4610.09  4618.56  4624.42
                             4869.47

 Zero-point correction=                           0.186596 (Hartree/Particle)
 Thermal correction to Energy=                    0.199295
 Thermal correction to Enthalpy=                  0.200239
 Thermal correction to Gibbs Free Energy=         0.145991
 Sum of electronic and zero-point Energies=           -646.832791
 Sum of electronic and thermal Energies=              -646.820092
 Sum of electronic and thermal Enthalpies=            -646.819148
 Sum of electronic and thermal Free Energies=         -646.873397

                     E (Thermal)             CV                S
                      KCal/Mol        Cal/Mol-Kelvin    Cal/Mol-Kelvin
 Total                  125.059             46.946            114.176
 Electronic               0.000              0.000              0.000
 Translational            0.889              2.981             41.632
 Rotational               0.889              2.981             31.813
 Vibrational            123.282             40.984             40.730
 Vibration     1          0.594              1.983              5.744
 Vibration     2          0.594              1.981              5.271
 Vibration     3          0.597              1.972              4.382
 Vibration     4          0.603              1.952              3.528
 Vibration     5          0.615              1.914              2.807
 Vibration     6          0.637              1.843              2.152
 Vibration     7          0.641              1.831              2.077
 Vibration     8          0.659              1.775              1.783
 Vibration     9          0.673              1.732              1.608
 Vibration    10          0.700              1.652              1.355
 Vibration    11          0.713              1.614              1.257
 Vibration    12          0.744              1.527              1.067
 Vibration    13          0.764              1.475              0.971
 Vibration    14          0.785              1.421              0.883
 Vibration    15          0.808              1.363              0.798
 Vibration    16          0.858              1.244              0.651
 Vibration    17          0.887              1.179              0.583
 Vibration    18          0.897              1.158              0.562
 Vibration    19          0.957              1.033              0.451

 Optimization completed.
    -- Stationary point found.
 Normal termination of Gaussian 16 at Thu Dec 10 10:44:45 2020.

 ----------------------------------------------------------------------
 # B3LYP/6-311++G(d,p) empiricaldispersion=gd3bj scf=xqc pop=npa geom=c
 heck
 ----------------------------------------------------------------------

 ---------------------------------------
 CID_137221062_JID_4729_Energie_neutraal
 ---------------------------------------
 Structure from the checkpoint file:  "JID_4729.chk"
 Charge =  0 Multiplicity = 1

 SCF Done:  E(RB3LYP) =  -647.205998146     A.U. after   18 cycles
 Normal termination of Gaussian 16 at Thu Dec 10 10:47:32 2020.

 ----------------------------------------------------------------------
 # B3LYP/6-311++G(d,p) empiricaldispersion=gd3bj scf=xqc pop=npa geom=c
 heck
 ----------------------------------------------------------------------

 -------------------------------------
 CID_137221062_JID_4729_Energie_kation
 -------------------------------------
 Structure from the checkpoint file:  "JID_4729.chk"
 Charge =  1 Multiplicity = 2

 SCF Done:  E(UB3LYP) =  -646.885102174     A.U. after   33 cycles
 SCF Done:  E(UB3LYP) =  -646.886232770     a.u. after   12 cycles
 Normal termination of Gaussian 16 at Thu Dec 10 12:01:18 2020.
 Gaussian 16:  ES64L-G16RevA.03 25-Dec-2016

 ----------------------------------------------------------------------
 # B3LYP/6-311++G(d,p) empiricaldispersion=gd3bj scf=xqc pop=npa geom=c
 heck
 ----------------------------------------------------------------------

 ------------------------------------
 CID_137221062_JID_4729_Energie_anion
 ------------------------------------
 Structure from the checkpoint file:  "JID_4729.chk"
 Charge = -1 Multiplicity = 2

                         Standard orientation:
 ---------------------------------------------------------------------
 Center     Atomic      Atomic             Coordinates (Angstroms)
 Number     Number       Type             X           Y           Z
 ---------------------------------------------------------------------
      1          6           0       -4.313992    0.869702    0.714117
      2          6           0       -3.073291    0.181077    0.200058
      3          6           0       -1.832605    0.816475    0.228706
      4          6           0       -0.669683    0.170773   -0.214644
      5          6           0       -0.759594   -1.128811   -0.729588
      6          6           0       -1.997857   -1.769233   -0.781049
      7          6           0       -3.139783   -1.123812   -0.312706
      8          6           0        0.611567    0.948539   -0.182943
      9          8           0        0.599901    2.167426   -0.288031
     10          6           0        1.897710    0.220269    0.002655
     11          6           0        1.979341   -0.949332    0.730500
     12          8           0        3.098791   -1.569186    1.019339
     13          7           0        3.024174    0.885901   -0.486676
     14          7           0        4.134292    0.313591   -0.270643
     15          1           0       -4.144239    1.941205    0.854175
     16          1           0       -5.154533    0.746089    0.022069
     17          1           0       -4.626482    0.453594    1.680453
     18          1           0       -1.743180    1.834731    0.594604
     19          1           0        0.123217   -1.623036   -1.122009
     20          1           0       -2.072233   -2.770755   -1.195082
     21          1           0       -4.100240   -1.632458   -0.352089
     22          1           0        1.089502   -1.422360    1.139161
     23          1           0        3.840958   -1.011609    0.583591
     24          1           0        4.877557    0.888358   -0.684733
 ---------------------------------------------------------------------

 SCF Done:  E(UB3LYP) =  -647.232152095     A.U. after   33 cycles
 SCF Done:  E(UB3LYP) =  -647.232152095     a.u. after    1 cycles

 The electronic state is 2-A.
 Alpha  occ. eigenvalues --  -18.97564 -18.94661 -14.16744 -14.15484 -10.10351
 Alpha  occ. eigenvalues --  -10.08078 -10.08040 -10.07020 -10.06862 -10.06359
 Alpha  occ. eigenvalues --  -10.06234 -10.05938 -10.05777 -10.02631  -0.90692
 Alpha  occ. eigenvalues --   -0.88336  -0.83666  -0.75352  -0.67609  -0.64794
 Alpha  occ. eigenvalues --   -0.62654  -0.58906  -0.52731  -0.50710  -0.48747
 Alpha  occ. eigenvalues --   -0.45405  -0.41554  -0.40058  -0.36826  -0.35918
 Alpha  occ. eigenvalues --   -0.33302  -0.33122  -0.32094  -0.30836  -0.29719
 Alpha  occ. eigenvalues --   -0.29225  -0.27607  -0.26867  -0.25916  -0.24721
 Alpha  occ. eigenvalues --   -0.24375  -0.23437  -0.22499  -0.21555  -0.21053
 Alpha  occ. eigenvalues --   -0.14707  -0.13993  -0.10411  -0.08453  -0.05928
 Alpha  occ. eigenvalues --    0.04004
 Alpha virt. eigenvalues --    0.06561   0.06807   0.08318   0.09024   0.10153
 Alpha virt. eigenvalues --    0.10842   0.11387   0.11792   0.12412   0.13278
 Alpha virt. eigenvalues --    0.13685   0.14105   0.15303   0.15726   0.16240

  Beta  occ. eigenvalues --  -18.97170 -18.94643 -14.16219 -14.14995 -10.10307
  Beta  occ. eigenvalues --  -10.08079 -10.08048 -10.06986 -10.06821 -10.06364
  Beta  occ. eigenvalues --  -10.06226 -10.05892 -10.05147 -10.02807  -0.89893
  Beta  occ. eigenvalues --   -0.88275  -0.82697  -0.75300  -0.67578  -0.64666
  Beta  occ. eigenvalues --   -0.62208  -0.58846  -0.52278  -0.49644  -0.48700
  Beta  occ. eigenvalues --   -0.45075  -0.41303  -0.39913  -0.36739  -0.35801
  Beta  occ. eigenvalues --   -0.33285  -0.33035  -0.31764  -0.30755  -0.29633
  Beta  occ. eigenvalues --   -0.29045  -0.27273  -0.26250  -0.24756  -0.24332
  Beta  occ. eigenvalues --   -0.24042  -0.23261  -0.21815  -0.20619  -0.18661
  Beta  occ. eigenvalues --   -0.14463  -0.13868  -0.10326  -0.06776  -0.05305
  Beta virt. eigenvalues --    0.06778   0.07116   0.08283   0.08998   0.10125
  Beta virt. eigenvalues --    0.10831   0.11404   0.11687   0.12246   0.12665
  Beta virt. eigenvalues --    0.13471   0.13889   0.14834   0.15290   0.15731

 Mulliken charges and spin densities:
               1          2
     1  C   -0.512057   0.005460
     2  C    0.374350  -0.006124
     3  C   -0.011026   0.061703
     4  C    1.472387  -0.011081
     5  C   -0.446445  -0.074876
     6  C   -0.449421   0.045915
     7  C   -0.433076   0.028216
     8  C   -1.478268   0.023833
     9  O   -0.277306   0.004185
    10  C    0.481543  -0.144774
    11  C   -0.569357   0.515392
    12  O   -0.269752   0.089348
    13  N   -0.229793   0.212088
    14  N   -0.412335   0.278983
    15  H    0.142394  -0.000455
    16  H    0.125232  -0.000371
    17  H    0.149810   0.000009
    18  H    0.184590  -0.000007
    19  H    0.204258   0.009666
    20  H    0.138541   0.000767
    21  H    0.117450  -0.000572
    22  H    0.117400  -0.016453
    23  H    0.345581  -0.011930
    24  H    0.235301  -0.008923
 Sum of Mulliken charges =  -1.00000   1.00000

 Dipole moment (field-independent basis, Debye):
    X=             -8.6188    Y=             -2.4360    Z=             -0.0017  Tot=              8.9564
 Quadrupole moment (field-independent basis, Debye-Ang):
   XX=           -118.4296   YY=           -101.8377   ZZ=            -91.8426
   XY=              0.3208   XZ=             -3.9383   YZ=              6.3905

 Summary of Natural Population Analysis:

                                       Natural Population
                Natural  -----------------------------------------------
    Atom  No    Charge         Core      Valence    Rydberg      Total
 -----------------------------------------------------------------------
      C    1   -0.29063      0.99964     2.28636    0.00463     3.29063
      C    2   -0.02712      0.99952     2.01982    0.00778     3.02712
      C    3   -0.07601      0.99948     2.06839    0.00813     3.07601
      C    4   -0.05050      0.99948     2.03886    0.01217     3.05050
      C    5   -0.09412      0.99953     2.08644    0.00815     3.09412
      C    6   -0.09878      0.99957     2.09008    0.00912     3.09878
      C    7   -0.09969      0.99952     2.09171    0.00847     3.09969
      C    8    0.25702      0.99957     1.72154    0.02187     2.74298
      O    9   -0.30403      0.99988     3.29769    0.00646     4.30403
      C   10   -0.09911      0.99948     2.08092    0.01871     3.09911
      C   11    0.24472      0.99952     1.73690    0.01886     2.75528
      O   12   -0.30642      0.99988     3.29865    0.00789     4.30642
      N   13   -0.02214      0.99972     2.50221    0.02021     3.52214
      N   14   -0.19121      0.99976     2.67530    0.01615     3.69121
      H   15    0.10147      0.00000     0.39771    0.00082     0.39853
      H   16    0.09774      0.00000     0.40132    0.00094     0.40226
      H   17    0.09950      0.00000     0.39954    0.00096     0.40050
      H   18    0.10684      0.00000     0.39158    0.00158     0.39316
      H   19    0.11053      0.00000     0.38828    0.00120     0.38947
      H   20    0.09413      0.00000     0.40438    0.00149     0.40587
      H   21    0.09146      0.00000     0.40754    0.00100     0.40854
      H   22    0.06923      0.00000     0.42952    0.00125     0.43077
      H   23    0.23809      0.00000     0.25574    0.00617     0.26191
      H   24    0.14903      0.00000     0.34846    0.00252     0.35097
 =======================================================================
   * Total *    0.00000     13.99456    35.81892    0.18652    50.00000

 Normal termination of Gaussian 16 at Thu Dec 10 12:07:08 2020.
