 Gaussian 16, Revision A.03,

 -----------------------------------------------------------
 # opt freq B3LYP/6-31G(d) empiricaldispersion=gd3bj scf=xqc
 -----------------------------------------------------------

 -------------------------------
 CID_130028056_JID_1336_neutraal
 -------------------------------
 Symbolic Z-matrix:
 Charge =  0 Multiplicity = 1

 SCF Done:  E(RB3LYP) =  -537.789399621     A.U. after   15 cycles
 SCF Done:  E(RB3LYP) =  -537.793995046     A.U. after   12 cycles
 SCF Done:  E(RB3LYP) =  -537.794584308     A.U. after   12 cycles
 SCF Done:  E(RB3LYP) =  -537.794489831     A.U. after   12 cycles
 SCF Done:  E(RB3LYP) =  -537.794957067     A.U. after   11 cycles
 SCF Done:  E(RB3LYP) =  -537.795010369     A.U. after   12 cycles
 SCF Done:  E(RB3LYP) =  -537.795064814     A.U. after   12 cycles
 SCF Done:  E(RB3LYP) =  -537.795108877     A.U. after   10 cycles
 SCF Done:  E(RB3LYP) =  -537.795126721     A.U. after   10 cycles
 SCF Done:  E(RB3LYP) =  -537.795131368     A.U. after   10 cycles
 SCF Done:  E(RB3LYP) =  -537.795132844     A.U. after    8 cycles
 SCF Done:  E(RB3LYP) =  -537.795133715     A.U. after    8 cycles
 Optimization completed.
    -- Stationary point found.

 1\1\GINC-NODE315\FOpt\RB3LYP\6-31G(d)\C8H12O3\VSC10255\08-Dec-2020\0\\
 # opt freq B3LYP/6-31G(d) empiricaldispersion=gd3bj scf=xqc\\CID_13002
 8056_JID_1336_neutraal\\0,1\C,1.1446415481,-0.0965521151,-0.0476191866
 \C,0.8897312979,-0.6639418982,1.3398497522\C,0.7368110122,0.4233974281
 ,2.4069741817\C,0.284707901,-0.1200376588,3.7749725294\C,1.223330353,-
 1.2252908398,4.2487930787\O,2.369413788,-0.9745660074,4.5725192685\C,0
 .6970776943,-2.65216493,4.2254923582\C,0.5214515461,-3.2019585955,2.78
 61506697\C,-0.6009054769,-2.5233192567,2.0062439115\O,-1.7327992159,-2

 Normal termination of Gaussian 16 at Tue Dec  8 19:44:36 2020.

 --------------------------------------------------------------------
 #N Geom=AllCheck Guess=TCheck SCRF=Check GenChk RB3LYP/6-31G(d) Freq
 --------------------------------------------------------------------

 Structure from the checkpoint file:  "JID_1336.chk"
 -------------------------------
 CID_130028056_JID_1336_neutraal
 -------------------------------
 Charge =  0 Multiplicity = 1

 SCF Done:  E(RB3LYP) =  -537.795133715     A.U. after    1 cycles

  Exact polarizability:  88.738  -3.950  96.115   2.510   2.402  74.985
 Approx polarizability: 116.086   0.471 144.165   7.711  15.928 115.991

                      1                      2                      3
                      A                      A                      A
 Frequencies --     69.6214                83.6738               123.5975
 Red. masses --      7.2008                 5.0106                 3.7137
 Frc consts  --      0.0206                 0.0207                 0.0334
 IR Inten    --      6.2461                 4.9707                 1.5764

                      4                      5                      6
                      A                      A                      A
 Frequencies --    180.0785               202.4382               228.2527
 Red. masses --      4.4101                 2.7747                 1.1380
 Frc consts  --      0.0843                 0.0670                 0.0349
 IR Inten    --      3.9201                 4.5994                 0.0826

                      7                      8                      9
                      A                      A                      A
 Frequencies --    274.0420               289.3807               345.0381
 Red. masses --      2.6270                 3.3559                 3.5107
 Frc consts  --      0.1162                 0.1656                 0.2462
 IR Inten    --      0.3671                 0.5901                 2.9982

                     10                     11                     12
                      A                      A                      A
 Frequencies --    413.5529               450.0068               474.3419
 Red. masses --      2.1154                 2.5802                 2.7748
 Frc consts  --      0.2132                 0.3078                 0.3678
 IR Inten    --      2.6566                 1.9426                 6.8934

                     13                     14                     15
                      A                      A                      A
 Frequencies --    519.3634               544.9478               560.8100
 Red. masses --      3.0618                 4.0289                 4.1795
 Frc consts  --      0.4866                 0.7049                 0.7745
 IR Inten    --      3.6929                14.1224                 5.0118

                     16                     17                     18
                      A                      A                      A
 Frequencies --    644.4684               717.8024               771.2458
 Red. masses --      3.5745                 3.3890                 3.0994
 Frc consts  --      0.8747                 1.0288                 1.0862
 IR Inten    --      0.5440                 2.0903                 0.9188

                     19                     20                     21
                      A                      A                      A
 Frequencies --    786.1980               831.5088               872.3303
 Red. masses --      2.1295                 2.0407                 2.2346
 Frc consts  --      0.7755                 0.8313                 1.0018
 IR Inten    --      1.8288                 0.3980                 3.5327

                     22                     23                     24
                      A                      A                      A
 Frequencies --    936.7599               968.3258               994.2044
 Red. masses --      1.6507                 2.6046                 2.5234
 Frc consts  --      0.8534                 1.4389                 1.4695
 IR Inten    --      2.5681                13.3753                 3.1957

                     25                     26                     27
                      A                      A                      A
 Frequencies --   1008.6744              1019.9400              1044.3138
 Red. masses --      2.2306                 1.9205                 2.1307
 Frc consts  --      1.3372                 1.1771                 1.3691
 IR Inten    --      8.2630                 7.9254                20.8460

                     28                     29                     30
                      A                      A                      A
 Frequencies --   1094.2734              1134.1103              1145.0564
 Red. masses --      2.1626                 1.8230                 2.2332
 Frc consts  --      1.5257                 1.3815                 1.7252
 IR Inten    --     24.5871                95.0489                 1.8257

                     31                     32                     33
                      A                      A                      A
 Frequencies --   1161.1605              1177.5115              1221.8083
 Red. masses --      2.1997                 1.7064                 1.3381
 Frc consts  --      1.7475                 1.3940                 1.1769
 IR Inten    --     98.6333                38.9267                74.6736

                     34                     35                     36
                      A                      A                      A
 Frequencies --   1260.2802              1269.5795              1292.5050
 Red. masses --      1.5570                 1.4999                 1.6507
 Frc consts  --      1.4570                 1.4244                 1.6248
 IR Inten    --      7.7861                 5.4601               107.3414

                     37                     38                     39
                      A                      A                      A
 Frequencies --   1352.4617              1354.5504              1377.3430
 Red. masses --      1.2724                 1.4261                 1.4363
 Frc consts  --      1.3713                 1.5416                 1.6054
 IR Inten    --     17.4542                33.5347                55.7054

                     40                     41                     42
                      A                      A                      A
 Frequencies --   1381.6417              1406.5814              1416.6863
 Red. masses --      1.5775                 1.2349                 1.4938
 Frc consts  --      1.7742                 1.4394                 1.7664
 IR Inten    --      7.8784                 6.2108                 2.1968

                     43                     44                     45
                      A                      A                      A
 Frequencies --   1441.9602              1501.3490              1505.7728
 Red. masses --      1.2909                 1.0910                 1.1053
 Frc consts  --      1.5814                 1.4489                 1.4766
 IR Inten    --      8.4561                 0.8363                10.1946

                     46                     47                     48
                      A                      A                      A
 Frequencies --   1516.6018              1522.7215              1526.0926
 Red. masses --      1.0466                 1.0962                 1.0863
 Frc consts  --      1.4183                 1.4976                 1.4906
 IR Inten    --      3.2775                 6.9606                20.4012

                     49                     50                     51
                      A                      A                      A
 Frequencies --   1530.1708              1812.5559              1835.8052
 Red. masses --      1.0650                10.5237                11.7622
 Frc consts  --      1.4692                20.3705                23.3557
 IR Inten    --     12.0042               151.1551               295.6118

                     52                     53                     54
                      A                      A                      A
 Frequencies --   3060.9698              3061.5661              3065.6803
 Red. masses --      1.0500                 1.0618                 1.0464
 Frc consts  --      5.7964                 5.8636                 5.7944
 IR Inten    --      4.0160                 4.0746                28.0631

                     55                     56                     57
                      A                      A                      A
 Frequencies --   3075.9098              3078.0216              3092.9210
 Red. masses --      1.0769                 1.0619                 1.0664
 Frc consts  --      6.0031                 5.9274                 6.0107
 IR Inten    --     13.2387                10.0472                11.1460

                     58                     59                     60
                      A                      A                      A
 Frequencies --   3110.4960              3126.9476              3133.8967
 Red. masses --      1.1041                 1.1048                 1.1012
 Frc consts  --      6.2936                 6.3644                 6.3723
 IR Inten    --     11.6214                10.7021                11.2870

                     61                     62                     63
                      A                      A                      A
 Frequencies --   3137.8729              3142.6188              3143.9722
 Red. masses --      1.1026                 1.1036                 1.1035
 Frc consts  --      6.3966                 6.4218                 6.4266
 IR Inten    --     25.1612                16.4007                20.0937

 - Thermochemistry -
 -------------------
 Temperature   298.150 Kelvin.  Pressure   1.00000 Atm.
 Atom     1 has atomic number  6 and mass  12.00000

 Molecular mass:   156.07864 amu.
 Principal axes and moments of inertia in atomic units:
                           1         2         3
     Eigenvalues --  1392.123001589.391992428.86732
           X            0.92166  -0.38764  -0.01660
           Y            0.38706   0.92156  -0.03013
           Z            0.02698   0.02135   0.99941
 This molecule is an asymmetric top.
 Rotational symmetry number  1.
 Warning -- assumption of classical behavior for rotation
           may cause significant error
 Rotational temperatures (Kelvin)      0.06222     0.05450     0.03566
 Rotational constants (GHZ):           1.29639     1.13549     0.74304
 Zero-point vibrational energy     513343.7 (Joules/Mol)
                                  122.69210 (Kcal/Mol)
 Warning -- explicit consideration of  15 degrees of freedom as
           vibrations may cause significant error
 Vibrational temperatures:    100.17   120.39   177.83   259.09   291.26
          (Kelvin)            328.40   394.29   416.35   496.43   595.01
                              647.46   682.47   747.25   784.06   806.88
                              927.25  1032.76  1109.65  1131.16  1196.36
                             1255.09  1347.79  1393.20  1430.44  1451.26
                             1467.47  1502.53  1574.42  1631.73  1647.48
                             1670.65  1694.18  1757.91  1813.26  1826.64
                             1859.63  1945.89  1948.90  1981.69  1987.87
                             2023.76  2038.30  2074.66  2160.11  2166.47
                             2182.05  2190.86  2195.71  2201.57  2607.86
                             2641.31  4404.05  4404.91  4410.83  4425.55
                             4428.59  4450.02  4475.31  4498.98  4508.98
                             4514.70  4521.53  4523.47

 Zero-point correction=                           0.195522 (Hartree/Particle)
 Thermal correction to Energy=                    0.205930
 Thermal correction to Enthalpy=                  0.206874
 Thermal correction to Gibbs Free Energy=         0.159627
 Sum of electronic and zero-point Energies=           -537.599611
 Sum of electronic and thermal Energies=              -537.589204
 Sum of electronic and thermal Enthalpies=            -537.588260
 Sum of electronic and thermal Free Energies=         -537.635507

                     E (Thermal)             CV                S
                      KCal/Mol        Cal/Mol-Kelvin    Cal/Mol-Kelvin
 Total                  129.223             39.603             99.440
 Electronic               0.000              0.000              0.000
 Translational            0.889              2.981             41.045
 Rotational               0.889              2.981             30.064
 Vibrational            127.445             33.641             28.331
 Vibration     1          0.598              1.969              4.164
 Vibration     2          0.601              1.960              3.803
 Vibration     3          0.610              1.929              3.043
 Vibration     4          0.629              1.867              2.328
 Vibration     5          0.639              1.836              2.111
 Vibration     6          0.651              1.798              1.893
 Vibration     7          0.676              1.721              1.571
 Vibration     8          0.686              1.693              1.478
 Vibration     9          0.723              1.585              1.189
 Vibration    10          0.777              1.441              0.914
 Vibration    11          0.809              1.361              0.796
 Vibration    12          0.831              1.307              0.725
 Vibration    13          0.874              1.207              0.611
 Vibration    14          0.900              1.151              0.555
 Vibration    15          0.916              1.116              0.522

                           ! Non-Optimized Parameters !

 1\1\GINC-NODE315\Freq\RB3LYP\6-31G(d)\C8H12O3\VSC10255\08-Dec-2020\0\\
 #N Geom=AllCheck Guess=TCheck SCRF=Check GenChk RB3LYP/6-31G(d) Freq\\
 CID_130028056_JID_1336_neutraal\\0,1\C,1.1446415481,-0.0965521151,-0.0
 476191866\C,0.8897312979,-0.6639418982,1.3398497522\C,0.7368110122,0.4
 233974281,2.4069741817\C,0.284707901,-0.1200376588,3.7749725294\C,1.22
 3330353,-1.2252908398,4.2487930787\O,2.369413788,-0.9745660074,4.57251
 92685\C,0.6970776943,-2.65216493,4.2254923582\C,0.5214515461,-3.201958
 5955,2.7861506697\C,-0.6009054769,-2.5233192567,2.0062439115\O,-1.7327

 Normal termination of Gaussian 16 at Tue Dec  8 19:49:23 2020.

 ----------------------------------------------------------------------
 # B3LYP/6-311++G(d,p) empiricaldispersion=gd3bj scf=xqc pop=npa geom=c
 heck
 ----------------------------------------------------------------------

 ---------------------------------------
 CID_130028056_JID_1336_Energie_neutraal
 ---------------------------------------
 Structure from the checkpoint file:  "JID_1336.chk"
 Charge =  0 Multiplicity = 1

 SCF Done:  E(RB3LYP) =  -537.954104306     A.U. after   14 cycles
 Normal termination of Gaussian 16 at Tue Dec  8 19:51:05 2020.

 ----------------------------------------------------------------------
 # B3LYP/6-311++G(d,p) empiricaldispersion=gd3bj scf=xqc pop=npa geom=c
 heck
 ----------------------------------------------------------------------

 -------------------------------------
 CID_130028056_JID_1336_Energie_kation
 -------------------------------------
 Structure from the checkpoint file:  "JID_1336.chk"
 Charge =  1 Multiplicity = 2

 SCF Done:  E(UB3LYP) =  -537.607265215     A.U. after   29 cycles
 Normal termination of Gaussian 16 at Tue Dec  8 19:55:15 2020.
 Gaussian 16:  ES64L-G16RevA.03 25-Dec-2016

 ------------------------------------
 CID_130028056_JID_1336_Energie_anion
 ------------------------------------
 Structure from the checkpoint file:  "JID_1336.chk"
 Charge = -1 Multiplicity = 2

                         Standard orientation:
 ---------------------------------------------------------------------
 Center     Atomic      Atomic             Coordinates (Angstroms)
 Number     Number       Type             X           Y           Z
 ---------------------------------------------------------------------
      1          6           0        2.691391   -1.062907   -0.702728
      2          6           0        1.275494   -0.641543   -0.342630
      3          6           0        0.631758   -1.556161    0.703088
      4          6           0       -0.720377   -1.034831    1.223745
      5          6           0       -1.675187   -0.771150    0.063611
      6          8           0       -2.126447   -1.690101   -0.594464
      7          6           0       -1.975668    0.678887   -0.283602
      8          6           0       -0.760002    1.408161   -0.912202
      9          6           0        0.389654    1.632632    0.065753
     10          8           0        0.456392    2.634193    0.739089
     11          8           0        1.371024    0.701981    0.185984
     12          1           0        3.334664   -1.024655    0.182055
     13          1           0        3.110135   -0.397225   -1.462973
     14          1           0        2.693251   -2.085860   -1.093256
     15          1           0        0.659326   -0.638473   -1.247572
     16          1           0        0.481526   -2.540135    0.244945
     17          1           0        1.320143   -1.678655    1.546926
     18          1           0       -0.571551   -0.134127    1.826713
     19          1           0       -1.173455   -1.798426    1.864595
     20          1           0       -2.274198    1.223834    0.620457
     21          1           0       -2.804485    0.691692   -0.996028
     22          1           0       -1.083001    2.410050   -1.202328
     23          1           0       -0.442483    0.884859   -1.818613
 ---------------------------------------------------------------------

 SCF Done:  E(UB3LYP) =  -537.946680632     A.U. after   33 cycles
 SCF Done:  E(UB3LYP) =  -537.946680632     a.u. after    1 cycles

 The electronic state is 2-A.
 Alpha  occ. eigenvalues --  -19.05303 -18.99724 -18.96710 -10.19439 -10.12996
 Alpha  occ. eigenvalues --  -10.10682 -10.07987 -10.06586 -10.06426 -10.06361
 Alpha  occ. eigenvalues --  -10.05513  -0.99096  -0.91255  -0.90488  -0.70202
 Alpha  occ. eigenvalues --   -0.68773  -0.63961  -0.57308  -0.54974  -0.50931
 Alpha  occ. eigenvalues --   -0.46461  -0.40843  -0.39708  -0.37535  -0.36240
 Alpha  occ. eigenvalues --   -0.35490  -0.33529  -0.32101  -0.31518  -0.30596
 Alpha  occ. eigenvalues --   -0.29794  -0.28721  -0.27488  -0.26300  -0.25219
 Alpha  occ. eigenvalues --   -0.24523  -0.23919  -0.22413  -0.22141  -0.18751
 Alpha  occ. eigenvalues --   -0.16540  -0.11750   0.04846
 Alpha virt. eigenvalues --    0.07250   0.07760   0.08936   0.10055   0.10135
 Alpha virt. eigenvalues --    0.10522   0.10858   0.11689   0.12235   0.13023
 Alpha virt. eigenvalues --    0.13456   0.14076   0.14773   0.15895   0.16941

  Beta  occ. eigenvalues --  -19.05295 -18.99720 -18.96395 -10.19439 -10.12983
  Beta  occ. eigenvalues --  -10.10365 -10.07917 -10.06606 -10.06375 -10.06328
  Beta  occ. eigenvalues --  -10.05531  -0.99084  -0.91243  -0.89881  -0.70118
  Beta  occ. eigenvalues --   -0.68615  -0.63852  -0.57067  -0.54907  -0.50859
  Beta  occ. eigenvalues --   -0.46287  -0.40772  -0.39295  -0.37404  -0.36135
  Beta  occ. eigenvalues --   -0.35379  -0.33370  -0.31953  -0.31352  -0.30499
  Beta  occ. eigenvalues --   -0.29681  -0.28281  -0.27389  -0.26205  -0.25092
  Beta  occ. eigenvalues --   -0.24405  -0.23819  -0.22313  -0.20941  -0.18681
  Beta  occ. eigenvalues --   -0.16514  -0.11498
  Beta virt. eigenvalues --    0.07476   0.08319   0.08721   0.10079   0.10384
  Beta virt. eigenvalues --    0.10808   0.10966   0.11681   0.12146   0.12664
  Beta virt. eigenvalues --    0.13385   0.13821   0.14160   0.14956   0.15916

 Mulliken charges and spin densities:
               1          2
     1  C    1.323983  -1.878185
     2  C   -1.525098   1.427644
     3  C    1.003472  -1.422195
     4  C   -0.282965   0.055458
     5  C   -0.277118   0.633008
     6  O   -0.344209   0.115578
     7  C    0.482040  -1.003394
     8  C   -0.238601   0.173299
     9  C    0.376086  -0.428305
    10  O   -0.292861   0.019417
    11  O   -0.035724   0.057955
    12  H   -0.019630   0.178827
    13  H   -0.354492   0.509268
    14  H   -0.167103   0.310372
    15  H    0.315296  -0.173496
    16  H    0.098472   0.075806
    17  H   -0.268144   0.424405
    18  H    0.187443  -0.011502
    19  H   -0.473783   0.699555
    20  H    0.026673   0.144698
    21  H   -0.030678   0.207969
    22  H   -0.423308   0.654296
    23  H   -0.079751   0.229523
 Sum of Mulliken charges =  -1.00000   1.00000

 Dipole moment (field-independent basis, Debye):
    X=              0.4759    Y=              0.3746    Z=             -0.3579  Tot=              0.7035
 Quadrupole moment (field-independent basis, Debye-Ang):
   XX=           -106.5125   YY=           -113.7838   ZZ=            -92.7034
   XY=             -3.4240   XZ=             -2.5300   YZ=              1.4945

 Summary of Natural Population Analysis:

                                       Natural Population
                Natural  -----------------------------------------------
    Atom  No    Charge         Core      Valence    Rydberg      Total
 -----------------------------------------------------------------------
      C    1   -0.28827      0.99964     2.28279    0.00584     3.28827
      C    2    0.06043      0.99952     1.92800    0.01205     2.93957
      C    3   -0.19105      0.99959     2.18187    0.00958     3.19105
      C    4   -0.24156      0.99959     2.23246    0.00951     3.24156
      C    5    0.32367      0.99966     1.65527    0.02140     2.67633
      O    6   -0.27103      0.99987     3.26451    0.00665     4.27103
      C    7   -0.22980      0.99958     2.22047    0.00976     3.22980
      C    8   -0.23766      0.99957     2.22983    0.00826     3.23766
      C    9    0.41042      0.99966     1.56400    0.02591     2.58958
      O   10   -0.30072      0.99987     3.29443    0.00643     4.30072
      O   11   -0.28806      0.99984     3.27782    0.01040     4.28806
      H   12    0.10204      0.00000     0.39669    0.00127     0.39796
      H   13    0.10299      0.00000     0.39578    0.00123     0.39701
      H   14    0.10264      0.00000     0.39643    0.00094     0.39736
      H   15    0.08866      0.00000     0.40898    0.00236     0.41134
      H   16    0.10617      0.00000     0.39262    0.00121     0.39383
      H   17    0.10049      0.00000     0.39792    0.00158     0.39951
      H   18    0.09988      0.00000     0.39883    0.00129     0.40012
      H   19    0.11611      0.00000     0.38179    0.00210     0.38389
      H   20    0.10569      0.00000     0.39295    0.00135     0.39431
      H   21    0.10797      0.00000     0.39057    0.00146     0.39203
      H   22    0.11759      0.00000     0.38011    0.00230     0.38241
      H   23    0.10341      0.00000     0.39499    0.00160     0.39659
 =======================================================================
   * Total *   -0.00000     10.99639    30.85912    0.14448    42.00000

 Normal termination of Gaussian 16 at Tue Dec  8 20:00:02 2020.
