 Gaussian 16, Revision A.03,

 -----------------------------------------------------------
 # opt freq B3LYP/6-31G(d) empiricaldispersion=gd3bj scf=xqc
 -----------------------------------------------------------

 -----------------------------
 CID_23105205_JID_590_neutraal
 -----------------------------
 Symbolic Z-matrix:
 Charge =  0 Multiplicity = 1

 SCF Done:  E(RB3LYP) =  -779.236602482     A.U. after   18 cycles
 SCF Done:  E(RB3LYP) =  -779.234655254     A.U. after   16 cycles
 SCF Done:  E(RB3LYP) =  -779.246219363     A.U. after   15 cycles
 SCF Done:  E(RB3LYP) =  -779.247581424     A.U. after   15 cycles
 SCF Done:  E(RB3LYP) =  -779.245437314     A.U. after   15 cycles
 SCF Done:  E(RB3LYP) =  -779.249379515     A.U. after   13 cycles
 SCF Done:  E(RB3LYP) =  -779.250098862     A.U. after   14 cycles
 SCF Done:  E(RB3LYP) =  -779.250531067     A.U. after   13 cycles
 SCF Done:  E(RB3LYP) =  -779.250755343     A.U. after   13 cycles
 SCF Done:  E(RB3LYP) =  -779.250922800     A.U. after   11 cycles
 SCF Done:  E(RB3LYP) =  -779.251144458     A.U. after    9 cycles
 SCF Done:  E(RB3LYP) =  -779.251145187     A.U. after    9 cycles
 SCF Done:  E(RB3LYP) =  -779.251145708     A.U. after    9 cycles
 SCF Done:  E(RB3LYP) =  -779.251145999     A.U. after    8 cycles
 SCF Done:  E(RB3LYP) =  -779.251146122     A.U. after    8 cycles
 SCF Done:  E(RB3LYP) =  -779.251146188     A.U. after    8 cycles
 Optimization completed.
    -- Stationary point found.
 Normal termination of Gaussian 16 at Tue Dec  8 12:17:06 2020.

 --------------------------------------------------------------------
 #N Geom=AllCheck Guess=TCheck SCRF=Check GenChk RB3LYP/6-31G(d) Freq
 --------------------------------------------------------------------

 Structure from the checkpoint file:  "JID_590.chk"
 -----------------------------
 CID_23105205_JID_590_neutraal
 -----------------------------
 Charge =  0 Multiplicity = 1

 SCF Done:  E(RB3LYP) =  -779.251146188     A.U. after    1 cycles

  Exact polarizability: 133.608   3.933 106.271 -10.595  -9.274  81.859
 Approx polarizability: 220.273  19.286 201.107 -30.931 -37.977 142.494

                      1                      2                      3
                      A                      A                      A
 Frequencies --     48.5610                77.0625                84.7221
 Red. masses --      9.5664                 4.4345                 5.9711
 Frc consts  --      0.0133                 0.0155                 0.0253
 IR Inten    --      1.9942                 2.8202                11.4278

                      4                      5                      6
                      A                      A                      A
 Frequencies --    119.9401               156.8652               193.4268
 Red. masses --      9.8794                 1.0639                 7.3024
 Frc consts  --      0.0837                 0.0154                 0.1610
 IR Inten    --      6.5094                 0.1857                43.3444

                      7                      8                      9
                      A                      A                      A
 Frequencies --    235.1766               397.8842               410.8795
 Red. masses --      3.0780                 2.6598                 2.8305
 Frc consts  --      0.1003                 0.2481                 0.2815
 IR Inten    --      6.7990                 0.2595                 1.1736

                     10                     11                     12
                      A                      A                      A
 Frequencies --    455.9233               466.3801               490.5768
 Red. masses --      3.4484                10.7038                11.9595
 Frc consts  --      0.4223                 1.3717                 1.6958
 IR Inten    --      5.5752                 5.8732                 9.6213

                     13                     14                     15
                      A                      A                      A
 Frequencies --    543.2167               660.8551               675.9440
 Red. masses --      5.4786                 6.2430                 2.0895
 Frc consts  --      0.9525                 1.6064                 0.5625
 IR Inten    --      3.6457                 2.4339                39.7446

                     16                     17                     18
                      A                      A                      A
 Frequencies --    739.7671               744.3316               804.1553
 Red. masses --      1.6256                10.6000                 1.3074
 Frc consts  --      0.5242                 3.4601                 0.4981
 IR Inten    --      8.6793                10.4678                41.9835

                     19                     20                     21
                      A                      A                      A
 Frequencies --    817.2260               895.0973               947.9511
 Red. masses --      3.9694                 1.2873                 1.3487
 Frc consts  --      1.5619                 0.6077                 0.7141
 IR Inten    --      2.8603                15.3198                 0.4631

                     22                     23                     24
                      A                      A                      A
 Frequencies --   1007.8538              1049.5686              1079.2533
 Red. masses --      1.3217                 5.0389                 2.1304
 Frc consts  --      0.7910                 3.2704                 1.4620
 IR Inten    --      0.4637                22.5905                 3.5006

                     25                     26                     27
                      A                      A                      A
 Frequencies --   1093.0034              1163.5914              1169.9864
 Red. masses --      1.6931                 1.3522                 1.3603
 Frc consts  --      1.1918                 1.0787                 1.0971
 IR Inten    --      5.7559                 8.3186                 3.6264

                     28                     29                     30
                      A                      A                      A
 Frequencies --   1195.8365              1222.2763              1245.2365
 Red. masses --      1.1107                 3.6154                 1.2257
 Frc consts  --      0.9358                 3.1823                 1.1198
 IR Inten    --     13.4958                18.7183                 7.0865

                     31                     32                     33
                      A                      A                      A
 Frequencies --   1366.2662              1398.0818              1469.7083
 Red. masses --      5.5498                 1.2336                 1.1909
 Frc consts  --      6.1038                 1.4207                 1.5156
 IR Inten    --     37.6496                 0.3788                 4.2691

                     34                     35                     36
                      A                      A                      A
 Frequencies --   1488.5651              1516.4122              1538.7054
 Red. masses --      1.1970                 1.3275                 1.3550
 Frc consts  --      1.5627                 1.7986                 1.8902
 IR Inten    --      1.9545                53.1133                42.1354

                     37                     38                     39
                      A                      A                      A
 Frequencies --   1548.4697              1629.1118              1687.1068
 Red. masses --      1.9936                 4.8295                 4.8298
 Frc consts  --      2.8164                 7.5519                 8.0997
 IR Inten    --      7.1667                85.2409                42.3293

                     40                     41                     42
                      A                      A                      A
 Frequencies --   2170.6320              3081.5076              3164.3578
 Red. masses --     12.7276                 1.0363                 1.1055
 Frc consts  --     35.3321                 5.7980                 6.5222
 IR Inten    --    140.7527                32.2939                 0.4523

                     43                     44                     45
                      A                      A                      A
 Frequencies --   3220.0577              3221.3635              3245.8957
 Red. masses --      1.1033                 1.0896                 1.0916
 Frc consts  --      6.7403                 6.6619                 6.7764
 IR Inten    --      1.6252                 3.0420                 1.2905

                     46                     47                     48
                      A                      A                      A
 Frequencies --   3249.0769              3279.4380              3305.7316
 Red. masses --      1.0956                 1.0960                 1.0952
 Frc consts  --      6.8141                 6.9451                 7.0511
 IR Inten    --      0.3663                 1.6673                 4.3728

 - Thermochemistry -
 -------------------
 Temperature   298.150 Kelvin.  Pressure   1.00000 Atm.
 Atom     1 has atomic number  6 and mass  12.00000

 Molecular mass:   152.04082 amu.
 Principal axes and moments of inertia in atomic units:
                           1         2         3
     Eigenvalues --  1104.304791901.826242166.22613
           X            0.99914  -0.02538  -0.03273
           Y            0.02733   0.99778   0.06068
           Z            0.03111  -0.06152   0.99762
 This molecule is an asymmetric top.
 Rotational symmetry number  1.
 Warning -- assumption of classical behavior for rotation
           may cause significant error
 Rotational temperatures (Kelvin)      0.07843     0.04554     0.03998
 Rotational constants (GHZ):           1.63428     0.94895     0.83313
 Zero-point vibrational energy     369484.8 (Joules/Mol)
                                   88.30899 (Kcal/Mol)
 Warning -- explicit consideration of  13 degrees of freedom as
           vibrations may cause significant error
 Vibrational temperatures:     69.87   110.88   121.90   172.57   225.69
          (Kelvin)            278.30   338.37   572.47   591.16   655.97
                              671.02   705.83   781.57   950.82   972.53
                             1064.36  1070.93  1157.00  1175.81  1287.85
                             1363.89  1450.08  1510.10  1552.80  1572.59
                             1674.15  1683.35  1720.54  1758.58  1791.62
                             1965.75  2011.53  2114.58  2141.71  2181.78
                             2213.85  2227.90  2343.93  2427.37  3123.06
                             4433.60  4552.81  4632.94  4634.82  4670.12
                             4674.70  4718.38  4756.21

 Zero-point correction=                           0.140729 (Hartree/Particle)
 Thermal correction to Energy=                    0.150840
 Thermal correction to Enthalpy=                  0.151785
 Thermal correction to Gibbs Free Energy=         0.104105
 Sum of electronic and zero-point Energies=           -779.110417
 Sum of electronic and thermal Energies=              -779.100306
 Sum of electronic and thermal Enthalpies=            -779.099362
 Sum of electronic and thermal Free Energies=         -779.147041

                     E (Thermal)             CV                S
                      KCal/Mol        Cal/Mol-Kelvin    Cal/Mol-Kelvin
 Total                   94.654             35.830            100.350
 Electronic               0.000              0.000              0.000
 Translational            0.889              2.981             40.967
 Rotational               0.889              2.981             29.899
 Vibrational             92.876             29.868             29.484
 Vibration     1          0.595              1.978              4.875
 Vibration     2          0.599              1.964              3.964
 Vibration     3          0.601              1.960              3.778
 Vibration     4          0.609              1.933              3.101
 Vibration     5          0.621              1.895              2.587
 Vibration     6          0.635              1.849              2.195
 Vibration     7          0.655              1.787              1.839
 Vibration     8          0.764              1.475              0.970
 Vibration     9          0.775              1.447              0.924
 Vibration    10          0.814              1.348              0.778
 Vibration    11          0.824              1.325              0.748
 Vibration    12          0.846              1.271              0.682
 Vibration    13          0.898              1.155              0.558

 Optimization completed.
    -- Stationary point found.
 Normal termination of Gaussian 16 at Tue Dec  8 12:22:00 2020.

 ----------------------------------------------------------------------
 # B3LYP/6-311++G(d,p) empiricaldispersion=gd3bj scf=xqc pop=npa geom=c
 heck
 ----------------------------------------------------------------------

 -------------------------------------
 CID_23105205_JID_590_Energie_neutraal
 -------------------------------------
 Structure from the checkpoint file:  "JID_590.chk"
 Charge =  0 Multiplicity = 1

 SCF Done:  E(RB3LYP) =  -779.383520153     A.U. after   16 cycles
 Normal termination of Gaussian 16 at Tue Dec  8 12:24:07 2020.

 ----------------------------------------------------------------------
 # B3LYP/6-311++G(d,p) empiricaldispersion=gd3bj scf=xqc pop=npa geom=c
 heck
 ----------------------------------------------------------------------

 -----------------------------------
 CID_23105205_JID_590_Energie_kation
 -----------------------------------
 Structure from the checkpoint file:  "JID_590.chk"
 Charge =  1 Multiplicity = 2

 SCF Done:  E(UB3LYP) =  -779.113242333     A.U. after   25 cycles
 Normal termination of Gaussian 16 at Tue Dec  8 12:29:18 2020.
 Gaussian 16:  ES64L-G16RevA.03 25-Dec-2016

 ----------------------------------------------------------------------
 # B3LYP/6-311++G(d,p) empiricaldispersion=gd3bj scf=xqc pop=npa geom=c
 heck
 ----------------------------------------------------------------------

 ----------------------------------
 CID_23105205_JID_590_Energie_anion
 ----------------------------------
 Structure from the checkpoint file:  "JID_590.chk"
 Charge = -1 Multiplicity = 2

                         Standard orientation:
 ---------------------------------------------------------------------
 Center     Atomic      Atomic             Coordinates (Angstroms)
 Number     Number       Type             X           Y           Z
 ---------------------------------------------------------------------
      1          6           0       -0.268472    1.722971    1.353606
      2          7           0        0.600015    0.732806    0.690974
      3          6           0        0.531377   -0.555669    1.097583
      4          6           0        1.358329   -1.516182    0.513398
      5          6           0        2.206547   -1.148386   -0.514903
      6          6           0        2.224306    0.187562   -0.952797
      7          6           0        1.396507    1.100589   -0.343095
      8          6           0       -1.766164    0.253021   -0.901609
      9          7           0       -1.366838    1.216933   -1.451437
     10         16           0       -2.215981   -1.075626   -0.004403
     11          1           0       -1.225979    1.240450    1.557724
     12          1           0        0.207752    2.055323    2.280403
     13          1           0       -0.437998    2.552207    0.671361
     14          1           0       -0.122899   -0.763776    1.929020
     15          1           0        1.291397   -2.539770    0.860711
     16          1           0        2.846263   -1.885809   -0.988527
     17          1           0        2.852668    0.507592   -1.774616
     18          1           0        1.317670    2.132200   -0.655484
 ---------------------------------------------------------------------

 SCF Done:  E(UB3LYP) =  -779.420848380     A.U. after   24 cycles

 The electronic state is 2-A.
 Alpha  occ. eigenvalues --  -88.64347 -14.22517 -14.11118 -10.07927 -10.07080
 Alpha  occ. eigenvalues --  -10.06931 -10.04087 -10.03804 -10.03698 -10.02462
 Alpha  occ. eigenvalues --   -7.73026  -5.69505  -5.68707  -5.68664  -0.85707
 Alpha  occ. eigenvalues --   -0.71301  -0.68455  -0.63769  -0.58873  -0.55422
 Alpha  occ. eigenvalues --   -0.51252  -0.49199  -0.40425  -0.36049  -0.35093
 Alpha  occ. eigenvalues --   -0.34491  -0.31711  -0.31055  -0.27606  -0.26285
 Alpha  occ. eigenvalues --   -0.25759  -0.23720  -0.22971  -0.18178  -0.18051
 Alpha  occ. eigenvalues --   -0.17880  -0.16089  -0.14149  -0.05822  -0.05157
 Alpha  occ. eigenvalues --    0.02785
 Alpha virt. eigenvalues --    0.08842   0.09586   0.10381   0.11213   0.11765
 Alpha virt. eigenvalues --    0.12551   0.13001   0.14365   0.15060   0.16355
 Alpha virt. eigenvalues --    0.16679   0.17080   0.18576   0.19159   0.19826

  Beta  occ. eigenvalues --  -88.64341 -14.21877 -14.11096 -10.07958 -10.06801
  Beta  occ. eigenvalues --  -10.06611 -10.04206 -10.03806 -10.03798 -10.01867
  Beta  occ. eigenvalues --   -7.73019  -5.69500  -5.68696  -5.68655  -0.84680
  Beta  occ. eigenvalues --   -0.71269  -0.67871  -0.63160  -0.58508  -0.55384
  Beta  occ. eigenvalues --   -0.51138  -0.48162  -0.40155  -0.35651  -0.34575
  Beta  occ. eigenvalues --   -0.33444  -0.31441  -0.30921  -0.27519  -0.26193
  Beta  occ. eigenvalues --   -0.24492  -0.23505  -0.22690  -0.18110  -0.17929
  Beta  occ. eigenvalues --   -0.17608  -0.13638  -0.12644  -0.05781  -0.05007
  Beta virt. eigenvalues --    0.08565   0.09478   0.10329   0.10608   0.11603
  Beta virt. eigenvalues --    0.11782   0.12694   0.13093   0.14317   0.15070
  Beta virt. eigenvalues --    0.16345   0.16632   0.17064   0.18632   0.19177

 Mulliken charges and spin densities:
               1          2
     1  C   -0.182352  -0.092528
     2  N    0.261445   0.159687
     3  C    0.117722   0.167804
     4  C   -0.457362   0.109515
     5  C   -0.261973   0.323965
     6  C   -0.325934   0.033592
     7  C   -0.157181   0.225939
     8  C   -0.031254  -0.006573
     9  N   -0.406199   0.008456
    10  S   -0.470003   0.002903
    11  H    0.119737  -0.001160
    12  H    0.034496   0.111753
    13  H    0.137856  -0.002514
    14  H    0.160391  -0.009232
    15  H    0.104076   0.017637
    16  H    0.107131  -0.041403
    17  H    0.127187   0.011149
    18  H    0.122216  -0.018991
 Sum of Mulliken charges =  -1.00000   1.00000

 Dipole moment (field-independent basis, Debye):
    X=              4.6996    Y=              0.9570    Z=              3.1869  Tot=              5.7583
 Quadrupole moment (field-independent basis, Debye-Ang):
   XX=            -98.2636   YY=            -78.0928   ZZ=            -80.2808
   XY=             -1.8972   XZ=             -8.4317   YZ=              2.9652

 Summary of Natural Population Analysis:

                                       Natural Population
                Natural  -----------------------------------------------
    Atom  No    Charge         Core      Valence    Rydberg      Total
 -----------------------------------------------------------------------
      C    1   -0.18415      0.99966     2.17712    0.00737     3.18415
      N    2   -0.09970      0.99961     2.59067    0.00941     3.59970
      C    3    0.11576      0.99959     1.87145    0.01320     2.88424
      C    4   -0.14766      0.99957     2.13966    0.00844     3.14766
      C    5    0.03982      0.99958     1.95201    0.00860     2.96018
      C    6   -0.15597      0.99957     2.14780    0.00860     3.15597
      C    7    0.10498      0.99958     1.88353    0.01191     2.89502
      C    8    0.02494      0.99964     1.95278    0.02264     2.97506
      N    9   -0.28573      0.99978     2.77226    0.01369     3.78573
      S   10   -0.19772      4.99950     3.18279    0.01543     8.19772
      H   11    0.11181      0.00000     0.38693    0.00125     0.38819
      H   12    0.09172      0.00000     0.40726    0.00102     0.40828
      H   13    0.10775      0.00000     0.39130    0.00095     0.39225
      H   14    0.09883      0.00000     0.39986    0.00131     0.40117
      H   15    0.09788      0.00000     0.40070    0.00142     0.40212
      H   16    0.08484      0.00000     0.41421    0.00095     0.41516
      H   17    0.09770      0.00000     0.40144    0.00086     0.40230
      H   18    0.09491      0.00000     0.40402    0.00108     0.40509
 =======================================================================
   * Total *    0.00000     13.99608    25.87579    0.12813    40.00000

 Normal termination of Gaussian 16 at Tue Dec  8 12:39:39 2020.
