 Gaussian 16, Revision A.03,

 -----------------------------------------------------------
 # opt freq B3LYP/6-31G(d) empiricaldispersion=gd3bj scf=xqc
 -----------------------------------------------------------

 ------------------------------
 CID_86675793_JID_6001_neutraal
 ------------------------------
 Symbolic Z-matrix:
 Charge =  0 Multiplicity = 1

 SCF Done:  E(RB3LYP) =  -725.726594536     A.U. after   16 cycles
 SCF Done:  E(RB3LYP) =  -725.733214605     A.U. after   12 cycles
 SCF Done:  E(RB3LYP) =  -725.733750319     A.U. after   11 cycles
 SCF Done:  E(RB3LYP) =  -725.733868042     A.U. after   11 cycles
 SCF Done:  E(RB3LYP) =  -725.733892720     A.U. after   10 cycles
 SCF Done:  E(RB3LYP) =  -725.733886918     A.U. after   10 cycles
 SCF Done:  E(RB3LYP) =  -725.733905589     A.U. after   10 cycles
 SCF Done:  E(RB3LYP) =  -725.733912765     A.U. after    8 cycles
 SCF Done:  E(RB3LYP) =  -725.733915016     A.U. after    8 cycles
 SCF Done:  E(RB3LYP) =  -725.733915510     A.U. after    8 cycles
 SCF Done:  E(RB3LYP) =  -725.733918181     A.U. after    7 cycles
 SCF Done:  E(RB3LYP) =  -725.733918264     A.U. after    7 cycles
 SCF Done:  E(RB3LYP) =  -725.733918341     A.U. after    7 cycles
 SCF Done:  E(RB3LYP) =  -725.733918408     A.U. after    7 cycles
 SCF Done:  E(RB3LYP) =  -725.733918438     A.U. after    7 cycles
 Optimization completed.
    -- Stationary point found.
 Normal termination of Gaussian 16 at Thu Dec 10 21:15:55 2020.

 --------------------------------------------------------------------
 #N Geom=AllCheck Guess=TCheck SCRF=Check GenChk RB3LYP/6-31G(d) Freq
 --------------------------------------------------------------------

 Structure from the checkpoint file:  "JID_6001.chk"
 ------------------------------
 CID_86675793_JID_6001_neutraal
 ------------------------------
 Charge =  0 Multiplicity = 1

 SCF Done:  E(RB3LYP) =  -725.733918438     A.U. after    1 cycles

  Exact polarizability: 246.711   1.845 155.809   0.748  -0.208  66.652
 Approx polarizability: 364.786  10.631 264.844  -0.920  -0.204 102.586

                      1                      2                      3
                      A                      A                      A
 Frequencies --     15.9894                59.1697                90.6788
 Red. masses --      3.0802                 2.2521                 1.6696
 Frc consts  --      0.0005                 0.0046                 0.0081
 IR Inten    --      0.4368                 0.1349                 0.8418

                      4                      5                      6
                      A                      A                      A
 Frequencies --     99.1128               103.1763               130.6622
 Red. masses --      2.3660                 1.1701                 3.5157
 Frc consts  --      0.0137                 0.0073                 0.0354
 IR Inten    --      3.5679                 0.2033                 1.0615

                      7                      8                      9
                      A                      A                      A
 Frequencies --    132.9324               147.5423               163.0929
 Red. masses --      2.1949                 1.5068                 2.8917
 Frc consts  --      0.0229                 0.0193                 0.0453
 IR Inten    --      2.3597                 1.4420                 1.0160

                     10                     11                     12
                      A                      A                      A
 Frequencies --    223.4289               232.8627               242.9247
 Red. masses --      4.4348                 3.4016                 1.0469
 Frc consts  --      0.1304                 0.1087                 0.0364
 IR Inten    --      3.1946                 0.1676                26.7409

                     13                     14                     15
                      A                      A                      A
 Frequencies --    286.2760               321.0580               326.6598
 Red. masses --      4.2570                 4.9887                 3.3707
 Frc consts  --      0.2056                 0.3030                 0.2119
 IR Inten    --      3.4637                 0.6126                 3.1839

                     16                     17                     18
                      A                      A                      A
 Frequencies --    333.8751               376.9513               382.6113
 Red. masses --      4.0587                 4.2245                 5.3527
 Frc consts  --      0.2666                 0.3537                 0.4617
 IR Inten    --      7.0381                 2.4813                 4.4121

                     19                     20                     21
                      A                      A                      A
 Frequencies --    408.7802               434.2916               518.6070
 Red. masses --      5.6899                 2.9611                 5.5335
 Frc consts  --      0.5602                 0.3291                 0.8768
 IR Inten    --     17.5767                 6.7540                 8.0807

                     22                     23                     24
                      A                      A                      A
 Frequencies --    576.3502               594.2286               627.5410
 Red. masses --      4.6569                 3.3362                 4.2422
 Frc consts  --      0.9114                 0.6941                 0.9843
 IR Inten    --      1.1303                27.0396                 6.9898

                     25                     26                     27
                      A                      A                      A
 Frequencies --    637.2505               650.0572               696.5929
 Red. masses --      4.0521                 5.1835                 1.6598
 Frc consts  --      0.9695                 1.2905                 0.4745
 IR Inten    --     70.5351                 4.4575               308.1697

                     28                     29                     30
                      A                      A                      A
 Frequencies --    753.0710               758.9749               761.2229
 Red. masses --      5.0981                 4.0204                 4.1841
 Frc consts  --      1.7035                 1.3645                 1.4285
 IR Inten    --      6.1330                23.1672                 2.8495

                     31                     32                     33
                      A                      A                      A
 Frequencies --    788.4242               802.2911               847.4938
 Red. masses --      5.3678                 1.7566                 1.5885
 Frc consts  --      1.9659                 0.6662                 0.6722
 IR Inten    --      0.4012                53.1658                27.8365

                     34                     35                     36
                      A                      A                      A
 Frequencies --    869.3218               912.0980               944.9384
 Red. masses --      3.9999                 1.2692                 3.2436
 Frc consts  --      1.7810                 0.6221                 1.7064
 IR Inten    --      8.7922                 0.9373                 6.1196

                     37                     38                     39
                      A                      A                      A
 Frequencies --   1004.8334              1040.4523              1067.9306
 Red. masses --      3.1577                 4.3765                 1.4564
 Frc consts  --      1.8785                 2.7914                 0.9786
 IR Inten    --      7.1360                 4.1662                 1.1056

                     40                     41                     42
                      A                      A                      A
 Frequencies --   1091.4450              1133.6965              1140.5760
 Red. masses --      2.0448                 1.4272                 2.0641
 Frc consts  --      1.4352                 1.0808                 1.5821
 IR Inten    --      9.0549                 3.2640                69.8161

                     43                     44                     45
                      A                      A                      A
 Frequencies --   1158.3894              1159.1805              1185.6705
 Red. masses --      1.3718                 2.4881                 1.2716
 Frc consts  --      1.0846                 1.9698                 1.0533
 IR Inten    --     17.1347               132.3290                 0.9403

                     46                     47                     48
                      A                      A                      A
 Frequencies --   1194.2066              1220.2667              1259.8278
 Red. masses --      1.3082                 1.5469                 2.3866
 Frc consts  --      1.0992                 1.3571                 2.2318
 IR Inten    --     13.3672                61.4576               334.7979

                     49                     50                     51
                      A                      A                      A
 Frequencies --   1286.9757              1300.1350              1370.6909
 Red. masses --      2.9914                 3.7108                 2.1074
 Frc consts  --      2.9192                 3.6957                 2.3328
 IR Inten    --    148.7747               105.6824                28.7154

                     52                     53                     54
                      A                      A                      A
 Frequencies --   1415.0278              1419.2259              1444.8019
 Red. masses --      4.6583                 5.1419                 1.9377
 Frc consts  --      5.4955                 6.1020                 2.3831
 IR Inten    --     76.8155               120.9521                86.0856

                     55                     56                     57
                      A                      A                      A
 Frequencies --   1452.0827              1489.2872              1494.7012
 Red. masses --      1.9321                 1.5605                 1.3412
 Frc consts  --      2.4003                 2.0392                 1.7655
 IR Inten    --     48.5187                26.7808                26.6556

                     58                     59                     60
                      A                      A                      A
 Frequencies --   1505.4366              1507.7560              1510.8222
 Red. masses --      1.5108                 1.0450                 1.0475
 Frc consts  --      2.0174                 1.3997                 1.4088
 IR Inten    --      4.3721                 3.8040                 9.5015

                     61                     62                     63
                      A                      A                      A
 Frequencies --   1511.3214              1517.8370              1526.9315
 Red. masses --      1.0439                 1.4786                 1.0646
 Frc consts  --      1.4049                 2.0070                 1.4624
 IR Inten    --      2.0024                40.3895                13.3886

                     64                     65                     66
                      A                      A                      A
 Frequencies --   1538.8410              1553.2145              1587.9348
 Red. masses --      1.2192                 2.7939                 6.9655
 Frc consts  --      1.7011                 3.9712                10.3482
 IR Inten    --      5.7344                 3.9018               239.4432

                     67                     68                     69
                      A                      A                      A
 Frequencies --   1626.6209              1683.9673              1697.4498
 Red. masses --      6.1523                 2.4969                 1.5622
 Frc consts  --      9.5909                 4.1717                 2.6521
 IR Inten    --     10.3980                10.0945               100.7309

                     70                     71                     72
                      A                      A                      A
 Frequencies --   1776.8976              3058.9349              3074.4554
 Red. masses --     11.2216                 1.0354                 1.0291
 Frc consts  --     20.8751                 5.7079                 5.7314
 IR Inten    --    310.6368                26.4814                52.7182

                     73                     74                     75
                      A                      A                      A
 Frequencies --   3081.1214              3116.6997              3130.5587
 Red. masses --      1.0335                 1.1004                 1.1031
 Frc consts  --      5.7805                 6.2977                 6.3695
 IR Inten    --     50.5517                11.1312                19.2544

                     76                     77                     78
                      A                      A                      A
 Frequencies --   3143.3165              3148.8244              3174.8737
 Red. masses --      1.1058                 1.1074                 1.1010
 Frc consts  --      6.4373                 6.4691                 6.5389
 IR Inten    --     16.5220                22.6541                19.2004

                     79                     80                     81
                      A                      A                      A
 Frequencies --   3177.3857              3179.7957              3182.1750
 Red. masses --      1.1073                 1.0894                 1.0895
 Frc consts  --      6.5866                 6.4900                 6.5004
 IR Inten    --     19.1781                 5.4288                22.7039

                     82                     83                     84
                      A                      A                      A
 Frequencies --   3207.7097              3533.0823              3629.3630
 Red. masses --      1.0928                 1.0484                 1.0967
 Frc consts  --      6.6248                 7.7102                 8.5115
 IR Inten    --     21.6618                 5.8362                 4.7580

 - Thermochemistry -
 -------------------
 Temperature   298.150 Kelvin.  Pressure   1.00000 Atm.
 Atom     1 has atomic number  6 and mass  12.00000

 Molecular mass:   218.10553 amu.
 Principal axes and moments of inertia in atomic units:
                           1         2         3
     Eigenvalues --  1434.179625779.962167178.23667
           X            0.99995  -0.00992   0.00208
           Y            0.00993   0.99995  -0.00065
           Z           -0.00208   0.00067   1.00000
 This molecule is an asymmetric top.
 Rotational symmetry number  1.
 Warning -- assumption of classical behavior for rotation
           may cause significant error
 Rotational temperatures (Kelvin)      0.06039     0.01499     0.01207
 Rotational constants (GHZ):           1.25838     0.31224     0.25142
 Zero-point vibrational energy     645763.8 (Joules/Mol)
                                  154.34124 (Kcal/Mol)
 Warning -- explicit consideration of  23 degrees of freedom as
           vibrations may cause significant error
 Vibrational temperatures:     23.01    85.13   130.47   142.60   148.45
          (Kelvin)            187.99   191.26   212.28   234.65   321.46
                              335.04   349.51   411.89   461.93   469.99
                              480.37   542.35   550.49   588.14   624.85
                              746.16   829.24   854.96   902.89   916.86
                              935.29  1002.24  1083.50  1092.00  1095.23
                             1134.37  1154.32  1219.35  1250.76  1312.31
                             1359.56  1445.73  1496.98  1536.51  1570.35
                             1631.14  1641.03  1666.66  1667.80  1705.92
                             1718.20  1755.69  1812.61  1851.67  1870.60
                             1972.12  2035.91  2041.95  2078.75  2089.22
                             2142.75  2150.54  2165.99  2169.32  2173.74
                             2174.45  2183.83  2196.91  2214.05  2234.73
                             2284.68  2340.34  2422.85  2442.25  2556.56
                             4401.13  4423.46  4433.05  4484.24  4504.18
                             4522.53  4530.46  4567.94  4571.55  4575.02
                             4578.44  4615.18  5083.32  5221.84

 Zero-point correction=                           0.245958 (Hartree/Particle)
 Thermal correction to Energy=                    0.261844
 Thermal correction to Enthalpy=                  0.262789
 Thermal correction to Gibbs Free Energy=         0.201927
 Sum of electronic and zero-point Energies=           -725.487960
 Sum of electronic and thermal Energies=              -725.472074
 Sum of electronic and thermal Enthalpies=            -725.471130
 Sum of electronic and thermal Free Energies=         -725.531991

                     E (Thermal)             CV                S
                      KCal/Mol        Cal/Mol-Kelvin    Cal/Mol-Kelvin
 Total                  164.310             58.542            128.094
 Electronic               0.000              0.000              0.000
 Translational            0.889              2.981             42.042
 Rotational               0.889              2.981             32.453
 Vibrational            162.532             52.580             53.598
 Vibration     1          0.593              1.986              7.079
 Vibration     2          0.597              1.974              4.485
 Vibration     3          0.602              1.956              3.645
 Vibration     4          0.604              1.950              3.472
 Vibration     5          0.605              1.947              3.393
 Vibration     6          0.612              1.923              2.936
 Vibration     7          0.613              1.920              2.903
 Vibration     8          0.617              1.905              2.704
 Vibration     9          0.623              1.888              2.514
 Vibration    10          0.649              1.805              1.931
 Vibration    11          0.654              1.791              1.857
 Vibration    12          0.659              1.774              1.781
 Vibration    13          0.684              1.699              1.496
 Vibration    14          0.707              1.633              1.305
 Vibration    15          0.710              1.622              1.277
 Vibration    16          0.715              1.608              1.241
 Vibration    17          0.748              1.519              1.051
 Vibration    18          0.752              1.507              1.029
 Vibration    19          0.773              1.451              0.931
 Vibration    20          0.795              1.395              0.845
 Vibration    21          0.874              1.209              0.613
 Vibration    22          0.933              1.082              0.492
 Vibration    23          0.952              1.044              0.460

                           ! Non-Optimized Parameters !
 Normal termination of Gaussian 16 at Thu Dec 10 21:24:38 2020.

 ----------------------------------------------------------------------
 # B3LYP/6-311++G(d,p) empiricaldispersion=gd3bj scf=xqc pop=npa geom=c
 heck
 ----------------------------------------------------------------------

 --------------------------------------
 CID_86675793_JID_6001_Energie_neutraal
 --------------------------------------
 Structure from the checkpoint file:  "JID_6001.chk"
 Charge =  0 Multiplicity = 1

 SCF Done:  E(RB3LYP) =  -725.935910412     A.U. after   16 cycles
 Normal termination of Gaussian 16 at Thu Dec 10 21:28:18 2020.

 ----------------------------------------------------------------------
 # B3LYP/6-311++G(d,p) empiricaldispersion=gd3bj scf=xqc pop=npa geom=c
 heck
 ----------------------------------------------------------------------

 ------------------------------------
 CID_86675793_JID_6001_Energie_kation
 ------------------------------------
 Structure from the checkpoint file:  "JID_6001.chk"
 Charge =  1 Multiplicity = 2

 SCF Done:  E(UB3LYP) =  -725.680530095     A.U. after   24 cycles
 Normal termination of Gaussian 16 at Thu Dec 10 21:35:39 2020.
 Gaussian 16:  ES64L-G16RevA.03 25-Dec-2016

 ----------------------------------------------------------------------
 # B3LYP/6-311++G(d,p) empiricaldispersion=gd3bj scf=xqc pop=npa geom=c
 heck
 ----------------------------------------------------------------------

 -----------------------------------
 CID_86675793_JID_6001_Energie_anion
 -----------------------------------
 Structure from the checkpoint file:  "JID_6001.chk"
 Charge = -1 Multiplicity = 2

                         Standard orientation:
 ---------------------------------------------------------------------
 Center     Atomic      Atomic             Coordinates (Angstroms)
 Number     Number       Type             X           Y           Z
 ---------------------------------------------------------------------
      1          6           0        0.341698    2.691987    0.004744
      2          6           0        0.116094    1.211785    0.001141
      3          6           0        1.082992    0.209864   -0.005469
      4          7           0        0.463762   -1.046439   -0.006304
      5          6           0       -0.901739   -0.844741    0.000933
      6          6           0       -1.151596    0.554873    0.005678
      7          6           0       -2.475926    1.033221    0.005232
      8          6           0       -3.529785    0.128110    0.009885
      9          6           0       -3.255451   -1.266239    0.009573
     10          6           0       -1.963235   -1.761517    0.001907
     11          7           0       -4.868236    0.558921    0.079906
     12          6           0        1.096714   -2.354236   -0.012856
     13          6           0        2.522227    0.457782   -0.006478
     14          8           0        3.023176    1.569246   -0.019126
     15          8           0        3.273781   -0.676896    0.010102
     16          6           0        4.690764   -0.458691    0.011262
     17          1           0        0.946180    3.004560    0.861953
     18          1           0       -0.613874    3.224140    0.041127
     19          1           0        0.886522    3.018631   -0.887182
     20          1           0       -2.674018    2.102144    0.005358
     21          1           0       -4.091579   -1.961043    0.024732
     22          1           0       -1.796924   -2.833899   -0.000684
     23          1           0       -5.002149    1.510303   -0.243067
     24          1           0       -5.519129   -0.061175   -0.388450
     25          1           0        1.735992   -2.476843   -0.890005
     26          1           0        1.707182   -2.501992    0.881284
     27          1           0        0.313564   -3.112290   -0.036734
     28          1           0        4.996860    0.090809   -0.882753
     29          1           0        4.992119    0.110395    0.894562
     30          1           0        5.138379   -1.453107    0.023535
 ---------------------------------------------------------------------

 SCF Done:  E(UB3LYP) =  -725.933607727     A.U. after   33 cycles
 SCF Done:  E(UB3LYP) =  -725.933607727     a.u. after    1 cycles

 The electronic state is 2-A.
 Alpha  occ. eigenvalues --  -19.01456 -18.93036 -14.20189 -14.19046 -10.11914
 Alpha  occ. eigenvalues --  -10.10396 -10.07649 -10.06018 -10.04962 -10.03728
 Alpha  occ. eigenvalues --  -10.02046 -10.01946 -10.01409 -10.01268 -10.00951
 Alpha  occ. eigenvalues --  -10.00625  -0.95148  -0.85371  -0.83152  -0.78442
 Alpha  occ. eigenvalues --   -0.68795  -0.65682  -0.61125  -0.59723  -0.58360
 Alpha  occ. eigenvalues --   -0.56385  -0.51847  -0.49068  -0.44363  -0.43756
 Alpha  occ. eigenvalues --   -0.40963  -0.38875  -0.36620  -0.35852  -0.35426
 Alpha  occ. eigenvalues --   -0.35164  -0.32465  -0.32403  -0.30218  -0.29792
 Alpha  occ. eigenvalues --   -0.28520  -0.27698  -0.27248  -0.26338  -0.25358
 Alpha  occ. eigenvalues --   -0.25196  -0.24415  -0.23997  -0.21968  -0.21465
 Alpha  occ. eigenvalues --   -0.21175  -0.18843  -0.16512  -0.14939  -0.12689
 Alpha  occ. eigenvalues --   -0.12022  -0.06622  -0.05161   0.05805
 Alpha virt. eigenvalues --    0.07882   0.08061   0.09271   0.10159   0.10738
 Alpha virt. eigenvalues --    0.11644   0.12073   0.12199   0.13485   0.13702
 Alpha virt. eigenvalues --    0.14271   0.14633   0.14910   0.15302   0.15941

  Beta  occ. eigenvalues --  -19.01343 -18.92644 -14.20038 -14.19050 -10.11646
  Beta  occ. eigenvalues --  -10.10402 -10.07655 -10.06091 -10.04998 -10.03601
  Beta  occ. eigenvalues --  -10.02063 -10.01792 -10.01436 -10.01033 -10.00726
  Beta  occ. eigenvalues --  -10.00406  -0.94801  -0.84762  -0.82923  -0.78428
  Beta  occ. eigenvalues --   -0.68568  -0.65313  -0.60851  -0.59534  -0.58097
  Beta  occ. eigenvalues --   -0.56169  -0.51688  -0.48503  -0.44227  -0.43533
  Beta  occ. eigenvalues --   -0.40776  -0.38758  -0.36424  -0.35661  -0.35321
  Beta  occ. eigenvalues --   -0.34731  -0.32222  -0.32184  -0.30100  -0.29538
  Beta  occ. eigenvalues --   -0.28375  -0.27251  -0.27150  -0.26189  -0.25142
  Beta  occ. eigenvalues --   -0.24269  -0.24023  -0.23842  -0.21799  -0.21251
  Beta  occ. eigenvalues --   -0.20942  -0.18736  -0.15282  -0.13990  -0.11686
  Beta  occ. eigenvalues --   -0.11649  -0.05340  -0.03996
  Beta virt. eigenvalues --    0.07827   0.08008   0.09208   0.10102   0.10678
  Beta virt. eigenvalues --    0.10976   0.11871   0.12049   0.12165   0.13433
  Beta virt. eigenvalues --    0.13724   0.14401   0.14698   0.15280   0.15518

 Mulliken charges and spin densities:
               1          2
     1  C   -0.561482  -0.009201
     2  C    0.744061   0.103184
     3  C   -0.464722   0.151948
     4  N    0.071983   0.046402
     5  C   -0.233853  -0.028589
     6  C    1.162451  -0.020991
     7  C   -0.492364   0.198314
     8  C   -0.796741  -0.047189
     9  C    0.020660   0.175043
    10  C   -0.621322   0.142844
    11  N   -0.318654  -0.000344
    12  C   -0.378818  -0.007905
    13  C   -0.312567   0.145010
    14  O   -0.374330   0.122164
    15  O   -0.174334   0.011885
    16  C   -0.216529  -0.005526
    17  H    0.154490   0.006905
    18  H    0.090618  -0.000364
    19  H    0.149048   0.011400
    20  H    0.087717  -0.013479
    21  H    0.100472  -0.014461
    22  H    0.081995  -0.010227
    23  H    0.203795   0.004452
    24  H    0.213990   0.000733
    25  H    0.171147   0.014447
    26  H    0.176217   0.009408
    27  H    0.101563  -0.000606
    28  H    0.152377   0.010283
    29  H    0.157582   0.004119
    30  H    0.105549   0.000343
 Sum of Mulliken charges =  -1.00000   1.00000

 Dipole moment (field-independent basis, Debye):
    X=              0.3152    Y=             -2.6883    Z=             -0.9287  Tot=              2.8617
 Quadrupole moment (field-independent basis, Debye-Ang):
   XX=           -129.4045   YY=           -108.3016   ZZ=           -105.8245
   XY=            -12.6626   XZ=              6.3792   YZ=             -0.5980

 Summary of Natural Population Analysis:

                                       Natural Population
                Natural  -----------------------------------------------
    Atom  No    Charge         Core      Valence    Rydberg      Total
 -----------------------------------------------------------------------
      C    1   -0.28718      0.99960     2.28285    0.00473     3.28718
      C    2    0.00938      0.99948     1.98329    0.00786     2.99062
      C    3    0.05375      0.99938     1.93310    0.01377     2.94625
      N    4   -0.19159      0.99960     2.68293    0.00906     3.69159
      C    5    0.07742      0.99948     1.91187    0.01123     2.92258
      C    6   -0.04590      0.99947     2.03848    0.00794     3.04590
      C    7   -0.08400      0.99949     2.07609    0.00842     3.08400
      C    8    0.04924      0.99950     1.94140    0.00987     2.95076
      C    9   -0.08776      0.99957     2.07784    0.01035     3.08776
      C   10   -0.08944      0.99943     2.08210    0.00791     3.08944
      N   11   -0.40984      0.99972     2.89986    0.01025     3.90984
      C   12   -0.16649      0.99962     2.15996    0.00691     3.16649
      C   13    0.41442      0.99962     1.56333    0.02262     2.58558
      O   14   -0.29428      0.99988     3.28796    0.00644     4.29428
      O   15   -0.28644      0.99986     3.27592    0.01066     4.28644
      C   16   -0.09886      0.99955     2.09132    0.00799     3.09886
      H   17    0.10518      0.00000     0.39355    0.00127     0.39482
      H   18    0.08943      0.00000     0.40947    0.00110     0.41057
      H   19    0.10406      0.00000     0.39465    0.00129     0.39594
      H   20    0.08703      0.00000     0.41134    0.00163     0.41297
      H   21    0.08293      0.00000     0.41530    0.00177     0.41707
      H   22    0.08919      0.00000     0.40964    0.00116     0.41081
      H   23    0.17523      0.00000     0.32326    0.00151     0.32477
      H   24    0.17436      0.00000     0.32398    0.00167     0.32564
      H   25    0.09480      0.00000     0.40369    0.00150     0.40520
      H   26    0.09400      0.00000     0.40449    0.00151     0.40600
      H   27    0.09152      0.00000     0.40746    0.00102     0.40848
      H   28    0.08566      0.00000     0.41258    0.00177     0.41434
      H   29    0.08556      0.00000     0.41267    0.00176     0.41444
      H   30    0.07878      0.00000     0.42002    0.00120     0.42122
 =======================================================================
   * Total *    0.00017     15.99326    41.83038    0.17619    57.99983

 Normal termination of Gaussian 16 at Thu Dec 10 21:45:43 2020.
