 Gaussian 16, Revision A.03,

 -----------------------------------------------------------
 # opt freq B3LYP/6-31G(d) empiricaldispersion=gd3bj scf=xqc
 -----------------------------------------------------------

 -------------------------------
 CID_130565722_JID_4368_neutraal
 -------------------------------
 Symbolic Z-matrix:
 Charge =  0 Multiplicity = 1

 SCF Done:  E(RB3LYP) =  -631.004203785     A.U. after   15 cycles
 SCF Done:  E(RB3LYP) =  -631.012223113     A.U. after   13 cycles
 SCF Done:  E(RB3LYP) =  -631.012976727     A.U. after   13 cycles
 SCF Done:  E(RB3LYP) =  -631.013067546     A.U. after   12 cycles
 SCF Done:  E(RB3LYP) =  -631.013118008     A.U. after   11 cycles
 SCF Done:  E(RB3LYP) =  -631.013190667     A.U. after   11 cycles
 SCF Done:  E(RB3LYP) =  -631.013217429     A.U. after   11 cycles
 SCF Done:  E(RB3LYP) =  -631.013233776     A.U. after   10 cycles
 SCF Done:  E(RB3LYP) =  -631.013240997     A.U. after   10 cycles
 SCF Done:  E(RB3LYP) =  -631.013243281     A.U. after    9 cycles
 SCF Done:  E(RB3LYP) =  -631.013245121     A.U. after    9 cycles
 SCF Done:  E(RB3LYP) =  -631.013247193     A.U. after    9 cycles
 SCF Done:  E(RB3LYP) =  -631.013248144     A.U. after    8 cycles
 SCF Done:  E(RB3LYP) =  -631.013248540     A.U. after    8 cycles
 SCF Done:  E(RB3LYP) =  -631.013248601     A.U. after    7 cycles
 Optimization completed.
    -- Stationary point found.
 Normal termination of Gaussian 16 at Thu Dec 10 09:25:01 2020.

 --------------------------------------------------------------------
 #N Geom=AllCheck Guess=TCheck SCRF=Check GenChk RB3LYP/6-31G(d) Freq
 --------------------------------------------------------------------

 Structure from the checkpoint file:  "JID_4368.chk"
 -------------------------------
 CID_130565722_JID_4368_neutraal
 -------------------------------
 Charge =  0 Multiplicity = 1

 SCF Done:  E(RB3LYP) =  -631.013248601     A.U. after    1 cycles

  Exact polarizability: 182.189  -0.315 118.830  -6.933   7.030  75.213
 Approx polarizability: 275.484 -10.801 199.534 -24.984  20.365 119.161

                      1                      2                      3
                      A                      A                      A
 Frequencies --     44.9668                72.4701                79.4527
 Red. masses --      4.2903                 2.2044                 4.4499
 Frc consts  --      0.0051                 0.0068                 0.0166
 IR Inten    --      3.6169                 1.1191                 0.4987

                      4                      5                      6
                      A                      A                      A
 Frequencies --    109.5402               121.2536               150.0821
 Red. masses --      3.3824                 2.8729                 2.1082
 Frc consts  --      0.0239                 0.0249                 0.0280
 IR Inten    --      3.4740                 1.2658                 1.5649

                      7                      8                      9
                      A                      A                      A
 Frequencies --    172.1357               208.8701               274.0805
 Red. masses --      1.5216                 4.0538                 6.3826
 Frc consts  --      0.0266                 0.1042                 0.2825
 IR Inten    --      0.9785                 2.3711                 3.0646

                     10                     11                     12
                      A                      A                      A
 Frequencies --    316.3074               337.2600               426.8293
 Red. masses --      4.5032                 4.4253                 3.8483
 Frc consts  --      0.2655                 0.2966                 0.4131
 IR Inten    --      7.2282                 1.2647                 2.8314

                     13                     14                     15
                      A                      A                      A
 Frequencies --    462.9736               520.6940               545.1123
 Red. masses --      5.4200                 5.5643                 1.8247
 Frc consts  --      0.6845                 0.8888                 0.3195
 IR Inten    --     11.3327                 1.4948                 0.5690

                     16                     17                     18
                      A                      A                      A
 Frequencies --    564.1004               569.7054               617.8876
 Red. masses --      4.1799                 4.1551                 3.8506
 Frc consts  --      0.7837                 0.7946                 0.8662
 IR Inten    --      1.0000                 4.1575                14.2504

                     19                     20                     21
                      A                      A                      A
 Frequencies --    637.7286               698.2525               786.2209
 Red. masses --      6.2261                 7.2114                 3.9723
 Frc consts  --      1.4919                 2.0715                 1.4467
 IR Inten    --      5.4246                 0.6894                 0.3923

                     22                     23                     24
                      A                      A                      A
 Frequencies --    811.5719               834.1503               841.9287
 Red. masses --      4.8480                 1.3981                 4.9807
 Frc consts  --      1.8813                 0.5732                 2.0801
 IR Inten    --     26.3552                 1.3820                 8.4847

                     25                     26                     27
                      A                      A                      A
 Frequencies --    864.6584               879.7397               901.7025
 Red. masses --      1.6395                 3.1543                 1.5004
 Frc consts  --      0.7222                 1.4383                 0.7188
 IR Inten    --     12.4612                13.7434                14.1512

                     28                     29                     30
                      A                      A                      A
 Frequencies --    952.2940               982.8115               988.3515
 Red. masses --      1.4182                 2.9713                 1.5437
 Frc consts  --      0.7578                 1.6910                 0.8885
 IR Inten    --      1.1507                 3.7721                 1.0790

                     31                     32                     33
                      A                      A                      A
 Frequencies --   1023.3869              1025.7901              1049.3396
 Red. masses --      2.2680                 2.1581                 7.6911
 Frc consts  --      1.3995                 1.3380                 4.9897
 IR Inten    --      5.1237                 1.3646                97.3889

                     34                     35                     36
                      A                      A                      A
 Frequencies --   1084.8228              1173.8447              1184.5215
 Red. masses --      1.7323                 1.2199                 2.0680
 Frc consts  --      1.2011                 0.9904                 1.7095
 IR Inten    --      1.9336                 0.2492                46.3484

                     37                     38                     39
                      A                      A                      A
 Frequencies --   1188.0055              1205.1965              1222.7829
 Red. masses --      1.4313                 2.0441                 1.6178
 Frc consts  --      1.1902                 1.7493                 1.4252
 IR Inten    --     33.2000                54.1130                19.4037

                     40                     41                     42
                      A                      A                      A
 Frequencies --   1240.9060              1247.1385              1277.7478
 Red. masses --      1.2576                 1.7610                 1.9954
 Frc consts  --      1.1410                 1.6138                 1.9194
 IR Inten    --      3.0779                10.0313                16.2830

                     43                     44                     45
                      A                      A                      A
 Frequencies --   1290.0443              1295.3352              1314.3977
 Red. masses --      2.8157                 2.1697                 4.2815
 Frc consts  --      2.7609                 2.1449                 4.3582
 IR Inten    --     34.0358                48.2739                20.1860

                     46                     47                     48
                      A                      A                      A
 Frequencies --   1334.1573              1366.6305              1452.0892
 Red. masses --      1.6838                 2.1356                 2.2715
 Frc consts  --      1.7658                 2.3500                 2.8219
 IR Inten    --     25.6552                17.1444                19.9042

                     49                     50                     51
                      A                      A                      A
 Frequencies --   1483.2452              1493.6598              1514.8014
 Red. masses --      1.0823                 1.3250                 1.1070
 Frc consts  --      1.4029                 1.7417                 1.4966
 IR Inten    --      3.8353                21.6828                 5.8789

                     52                     53                     54
                      A                      A                      A
 Frequencies --   1518.5449              1533.5677              1539.1652
 Red. masses --      1.0609                 1.5131                 1.2965
 Frc consts  --      1.4414                 2.0966                 1.8096
 IR Inten    --      9.0039                47.0800                 4.4430

                     55                     56                     57
                      A                      A                      A
 Frequencies --   1605.8839              1639.9039              1667.8922
 Red. masses --      5.5595                 6.6982                 7.3072
 Frc consts  --      8.4472                10.6132                11.9766
 IR Inten    --     43.5351               100.9411                91.4894

                     58                     59                     60
                      A                      A                      A
 Frequencies --   1812.7216              3041.6864              3062.1519
 Red. masses --     12.3332                 1.0325                 1.0709
 Frc consts  --     23.8776                 5.6285                 5.9164
 IR Inten    --    378.3327                41.9909                14.4801

                     61                     62                     63
                      A                      A                      A
 Frequencies --   3080.0591              3106.8590              3114.5416
 Red. masses --      1.0626                 1.1069                 1.0975
 Frc consts  --      5.9392                 6.2949                 6.2723
 IR Inten    --     12.3126                31.1256                 1.4286

                     64                     65                     66
                      A                      A                      A
 Frequencies --   3127.0566              3165.7300              3178.3580
 Red. masses --      1.0972                 1.1027                 1.0891
 Frc consts  --      6.3215                 6.5109                 6.4821
 IR Inten    --     12.0519                20.1274                18.0871

                     67                     68                     69
                      A                      A                      A
 Frequencies --   3182.9633              3225.6185              3237.5321
 Red. masses --      1.0912                 1.0940                 1.0953
 Frc consts  --      6.5137                 6.7062                 6.7639
 IR Inten    --     17.4112                 7.1395                 2.3605

 - Thermochemistry -
 -------------------
 Temperature   298.150 Kelvin.  Pressure   1.00000 Atm.
 Atom     1 has atomic number  6 and mass  12.00000

 Molecular mass:   189.07898 amu.
 Principal axes and moments of inertia in atomic units:
                           1         2         3
     Eigenvalues --  1394.692423927.537804817.87333
           X            0.99992   0.00551   0.01169
           Y           -0.00533   0.99987  -0.01502
           Z           -0.01177   0.01495   0.99982
 This molecule is an asymmetric top.
 Rotational symmetry number  1.
 Warning -- assumption of classical behavior for rotation
           may cause significant error
 Rotational temperatures (Kelvin)      0.06210     0.02205     0.01798
 Rotational constants (GHZ):           1.29401     0.45951     0.37459
 Zero-point vibrational energy     526842.6 (Joules/Mol)
                                  125.91841 (Kcal/Mol)
 Warning -- explicit consideration of  18 degrees of freedom as
           vibrations may cause significant error
 Vibrational temperatures:     64.70   104.27   114.31   157.60   174.46
          (Kelvin)            215.93   247.66   300.52   394.34   455.10
                              485.24   614.11   666.12   749.16   784.30
                              811.61   819.68   889.00   917.55  1004.63
                             1131.20  1167.67  1200.16  1211.35  1244.05
                             1265.75  1297.35  1370.14  1414.05  1422.02
                             1472.43  1475.88  1509.77  1560.82  1688.90
                             1704.26  1709.27  1734.01  1759.31  1785.39
                             1794.35  1838.39  1856.09  1863.70  1891.13
                             1919.55  1966.28  2089.23  2134.06  2149.04
                             2179.46  2184.85  2206.46  2214.52  2310.51
                             2359.46  2399.72  2608.10  4376.31  4405.75
                             4431.52  4470.08  4481.13  4499.14  4554.78
                             4572.95  4579.57  4640.95  4658.09

 Zero-point correction=                           0.200664 (Hartree/Particle)
 Thermal correction to Energy=                    0.212978
 Thermal correction to Enthalpy=                  0.213922
 Thermal correction to Gibbs Free Energy=         0.161081
 Sum of electronic and zero-point Energies=           -630.812585
 Sum of electronic and thermal Energies=              -630.800270
 Sum of electronic and thermal Enthalpies=            -630.799326
 Sum of electronic and thermal Free Energies=         -630.852168

                     E (Thermal)             CV                S
                      KCal/Mol        Cal/Mol-Kelvin    Cal/Mol-Kelvin
 Total                  133.646             45.936            111.214
 Electronic               0.000              0.000              0.000
 Translational            0.889              2.981             41.617
 Rotational               0.889              2.981             31.646
 Vibrational            131.868             39.974             37.952
 Vibration     1          0.595              1.979              5.027
 Vibration     2          0.599              1.967              4.085
 Vibration     3          0.600              1.963              3.904
 Vibration     4          0.606              1.942              3.277
 Vibration     5          0.609              1.931              3.080
 Vibration     6          0.618              1.903              2.671
 Vibration     7          0.626              1.877              2.412
 Vibration     8          0.642              1.827              2.054
 Vibration     9          0.676              1.721              1.570
 Vibration    10          0.703              1.642              1.329
 Vibration    11          0.718              1.601              1.225
 Vibration    12          0.788              1.412              0.869
 Vibration    13          0.821              1.332              0.757
 Vibration    14          0.876              1.204              0.608
 Vibration    15          0.900              1.150              0.554
 Vibration    16          0.920              1.109              0.516
 Vibration    17          0.926              1.097              0.505
 Vibration    18          0.978              0.994              0.420

                           ! Non-Optimized Parameters !
 Normal termination of Gaussian 16 at Thu Dec 10 09:32:28 2020.

 ----------------------------------------------------------------------
 # B3LYP/6-311++G(d,p) empiricaldispersion=gd3bj scf=xqc pop=npa geom=c
 heck
 ----------------------------------------------------------------------

 ---------------------------------------
 CID_130565722_JID_4368_Energie_neutraal
 ---------------------------------------
 Structure from the checkpoint file:  "JID_4368.chk"
 Charge =  0 Multiplicity = 1

 SCF Done:  E(RB3LYP) =  -631.184119516     A.U. after   16 cycles
 Normal termination of Gaussian 16 at Thu Dec 10 09:35:49 2020.

 ----------------------------------------------------------------------
 # B3LYP/6-311++G(d,p) empiricaldispersion=gd3bj scf=xqc pop=npa geom=c
 heck
 ----------------------------------------------------------------------

 -------------------------------------
 CID_130565722_JID_4368_Energie_kation
 -------------------------------------
 Structure from the checkpoint file:  "JID_4368.chk"
 Charge =  1 Multiplicity = 2

 SCF Done:  E(UB3LYP) =  -630.863305888     A.U. after   30 cycles
 Normal termination of Gaussian 16 at Thu Dec 10 09:44:51 2020.
 Gaussian 16:  ES64L-G16RevA.03 25-Dec-2016

 ----------------------------------------------------------------------
 # B3LYP/6-311++G(d,p) empiricaldispersion=gd3bj scf=xqc pop=npa geom=c
 heck
 ----------------------------------------------------------------------

 ------------------------------------
 CID_130565722_JID_4368_Energie_anion
 ------------------------------------
 Structure from the checkpoint file:  "JID_4368.chk"
 Charge = -1 Multiplicity = 2

                         Standard orientation:
 ---------------------------------------------------------------------
 Center     Atomic      Atomic             Coordinates (Angstroms)
 Number     Number       Type             X           Y           Z
 ---------------------------------------------------------------------
      1          6           0       -0.687238    2.436737   -1.051395
      2          8           0       -1.241678    1.936828    0.170850
      3          6           0       -1.631856    0.622658    0.123879
      4          6           0       -0.701589   -0.433027    0.075862
      5          6           0       -1.232287   -1.734003    0.013922
      6          7           0       -2.532566   -2.031451    0.007949
      7          6           0       -3.390583   -1.004936    0.073340
      8          6           0       -2.993458    0.329199    0.130057
      9          6           0        0.752943   -0.237346    0.138002
     10          6           0        1.663589   -0.896027   -0.610046
     11          6           0        3.037455   -0.503039   -0.240271
     12          8           0        4.073562   -0.909373   -0.732450
     13          6           0        2.922088    0.533248    0.888829
     14          6           0        1.413234    0.690727    1.147357
     15          1           0       -0.427151    3.479492   -0.862538
     16          1           0       -1.426832    2.380424   -1.859282
     17          1           0        0.210386    1.879804   -1.344147
     18          1           0       -0.544434   -2.577223   -0.004037
     19          1           0       -4.447982   -1.261421    0.070417
     20          1           0       -3.714607    1.138469    0.168008
     21          1           0        1.452520   -1.610594   -1.397478
     22          1           0        3.401232    1.465373    0.570936
     23          1           0        3.472941    0.176362    1.764817
     24          1           0        1.124720    0.386597    2.161241
     25          1           0        1.058313    1.718091    1.031997
 ---------------------------------------------------------------------

 SCF Done:  E(UB3LYP) =  -631.206655205     A.U. after   27 cycles

 The electronic state is 2-A.
 Alpha  occ. eigenvalues --  -19.02580 -18.93322 -14.17149 -10.11155 -10.09964
 Alpha  occ. eigenvalues --  -10.08092 -10.06743 -10.06136 -10.04793 -10.04129
 Alpha  occ. eigenvalues --  -10.04029 -10.03606 -10.02910 -10.00611  -0.94207
 Alpha  occ. eigenvalues --   -0.87142  -0.80578  -0.70716  -0.66759  -0.63484
 Alpha  occ. eigenvalues --   -0.59259  -0.57328  -0.54003  -0.49703  -0.48291
 Alpha  occ. eigenvalues --   -0.42387  -0.39862  -0.38670  -0.37383  -0.35506
 Alpha  occ. eigenvalues --   -0.34259  -0.33410  -0.32389  -0.32067  -0.30920
 Alpha  occ. eigenvalues --   -0.27524  -0.26647  -0.25569  -0.25089  -0.24399
 Alpha  occ. eigenvalues --   -0.23757  -0.23393  -0.22437  -0.21250  -0.17548
 Alpha  occ. eigenvalues --   -0.14809  -0.14076  -0.12871  -0.10722  -0.08841
 Alpha  occ. eigenvalues --    0.03606
 Alpha virt. eigenvalues --    0.07941   0.09122   0.09938   0.10308   0.10866
 Alpha virt. eigenvalues --    0.11277   0.11868   0.12070   0.12365   0.13127
 Alpha virt. eigenvalues --    0.13917   0.14077   0.15523   0.16139   0.16536

  Beta  occ. eigenvalues --  -19.02576 -18.92974 -14.17170 -10.11121 -10.09736
  Beta  occ. eigenvalues --  -10.07933 -10.06656 -10.05832 -10.04873 -10.04047
  Beta  occ. eigenvalues --  -10.04036 -10.03623 -10.02521 -10.00491  -0.94116
  Beta  occ. eigenvalues --   -0.86525  -0.80376  -0.70216  -0.66515  -0.63144
  Beta  occ. eigenvalues --   -0.59115  -0.57060  -0.53514  -0.49503  -0.47966
  Beta  occ. eigenvalues --   -0.42048  -0.39504  -0.38422  -0.37186  -0.35303
  Beta  occ. eigenvalues --   -0.33997  -0.33165  -0.32239  -0.31873  -0.30753
  Beta  occ. eigenvalues --   -0.27099  -0.26297  -0.25350  -0.24554  -0.24069
  Beta  occ. eigenvalues --   -0.23436  -0.23276  -0.22111  -0.20013  -0.17172
  Beta  occ. eigenvalues --   -0.13680  -0.13569  -0.12740  -0.09206  -0.08430
  Beta virt. eigenvalues --    0.07810   0.09064   0.09454   0.09973   0.10564
  Beta virt. eigenvalues --    0.10878   0.11256   0.11865   0.12306   0.12989
  Beta virt. eigenvalues --    0.13741   0.13917   0.14576   0.15542   0.16165

 Mulliken charges and spin densities:
               1          2
     1  C   -0.304837  -0.043167
     2  O   -0.136939   0.003347
     3  C   -1.153158   0.175993
     4  C    0.970367   0.031085
     5  C   -0.689359   0.046553
     6  N   -0.073147  -0.020954
     7  C   -0.523709   0.231952
     8  C    0.430508  -0.054179
     9  C    1.055649   0.228610
    10  C   -0.510859   0.154314
    11  C   -0.249808   0.091522
    12  O   -0.408912   0.119808
    13  C   -0.328729   0.013230
    14  C   -0.546779  -0.062411
    15  H    0.110836   0.018849
    16  H    0.099437   0.020866
    17  H    0.163326   0.012220
    18  H    0.159475  -0.002154
    19  H    0.121998  -0.017226
    20  H    0.152281   0.010012
    21  H    0.152978  -0.003577
    22  H    0.133900   0.008045
    23  H    0.129956   0.008367
    24  H    0.143521   0.005886
    25  H    0.102005   0.023010
 Sum of Mulliken charges =  -1.00000   1.00000

 Dipole moment (field-independent basis, Debye):
    X=             -3.8236    Y=              4.7156    Z=              0.8122  Tot=              6.1251
 Quadrupole moment (field-independent basis, Debye-Ang):
   XX=           -141.2566   YY=            -99.7282   ZZ=            -90.6185
   XY=              0.7459   XZ=              9.0445   YZ=             -4.2226

 Summary of Natural Population Analysis:

                                       Natural Population
                Natural  -----------------------------------------------
    Atom  No    Charge         Core      Valence    Rydberg      Total
 -----------------------------------------------------------------------
      C    1   -0.09525      0.99959     2.08766    0.00800     3.09525
      O    2   -0.29510      0.99986     3.28474    0.01050     4.29510
      C    3    0.21309      0.99933     1.77509    0.01249     2.78691
      C    4   -0.06384      0.99943     2.05302    0.01139     3.06384
      C    5    0.05780      0.99957     1.92941    0.01322     2.94220
      N    6   -0.25373      0.99972     2.74201    0.01200     3.75373
      C    7    0.07402      0.99961     1.91181    0.01456     2.92598
      C    8   -0.16524      0.99951     2.15704    0.00869     3.16524
      C    9    0.08158      0.99950     1.90718    0.01174     2.91842
      C   10   -0.13424      0.99941     2.12672    0.00811     3.13424
      C   11    0.28343      0.99965     1.69473    0.02219     2.71657
      O   12   -0.28288      0.99987     3.27440    0.00861     4.28288
      C   13   -0.23410      0.99961     2.22730    0.00718     3.23410
      C   14   -0.20350      0.99961     2.19783    0.00607     3.20350
      H   15    0.08336      0.00000     0.41538    0.00126     0.41664
      H   16    0.07833      0.00000     0.41980    0.00187     0.42167
      H   17    0.09220      0.00000     0.40599    0.00181     0.40780
      H   18    0.08671      0.00000     0.41170    0.00159     0.41329
      H   19    0.07673      0.00000     0.42199    0.00128     0.42327
      H   20    0.09886      0.00000     0.39928    0.00186     0.40114
      H   21    0.09752      0.00000     0.40140    0.00108     0.40248
      H   22    0.10113      0.00000     0.39770    0.00117     0.39887
      H   23    0.10147      0.00000     0.39737    0.00116     0.39853
      H   24    0.09810      0.00000     0.40070    0.00120     0.40190
      H   25    0.10356      0.00000     0.39476    0.00169     0.39644
 =======================================================================
   * Total *   -0.00000     13.99428    35.83502    0.17071    50.00000

 Normal termination of Gaussian 16 at Thu Dec 10 09:53:03 2020.
