 Gaussian 16, Revision A.03,

 -----------------------------------------------------------
 # opt freq B3LYP/6-31G(d) empiricaldispersion=gd3bj scf=xqc
 -----------------------------------------------------------

 ------------------------------
 CID_81963960_JID_1588_neutraal
 ------------------------------
 Symbolic Z-matrix:
 Charge =  0 Multiplicity = 1

 SCF Done:  E(RB3LYP) =  -552.365027520     A.U. after   14 cycles
 SCF Done:  E(RB3LYP) =  -552.372810013     A.U. after   12 cycles
 SCF Done:  E(RB3LYP) =  -552.373882114     A.U. after   12 cycles
 SCF Done:  E(RB3LYP) =  -552.374061935     A.U. after   12 cycles
 SCF Done:  E(RB3LYP) =  -552.374492373     A.U. after   11 cycles
 SCF Done:  E(RB3LYP) =  -552.374497525     A.U. after   11 cycles
 SCF Done:  E(RB3LYP) =  -552.374561801     A.U. after   10 cycles
 SCF Done:  E(RB3LYP) =  -552.374601430     A.U. after   10 cycles
 SCF Done:  E(RB3LYP) =  -552.374610929     A.U. after    9 cycles
 SCF Done:  E(RB3LYP) =  -552.374612896     A.U. after    9 cycles
 SCF Done:  E(RB3LYP) =  -552.374613526     A.U. after    8 cycles
 SCF Done:  E(RB3LYP) =  -552.374613343     A.U. after    7 cycles
 SCF Done:  E(RB3LYP) =  -552.374613130     A.U. after    7 cycles
 SCF Done:  E(RB3LYP) =  -552.374612842     A.U. after    7 cycles
 SCF Done:  E(RB3LYP) =  -552.374613516     A.U. after    9 cycles
 SCF Done:  E(RB3LYP) =  -552.374612826     A.U. after    9 cycles
 Optimization completed.
    -- Stationary point found.
 Normal termination of Gaussian 16 at Tue Dec  8 20:27:50 2020.

 --------------------------------------------------------------------
 #N Geom=AllCheck Guess=TCheck SCRF=Check GenChk RB3LYP/6-31G(d) Freq
 --------------------------------------------------------------------

 Structure from the checkpoint file:  "JID_1588.chk"
 ------------------------------
 CID_81963960_JID_1588_neutraal
 ------------------------------
 Charge =  0 Multiplicity = 1

 SCF Done:  E(RB3LYP) =  -552.374612826     A.U. after    1 cycles

  Exact polarizability: 107.421  -0.375  75.782  -8.989  -4.014  92.064
 Approx polarizability: 147.555  -2.479 108.675 -13.785  -5.498 131.844

                      1                      2                      3
                      A                      A                      A
 Frequencies --     31.1634                67.4697               104.0710
 Red. masses --      3.7614                 3.7690                 2.7166
 Frc consts  --      0.0022                 0.0101                 0.0173
 IR Inten    --      0.5128                 3.1573                 6.3378

                      4                      5                      6
                      A                      A                      A
 Frequencies --    116.9788               125.1010               190.5517
 Red. masses --      2.2571                 1.6760                 3.1716
 Frc consts  --      0.0182                 0.0155                 0.0679
 IR Inten    --      0.7363                 4.0929                 0.4929

                      7                      8                      9
                      A                      A                      A
 Frequencies --    225.4010               238.5326               243.8398
 Red. masses --      2.9247                 1.7878                 2.7074
 Frc consts  --      0.0875                 0.0599                 0.0948
 IR Inten    --      7.4031                 3.6119                 9.1414

                     10                     11                     12
                      A                      A                      A
 Frequencies --    277.5872               311.7923               332.7454
 Red. masses --      2.9525                 1.9803                 1.1733
 Frc consts  --      0.1340                 0.1134                 0.0765
 IR Inten    --     21.8810                 8.2060                82.8846

                     13                     14                     15
                      A                      A                      A
 Frequencies --    355.2938               376.5695               400.1037
 Red. masses --      2.4013                 1.9277                 2.2561
 Frc consts  --      0.1786                 0.1611                 0.2128
 IR Inten    --      3.9565                36.5902                20.4008

                     16                     17                     18
                      A                      A                      A
 Frequencies --    449.7799               465.8833               471.4586
 Red. masses --      2.6262                 1.2472                 1.3105
 Frc consts  --      0.3130                 0.1595                 0.1716
 IR Inten    --      5.4715                30.8069                78.0884

                     19                     20                     21
                      A                      A                      A
 Frequencies --    540.5158               584.2911               619.5314
 Red. masses --      3.2251                 2.9260                 2.8818
 Frc consts  --      0.5551                 0.5885                 0.6517
 IR Inten    --     17.0729                24.2817                22.7025

                     22                     23                     24
                      A                      A                      A
 Frequencies --    667.8170               732.3279               803.4520
 Red. masses --      2.3557                 2.2434                 1.9089
 Frc consts  --      0.6190                 0.7089                 0.7260
 IR Inten    --     60.5913                62.9646               157.4328

                     25                     26                     27
                      A                      A                      A
 Frequencies --    827.2504               900.1895               915.0839
 Red. masses --      2.3445                 2.0743                 1.9062
 Frc consts  --      0.9453                 0.9903                 0.9404
 IR Inten    --     82.9790                 3.4164                12.9280

                     28                     29                     30
                      A                      A                      A
 Frequencies --    968.0322               997.6964              1012.6139
 Red. masses --      1.8256                 1.6832                 1.9978
 Frc consts  --      1.0079                 0.9871                 1.2070
 IR Inten    --      4.1964                14.3788                14.5436

                     31                     32                     33
                      A                      A                      A
 Frequencies --   1062.1489              1081.8824              1092.1746
 Red. masses --      2.5625                 5.0826                 4.2829
 Frc consts  --      1.7033                 3.5050                 3.0100
 IR Inten    --     38.0978               104.2379               133.2377

                     34                     35                     36
                      A                      A                      A
 Frequencies --   1126.1232              1150.8578              1153.8200
 Red. masses --      1.3356                 1.4369                 1.5409
 Frc consts  --      0.9980                 1.1213                 1.2086
 IR Inten    --      2.0029                 5.8194                18.7455

                     37                     38                     39
                      A                      A                      A
 Frequencies --   1178.1471              1219.2725              1241.9770
 Red. masses --      1.6651                 2.3264                 1.7962
 Frc consts  --      1.3617                 2.0377                 1.6325
 IR Inten    --     33.5213                32.2284                 6.9240

                     40                     41                     42
                      A                      A                      A
 Frequencies --   1263.0178              1312.5296              1379.9105
 Red. masses --      1.5463                 2.0926                 1.3277
 Frc consts  --      1.4533                 2.1240                 1.4896
 IR Inten    --     15.0941                45.6931                54.4083

                     43                     44                     45
                      A                      A                      A
 Frequencies --   1403.6705              1415.7643              1423.0601
 Red. masses --      1.2757                 2.2479                 1.2543
 Frc consts  --      1.4809                 2.6546                 1.4965
 IR Inten    --      2.6717                85.0436                73.0541

                     46                     47                     48
                      A                      A                      A
 Frequencies --   1433.9120              1456.5928              1465.1627
 Red. masses --      1.4264                 1.3303                 1.2568
 Frc consts  --      1.7280                 1.6629                 1.5896
 IR Inten    --     41.7751                29.0553                37.9962

                     49                     50                     51
                      A                      A                      A
 Frequencies --   1504.7317              1523.3678              1534.3789
 Red. masses --      1.1360                 1.0738                 1.0893
 Frc consts  --      1.5155                 1.4682                 1.5110
 IR Inten    --      6.8815                 1.3094                 4.3763

                     52                     53                     54
                      A                      A                      A
 Frequencies --   1536.9268              1540.5239              1541.5274
 Red. masses --      1.0783                 1.0618                 1.0569
 Frc consts  --      1.5007                 1.4847                 1.4797
 IR Inten    --     10.1552                 8.8984                 2.7462

                     55                     56                     57
                      A                      A                      A
 Frequencies --   1560.9743              1652.2449              1758.8158
 Red. masses --      1.1394                 1.2123                 4.3647
 Frc consts  --      1.6357                 1.9498                 7.9550
 IR Inten    --      2.5566                96.3028               387.9622

                     58                     59                     60
                      A                      A                      A
 Frequencies --   2951.8195              2961.5060              3014.0172
 Red. masses --      1.0740                 1.0489                 1.0951
 Frc consts  --      5.5137                 5.4200                 5.8611
 IR Inten    --     56.2907                76.4648                65.7860

                     61                     62                     63
                      A                      A                      A
 Frequencies --   3029.2849              3072.2072              3089.8621
 Red. masses --      1.0630                 1.0367                 1.1028
 Frc consts  --      5.7474                 5.7651                 6.2034
 IR Inten    --     35.1021                14.4835                32.8176

                     64                     65                     66
                      A                      A                      A
 Frequencies --   3108.4853              3136.7681              3142.1492
 Red. masses --      1.0914                 1.0971                 1.0917
 Frc consts  --      6.2132                 6.3600                 6.3502
 IR Inten    --     42.2935                 5.3494                31.5148

                     67                     68                     69
                      A                      A                      A
 Frequencies --   3163.2010              3530.1455              3541.6953
 Red. masses --      1.1038                 1.0476                 1.0732
 Frc consts  --      6.5073                 7.6921                 7.9317
 IR Inten    --      8.8158                12.9187                 3.9403

                     70                     71                     72
                      A                      A                      A
 Frequencies --   3634.5443              3691.7667              3758.8258
 Red. masses --      1.0973                 1.0652                 1.0662
 Frc consts  --      8.5400                 8.5533                 8.8758
 IR Inten    --     12.9083                26.1991                18.5678

 - Thermochemistry -
 -------------------
 Temperature   298.150 Kelvin.  Pressure   1.00000 Atm.
 Atom     1 has atomic number  6 and mass  12.00000

 Molecular mass:   161.11643 amu.
 Principal axes and moments of inertia in atomic units:
                           1         2         3
     Eigenvalues --  1340.409522510.987162678.17251
           X            0.99948   0.00759  -0.03132
           Y           -0.01060   0.99520  -0.09726
           Z            0.03043   0.09754   0.99477
 This molecule is an asymmetric top.
 Rotational symmetry number  1.
 Warning -- assumption of classical behavior for rotation
           may cause significant error
 Rotational temperatures (Kelvin)      0.06462     0.03449     0.03234
 Rotational constants (GHZ):           1.34641     0.71874     0.67387
 Zero-point vibrational energy     599286.7 (Joules/Mol)
                                  143.23297 (Kcal/Mol)
 Warning -- explicit consideration of  21 degrees of freedom as
           vibrations may cause significant error
 Vibrational temperatures:     44.84    97.07   149.73   168.31   179.99
          (Kelvin)            274.16   324.30   343.20   350.83   399.39
                              448.60   478.75   511.19   541.80   575.66
                              647.13   670.30   678.32   777.68   840.66
                              891.37   960.84  1053.66  1155.99  1190.23
                             1295.17  1316.60  1392.78  1435.46  1456.93
                             1528.20  1556.59  1571.40  1620.24  1655.83
                             1660.09  1695.09  1754.26  1786.93  1817.20
                             1888.44  1985.38  2019.57  2036.97  2047.47
                             2063.08  2095.71  2108.04  2164.97  2191.79
                             2207.63  2211.29  2216.47  2217.91  2245.89
                             2377.21  2530.54  4247.01  4260.95  4336.50
                             4358.47  4420.22  4445.62  4472.42  4513.11
                             4520.85  4551.14  5079.09  5095.71  5229.30
                             5311.63  5408.11

 Zero-point correction=                           0.228256 (Hartree/Particle)
 Thermal correction to Energy=                    0.241374
 Thermal correction to Enthalpy=                  0.242318
 Thermal correction to Gibbs Free Energy=         0.188954
 Sum of electronic and zero-point Energies=           -552.146357
 Sum of electronic and thermal Energies=              -552.133239
 Sum of electronic and thermal Enthalpies=            -552.132294
 Sum of electronic and thermal Free Energies=         -552.185658

                     E (Thermal)             CV                S
                      KCal/Mol        Cal/Mol-Kelvin    Cal/Mol-Kelvin
 Total                  151.465             48.484            112.314
 Electronic               0.000              0.000              0.000
 Translational            0.889              2.981             41.140
 Rotational               0.889              2.981             30.578
 Vibrational            149.687             42.522             40.596
 Vibration     1          0.594              1.983              5.754
 Vibration     2          0.598              1.970              4.226
 Vibration     3          0.605              1.946              3.377
 Vibration     4          0.608              1.935              3.150
 Vibration     5          0.610              1.928              3.020
 Vibration     6          0.634              1.853              2.222
 Vibration     7          0.650              1.802              1.915
 Vibration     8          0.657              1.782              1.814
 Vibration     9          0.659              1.773              1.775
 Vibration    10          0.679              1.715              1.548
 Vibration    11          0.700              1.651              1.353
 Vibration    12          0.715              1.610              1.247
 Vibration    13          0.731              1.564              1.143
 Vibration    14          0.747              1.520              1.053
 Vibration    15          0.766              1.470              0.962
 Vibration    16          0.809              1.361              0.796
 Vibration    17          0.823              1.326              0.749
 Vibration    18          0.828              1.313              0.733
 Vibration    19          0.896              1.160              0.564
 Vibration    20          0.941              1.065              0.477
 Vibration    21          0.979              0.991              0.417

 Optimization completed.
    -- Stationary point found.
 Normal termination of Gaussian 16 at Tue Dec  8 20:34:03 2020.

 ----------------------------------------------------------------------
 # B3LYP/6-311++G(d,p) empiricaldispersion=gd3bj scf=xqc pop=npa geom=c
 heck
 ----------------------------------------------------------------------

 --------------------------------------
 CID_81963960_JID_1588_Energie_neutraal
 --------------------------------------
 Structure from the checkpoint file:  "JID_1588.chk"
 Charge =  0 Multiplicity = 1

 SCF Done:  E(RB3LYP) =  -552.565952964     A.U. after   15 cycles
 Normal termination of Gaussian 16 at Tue Dec  8 20:37:39 2020.

 ----------------------------------------------------------------------
 # B3LYP/6-311++G(d,p) empiricaldispersion=gd3bj scf=xqc pop=npa geom=c
 heck
 ----------------------------------------------------------------------

 ------------------------------------
 CID_81963960_JID_1588_Energie_kation
 ------------------------------------
 Structure from the checkpoint file:  "JID_1588.chk"
 Charge =  1 Multiplicity = 2

 SCF Done:  E(UB3LYP) =  -552.254724337     A.U. after   26 cycles
 Normal termination of Gaussian 16 at Tue Dec  8 20:43:38 2020.
 Gaussian 16:  ES64L-G16RevA.03 25-Dec-2016

 ----------------------------------------------------------------------
 # B3LYP/6-311++G(d,p) empiricaldispersion=gd3bj scf=xqc pop=npa geom=c
 heck
 ----------------------------------------------------------------------

 -----------------------------------
 CID_81963960_JID_1588_Energie_anion
 -----------------------------------
 Structure from the checkpoint file:  "JID_1588.chk"
 Charge = -1 Multiplicity = 2

                         Standard orientation:
 ---------------------------------------------------------------------
 Center     Atomic      Atomic             Coordinates (Angstroms)
 Number     Number       Type             X           Y           Z
 ---------------------------------------------------------------------
      1          6           0       -1.416063   -0.218892    1.459376
      2          6           0       -0.873195   -0.001813    0.043086
      3          6           0       -0.841480   -1.327744   -0.743354
      4          8           0       -2.116453   -1.945862   -0.859410
      5          6           0       -1.758489    1.025928   -0.684948
      6          8           0       -1.820354    2.262468    0.001019
      7          7           0        0.487600    0.607478    0.030987
      8          6           0        1.645604   -0.007646    0.539208
      9          7           0        2.772891   -0.112509   -0.060981
     10          6           0        2.873344    0.251399   -1.459792
     11          7           0        1.523291   -0.519385    1.833277
     12          1           0       -2.470088   -0.507548    1.396770
     13          1           0       -1.371691    0.710087    2.033410
     14          1           0       -0.863927   -0.999529    1.986204
     15          1           0       -0.509595   -1.131399   -1.769464
     16          1           0       -0.104757   -1.998104   -0.277761
     17          1           0       -2.327690   -2.346917   -0.003137
     18          1           0       -1.378379    1.158194   -1.715377
     19          1           0       -2.776915    0.640192   -0.761700
     20          1           0       -0.902157    2.475639    0.242686
     21          1           0        0.682399    0.950752   -0.904692
     22          1           0        2.039097   -0.120538   -2.081314
     23          1           0        2.931124    1.342856   -1.602622
     24          1           0        3.794354   -0.171120   -1.872780
     25          1           0        1.049819    0.103995    2.478160
     26          1           0        2.438073   -0.795880    2.174309
 ---------------------------------------------------------------------

 SCF Done:  E(UB3LYP) =  -552.554555030     A.U. after   28 cycles

 The electronic state is 2-A.
 Alpha  occ. eigenvalues --  -19.02772 -19.02072 -14.22997 -14.21043 -14.17298
 Alpha  occ. eigenvalues --  -10.16157 -10.12022 -10.11771 -10.11534 -10.08590
 Alpha  occ. eigenvalues --  -10.05510  -0.93097  -0.92520  -0.87781  -0.79210
 Alpha  occ. eigenvalues --   -0.76343  -0.67632  -0.59405  -0.58869  -0.57683
 Alpha  occ. eigenvalues --   -0.50497  -0.47058  -0.42671  -0.42141  -0.40508
 Alpha  occ. eigenvalues --   -0.39288  -0.36248  -0.35207  -0.34605  -0.34390
 Alpha  occ. eigenvalues --   -0.33003  -0.31598  -0.30280  -0.28365  -0.27722
 Alpha  occ. eigenvalues --   -0.27349  -0.26145  -0.24433  -0.23137  -0.19593
 Alpha  occ. eigenvalues --   -0.17866  -0.15896  -0.14930  -0.12800   0.04466
 Alpha virt. eigenvalues --    0.06604   0.07356   0.08537   0.09386   0.10084
 Alpha virt. eigenvalues --    0.10528   0.10831   0.11665   0.12364   0.12492
 Alpha virt. eigenvalues --    0.13868   0.13983   0.14273   0.14360   0.15561

  Beta  occ. eigenvalues --  -19.02739 -19.02053 -14.22974 -14.20999 -14.17278
  Beta  occ. eigenvalues --  -10.16148 -10.12022 -10.11748 -10.11514 -10.08560
  Beta  occ. eigenvalues --  -10.05460  -0.93038  -0.92473  -0.87743  -0.79171
  Beta  occ. eigenvalues --   -0.76295  -0.67582  -0.59326  -0.58800  -0.57613
  Beta  occ. eigenvalues --   -0.50447  -0.46977  -0.42602  -0.42073  -0.40464
  Beta  occ. eigenvalues --   -0.39224  -0.36194  -0.35165  -0.34554  -0.34346
  Beta  occ. eigenvalues --   -0.32963  -0.31561  -0.30238  -0.28320  -0.27676
  Beta  occ. eigenvalues --   -0.27303  -0.26100  -0.24403  -0.23102  -0.19556
  Beta  occ. eigenvalues --   -0.17834  -0.15840  -0.14852  -0.12758
  Beta virt. eigenvalues --    0.06903   0.07717   0.08444   0.08965   0.09939
  Beta virt. eigenvalues --    0.10660   0.10801   0.11292   0.12025   0.12621
  Beta virt. eigenvalues --    0.12993   0.14061   0.14176   0.14642   0.14924

 Mulliken charges and spin densities:
               1          2
     1  C    1.533365  -2.058500
     2  C   -2.762649   2.411598
     3  C    1.242750  -1.548976
     4  O   -0.205736  -0.013811
     5  C    0.299445  -0.608346
     6  O   -0.216533   0.034719
     7  N    0.085601  -0.161728
     8  C    0.431781  -0.609668
     9  N   -0.225817   0.121144
    10  C    0.594264  -1.060862
    11  N   -0.390971   0.066219
    12  H   -0.061270   0.214333
    13  H   -0.201156   0.373618
    14  H   -0.385462   0.567471
    15  H    0.020666   0.158316
    16  H   -0.027900   0.260451
    17  H   -0.132166   0.388907
    18  H   -0.357334   0.513498
    19  H    0.150898   0.037050
    20  H    0.063061   0.199055
    21  H    0.308922  -0.025767
    22  H   -0.137434   0.270011
    23  H   -0.276152   0.425456
    24  H   -0.060461   0.202820
    25  H   -0.351929   0.608367
    26  H    0.062219   0.234628
 Sum of Mulliken charges =  -1.00000   1.00000

 Dipole moment (field-independent basis, Debye):
    X=              0.0691    Y=              0.0510    Z=             -1.8341  Tot=              1.8361
 Quadrupole moment (field-independent basis, Debye-Ang):
   XX=           -118.2480   YY=           -107.7295   ZZ=           -112.0397
   XY=             -2.3453   XZ=              1.1288   YZ=              1.5792

 Summary of Natural Population Analysis:

                                       Natural Population
                Natural  -----------------------------------------------
    Atom  No    Charge         Core      Valence    Rydberg      Total
 -----------------------------------------------------------------------
      C    1   -0.30442      0.99961     2.29531    0.00951     3.30442
      C    2    0.03840      0.99956     1.94630    0.01574     2.96160
      C    3   -0.01542      0.99951     2.00123    0.01468     3.01542
      O    4   -0.36919      0.99990     3.36280    0.00648     4.36919
      C    5   -0.00795      0.99952     1.99515    0.01328     3.00795
      O    6   -0.36973      0.99990     3.36324    0.00659     4.36973
      N    7   -0.35702      0.99967     2.84312    0.01423     3.85702
      C    8    0.30880      0.99959     1.67266    0.01895     2.69120
      N    9   -0.29660      0.99963     2.78563    0.01134     3.79660
      C   10   -0.19315      0.99964     2.18606    0.00745     3.19315
      N   11   -0.40764      0.99971     2.89777    0.01016     3.90764
      H   12    0.10434      0.00000     0.39427    0.00139     0.39566
      H   13    0.11068      0.00000     0.38740    0.00193     0.38932
      H   14    0.11118      0.00000     0.38650    0.00232     0.38882
      H   15    0.08722      0.00000     0.41112    0.00166     0.41278
      H   16    0.08734      0.00000     0.41126    0.00140     0.41266
      H   17    0.23212      0.00000     0.26365    0.00423     0.26788
      H   18    0.07517      0.00000     0.42321    0.00162     0.42483
      H   19    0.09689      0.00000     0.40168    0.00143     0.40311
      H   20    0.23216      0.00000     0.26396    0.00389     0.26784
      H   21    0.19042      0.00000     0.30430    0.00528     0.30958
      H   22    0.08226      0.00000     0.41565    0.00209     0.41774
      H   23    0.08828      0.00000     0.40992    0.00181     0.41172
      H   24    0.09445      0.00000     0.40401    0.00153     0.40555
      H   25    0.18979      0.00000     0.30609    0.00412     0.31021
      H   26    0.19162      0.00000     0.30554    0.00284     0.30838
 =======================================================================
   * Total *   -0.00000     10.99624    32.83782    0.16594    44.00000

 Normal termination of Gaussian 16 at Tue Dec  8 20:49:54 2020.
