 Gaussian 16, Revision A.03,

 -----------------------------------------------------------
 # opt freq B3LYP/6-31G(d) empiricaldispersion=gd3bj scf=xqc
 -----------------------------------------------------------

 -------------------------------
 CID_105862839_JID_5987_neutraal
 -------------------------------
 Symbolic Z-matrix:
 Charge =  0 Multiplicity = 1

 SCF Done:  E(RB3LYP) =  -979.464730222     A.U. after   13 cycles
 SCF Done:  E(RB3LYP) =  -979.448127667     A.U. after   12 cycles
 SCF Done:  E(RB3LYP) =  -979.470320338     A.U. after   11 cycles
 SCF Done:  E(RB3LYP) =  -979.467088503     A.U. after   11 cycles
 SCF Done:  E(RB3LYP) =  -979.470412135     A.U. after   11 cycles
 SCF Done:  E(RB3LYP) =  -979.470952585     A.U. after   11 cycles
 SCF Done:  E(RB3LYP) =  -979.471198202     A.U. after   10 cycles
 SCF Done:  E(RB3LYP) =  -979.471263619     A.U. after    9 cycles
 SCF Done:  E(RB3LYP) =  -979.471292897     A.U. after    9 cycles
 SCF Done:  E(RB3LYP) =  -979.471299896     A.U. after    8 cycles
 SCF Done:  E(RB3LYP) =  -979.471303361     A.U. after    7 cycles
 SCF Done:  E(RB3LYP) =  -979.471303793     A.U. after    7 cycles
 SCF Done:  E(RB3LYP) =  -979.471303895     A.U. after    6 cycles
 SCF Done:  E(RB3LYP) =  -979.471303966     A.U. after    6 cycles
 SCF Done:  E(RB3LYP) =  -979.471304002     A.U. after    6 cycles
 SCF Done:  E(RB3LYP) =  -979.471304015     A.U. after    6 cycles
 Optimization completed.
    -- Stationary point found.
 Normal termination of Gaussian 16 at Thu Dec 10 17:51:45 2020.

 --------------------------------------------------------------------
 #N Geom=AllCheck Guess=TCheck SCRF=Check GenChk RB3LYP/6-31G(d) Freq
 --------------------------------------------------------------------

 Structure from the checkpoint file:  "JID_5987.chk"
 -------------------------------
 CID_105862839_JID_5987_neutraal
 -------------------------------
 Charge =  0 Multiplicity = 1

 SCF Done:  E(RB3LYP) =  -979.471304015     A.U. after    1 cycles

  Exact polarizability: 160.715   2.539 160.800   2.037   1.786 132.987
 Approx polarizability: 208.192   0.959 226.196   3.584   2.603 209.835

                      1                      2                      3
                      A                      A                      A
 Frequencies --     43.4304                64.6067                71.1738
 Red. masses --      3.4593                 3.0575                 3.5498
 Frc consts  --      0.0038                 0.0075                 0.0106
 IR Inten    --      0.1785                 0.2992                 1.7906

                      4                      5                      6
                      A                      A                      A
 Frequencies --     80.7125               122.1517               149.9372
 Red. masses --      2.4912                 2.7252                 2.5309
 Frc consts  --      0.0096                 0.0240                 0.0335
 IR Inten    --      0.2885                 0.2276                 0.1608

                      7                      8                      9
                      A                      A                      A
 Frequencies --    154.7614               185.8030               205.8654
 Red. masses --      2.7593                 2.2323                 2.4697
 Frc consts  --      0.0389                 0.0454                 0.0617
 IR Inten    --      1.3778                 1.4643                 0.2922

                     10                     11                     12
                      A                      A                      A
 Frequencies --    223.5656               244.1707               263.1185
 Red. masses --      2.1729                 2.0405                 1.6262
 Frc consts  --      0.0640                 0.0717                 0.0663
 IR Inten    --      1.5541                 3.4744                 2.2365

                     13                     14                     15
                      A                      A                      A
 Frequencies --    274.5469               291.4620               332.2280
 Red. masses --      1.2756                 1.9850                 3.4358
 Frc consts  --      0.0566                 0.0994                 0.2234
 IR Inten    --     28.3271                 3.1946                 0.4364

                     16                     17                     18
                      A                      A                      A
 Frequencies --    342.3349               358.7340               392.8683
 Red. masses --      2.9543                 2.7014                 3.1699
 Frc consts  --      0.2040                 0.2048                 0.2883
 IR Inten    --      2.9736                 8.3697                 1.6864

                     19                     20                     21
                      A                      A                      A
 Frequencies --    403.6113               444.7682               471.6837
 Red. masses --      4.1448                 2.1577                 3.0628
 Frc consts  --      0.3978                 0.2515                 0.4015
 IR Inten    --      0.6087                 7.0097                 2.6561

                     22                     23                     24
                      A                      A                      A
 Frequencies --    532.4893               564.3927               628.1323
 Red. masses --      4.2747                 3.2855                 2.5765
 Frc consts  --      0.7141                 0.6166                 0.5989
 IR Inten    --      0.3924                 4.3589                 4.3179

                     25                     26                     27
                      A                      A                      A
 Frequencies --    654.8757               705.9722               769.2314
 Red. masses --      4.3628                 2.4958                 1.8352
 Frc consts  --      1.1024                 0.7329                 0.6398
 IR Inten    --      1.7828                 1.1755                 1.5072

                     28                     29                     30
                      A                      A                      A
 Frequencies --    782.8668               803.0276               817.7288
 Red. masses --      1.3186                 2.4177                 1.5915
 Frc consts  --      0.4761                 0.9186                 0.6270
 IR Inten    --     10.4336                 7.5629                 6.6310

                     31                     32                     33
                      A                      A                      A
 Frequencies --    839.9081               885.4273               893.5191
 Red. masses --      2.4656                 1.3706                 1.8207
 Frc consts  --      1.0248                 0.6331                 0.8564
 IR Inten    --     11.0854                26.2109                63.0155

                     34                     35                     36
                      A                      A                      A
 Frequencies --    903.0869               924.4417               938.0859
 Red. masses --      2.1423                 2.6157                 2.5692
 Frc consts  --      1.0294                 1.3170                 1.3321
 IR Inten    --     12.7494                 4.8453                 6.5300

                     37                     38                     39
                      A                      A                      A
 Frequencies --    953.0330               977.3569               989.8834
 Red. masses --      2.4714                 1.8831                 1.7373
 Frc consts  --      1.3225                 1.0598                 1.0030
 IR Inten    --      2.1956                24.5221                11.7891

                     40                     41                     42
                      A                      A                      A
 Frequencies --    995.7051              1007.7050              1020.3581
 Red. masses --      1.8683                 1.6766                 1.7885
 Frc consts  --      1.0913                 1.0031                 1.0971
 IR Inten    --      5.8926                22.6219                 0.0649

                     43                     44                     45
                      A                      A                      A
 Frequencies --   1040.4175              1056.5579              1071.9216
 Red. masses --      2.4822                 2.1225                 1.3984
 Frc consts  --      1.5831                 1.3960                 0.9467
 IR Inten    --      9.1723                 1.5987                 2.1791

                     46                     47                     48
                      A                      A                      A
 Frequencies --   1089.0912              1092.4897              1107.7908
 Red. masses --      2.1081                 1.9758                 2.6048
 Frc consts  --      1.4732                 1.3894                 1.8834
 IR Inten    --      0.7073                 1.3005                 1.4988

                     49                     50                     51
                      A                      A                      A
 Frequencies --   1115.6675              1130.6827              1158.6252
 Red. masses --      2.1723                 2.6611                 2.3218
 Frc consts  --      1.5931                 2.0044                 1.8363
 IR Inten    --     27.3420                24.8297                11.9260

                     52                     53                     54
                      A                      A                      A
 Frequencies --   1187.9780              1207.0244              1221.1315
 Red. masses --      2.1082                 1.3211                 1.4858
 Frc consts  --      1.7530                 1.1340                 1.3054
 IR Inten    --     12.1519                12.1142                 8.8798

                     55                     56                     57
                      A                      A                      A
 Frequencies --   1226.6383              1250.9820              1271.0175
 Red. masses --      1.4858                 1.3250                 1.3187
 Frc consts  --      1.3172                 1.2217                 1.2552
 IR Inten    --      3.6084                 0.8845                 2.6069

                     58                     59                     60
                      A                      A                      A
 Frequencies --   1285.6706              1296.8735              1299.5864
 Red. masses --      1.2346                 1.2498                 1.2334
 Frc consts  --      1.2023                 1.2385                 1.2273
 IR Inten    --      5.4015                 5.8723                 4.8777

                     61                     62                     63
                      A                      A                      A
 Frequencies --   1303.3157              1313.0781              1325.0871
 Red. masses --      1.1868                 1.2539                 1.2852
 Frc consts  --      1.1878                 1.2738                 1.3295
 IR Inten    --      1.9998                 2.7616                15.4545

                     64                     65                     66
                      A                      A                      A
 Frequencies --   1334.0642              1341.3229              1346.3324
 Red. masses --      1.3035                 1.2751                 1.3189
 Frc consts  --      1.3669                 1.3517                 1.4085
 IR Inten    --      2.2270                12.8858                 0.7098

                     67                     68                     69
                      A                      A                      A
 Frequencies --   1353.7187              1359.6113              1367.6144
 Red. masses --      1.2390                 1.3557                 1.2525
 Frc consts  --      1.3378                 1.4765                 1.3803
 IR Inten    --      3.5181                 2.0096                 3.7140

                     70                     71                     72
                      A                      A                      A
 Frequencies --   1378.6409              1394.8219              1417.4915
 Red. masses --      1.3913                 1.2719                 1.3372
 Frc consts  --      1.5581                 1.4580                 1.5830
 IR Inten    --      1.2505                10.6929                37.1091

                     73                     74                     75
                      A                      A                      A
 Frequencies --   1425.8660              1439.7048              1444.6544
 Red. masses --      1.5563                 1.2628                 1.5125
 Frc consts  --      1.8642                 1.5421                 1.8599
 IR Inten    --     11.5163                 4.6285                 3.8424

                     76                     77                     78
                      A                      A                      A
 Frequencies --   1457.3176              1500.7735              1514.2374
 Red. masses --      1.3802                 1.0887                 1.0599
 Frc consts  --      1.7270                 1.4448                 1.4319
 IR Inten    --      6.5204                 5.1454                 1.8400

                     79                     80                     81
                      A                      A                      A
 Frequencies --   1518.1771              1518.9965              1527.0651
 Red. masses --      1.0687                 1.0612                 1.0862
 Frc consts  --      1.4513                 1.4427                 1.4923
 IR Inten    --      1.1452                 4.0148                 2.9507

                     82                     83                     84
                      A                      A                      A
 Frequencies --   1528.6712              1536.6310              1546.4280
 Red. masses --      1.0846                 1.0700                 1.0972
 Frc consts  --      1.4933                 1.4886                 1.5460
 IR Inten    --      5.2700                17.9943                 3.3830

                     85                     86                     87
                      A                      A                      A
 Frequencies --   1548.6305              1557.5634              1693.7364
 Red. masses --      1.0644                 1.0921                 1.0915
 Frc consts  --      1.5040                 1.5610                 1.8448
 IR Inten    --      2.4846                 3.0708                28.0316

                     88                     89                     90
                      A                      A                      A
 Frequencies --   2918.9062              2943.4790              2975.6482
 Red. masses --      1.0750                 1.0738                 1.0821
 Frc consts  --      5.3962                 5.4817                 5.6451
 IR Inten    --     66.5900                77.8218                48.2775

                     91                     92                     93
                      A                      A                      A
 Frequencies --   2979.8566              3044.1082              3047.3175
 Red. masses --      1.0840                 1.0418                 1.0840
 Frc consts  --      5.6714                 5.6880                 5.9309
 IR Inten    --     66.1064                33.1686                10.2811

                     94                     95                     96
                      A                      A                      A
 Frequencies --   3049.3642              3059.9761              3067.0015
 Red. masses --      1.0629                 1.0604                 1.0607
 Frc consts  --      5.8230                 5.8503                 5.8784
 IR Inten    --     46.8910                36.7431                28.5491

                     97                     98                     99
                      A                      A                      A
 Frequencies --   3069.0173              3072.1699              3075.0646
 Red. masses --      1.0878                 1.0761                 1.0618
 Frc consts  --      6.0369                 5.9839                 5.9156
 IR Inten    --     12.9318                32.4512                19.4868

                    100                    101                    102
                      A                      A                      A
 Frequencies --   3089.8818              3092.8554              3100.7152
 Red. masses --      1.0657                 1.1015                 1.1038
 Frc consts  --      5.9949                 6.2082                 6.2525
 IR Inten    --     26.5495                45.0034                60.0964

                    103                    104                    105
                      A                      A                      A
 Frequencies --   3104.5173              3113.7928              3124.8723
 Red. masses --      1.1007                 1.0991                 1.0973
 Frc consts  --      6.2502                 6.2788                 6.3133
 IR Inten    --     25.1809                 1.4593                21.8480

                    106                    107                    108
                      A                      A                      A
 Frequencies --   3142.4628              3147.5276              3148.4384
 Red. masses --      1.1011                 1.0948                 1.0883
 Frc consts  --      6.4067                 6.3902                 6.3562
 IR Inten    --     31.9256                30.0537                 6.6317

                    109                    110                    111
                      A                      A                      A
 Frequencies --   3151.0855              3447.2960              3531.1913
 Red. masses --      1.1022                 1.0497                 1.0919
 Frc consts  --      6.4483                 7.3501                 8.0219
 IR Inten    --     16.0191                 5.3812                 1.2970

 - Thermochemistry -
 -------------------
 Temperature   298.150 Kelvin.  Pressure   1.00000 Atm.
 Atom     1 has atomic number  6 and mass  12.00000

 Molecular mass:   228.16602 amu.
 Principal axes and moments of inertia in atomic units:
                           1         2         3
     Eigenvalues --  2566.043594317.467705627.61880
           X            0.99967   0.02381  -0.00983
           Y           -0.02360   0.99950   0.02120
           Z            0.01033  -0.02096   0.99973
 This molecule is an asymmetric top.
 Rotational symmetry number  1.
 Warning -- assumption of classical behavior for rotation
           may cause significant error
 Rotational temperatures (Kelvin)      0.03375     0.02006     0.01539
 Rotational constants (GHZ):           0.70332     0.41801     0.32069
 Zero-point vibrational energy     940916.8 (Joules/Mol)
                                  224.88451 (Kcal/Mol)
 Warning -- explicit consideration of  23 degrees of freedom as
           vibrations may cause significant error
 Vibrational temperatures:     62.49    92.95   102.40   116.13   175.75
          (Kelvin)            215.73   222.67   267.33   296.19   321.66
                              351.31   378.57   395.01   419.35   478.00
                              492.54   516.14   565.25   580.71   639.92
                              678.65   766.13   812.04   903.74   942.22
                             1015.74  1106.75  1126.37  1155.38  1176.53
                             1208.44  1273.93  1285.57  1299.34  1330.07
                             1349.70  1371.20  1406.20  1424.22  1432.60
                             1449.86  1468.07  1496.93  1520.15  1542.26
                             1566.96  1571.85  1593.86  1605.20  1626.80
                             1667.00  1709.24  1736.64  1756.94  1764.86
                             1799.88  1828.71  1849.79  1865.91  1869.81
                             1875.18  1889.23  1906.50  1919.42  1929.86
                             1937.07  1947.70  1956.18  1967.69  1983.56
                             2006.84  2039.45  2051.50  2071.41  2078.54
                             2096.75  2159.28  2178.65  2184.32  2185.50
                             2197.11  2199.42  2210.87  2224.96  2228.13
                             2240.99  2436.91  4199.65  4235.01  4281.29
                             4287.35  4379.79  4384.41  4387.35  4402.62
                             4412.73  4415.63  4420.17  4424.33  4445.65
                             4449.93  4461.24  4466.71  4480.05  4495.99
                             4521.30  4528.59  4529.90  4533.71  4959.89
                             5080.60

 Zero-point correction=                           0.358376 (Hartree/Particle)
 Thermal correction to Energy=                    0.374329
 Thermal correction to Enthalpy=                  0.375273
 Thermal correction to Gibbs Free Energy=         0.315411
 Sum of electronic and zero-point Energies=           -979.112928
 Sum of electronic and thermal Energies=              -979.096975
 Sum of electronic and thermal Enthalpies=            -979.096031
 Sum of electronic and thermal Free Energies=         -979.155893

                     E (Thermal)             CV                S
                      KCal/Mol        Cal/Mol-Kelvin    Cal/Mol-Kelvin
 Total                  234.895             62.115            125.990
 Electronic               0.000              0.000              0.000
 Translational            0.889              2.981             42.177
 Rotational               0.889              2.981             32.500
 Vibrational            233.118             56.154             51.313
 Vibration     1          0.595              1.980              5.096
 Vibration     2          0.597              1.971              4.311
 Vibration     3          0.598              1.968              4.121
 Vibration     4          0.600              1.962              3.873
 Vibration     5          0.610              1.931              3.066
 Vibration     6          0.618              1.903              2.673
 Vibration     7          0.620              1.897              2.613
 Vibration     8          0.632              1.859              2.269
 Vibration     9          0.640              1.832              2.080
 Vibration    10          0.649              1.805              1.930
 Vibration    11          0.659              1.772              1.772
 Vibration    12          0.670              1.740              1.641
 Vibration    13          0.677              1.720              1.567
 Vibration    14          0.687              1.690              1.465
 Vibration    15          0.714              1.611              1.249
 Vibration    16          0.721              1.591              1.201
 Vibration    17          0.734              1.557              1.128
 Vibration    18          0.760              1.485              0.989
 Vibration    19          0.769              1.462              0.949
 Vibration    20          0.804              1.372              0.812
 Vibration    21          0.829              1.313              0.733
 Vibration    22          0.887              1.178              0.582
 Vibration    23          0.920              1.108              0.515

 Optimization completed.
    -- Stationary point found.
 Normal termination of Gaussian 16 at Thu Dec 10 18:08:42 2020.

 ----------------------------------------------------------------------
 # B3LYP/6-311++G(d,p) empiricaldispersion=gd3bj scf=xqc pop=npa geom=c
 heck
 ----------------------------------------------------------------------

 ---------------------------------------
 CID_105862839_JID_5987_Energie_neutraal
 ---------------------------------------
 Structure from the checkpoint file:  "JID_5987.chk"
 Charge =  0 Multiplicity = 1

 SCF Done:  E(RB3LYP) =  -979.663469727     A.U. after   14 cycles
 Normal termination of Gaussian 16 at Thu Dec 10 18:17:09 2020.

 ----------------------------------------------------------------------
 # B3LYP/6-311++G(d,p) empiricaldispersion=gd3bj scf=xqc pop=npa geom=c
 heck
 ----------------------------------------------------------------------

 -------------------------------------
 CID_105862839_JID_5987_Energie_kation
 -------------------------------------
 Structure from the checkpoint file:  "JID_5987.chk"
 Charge =  1 Multiplicity = 2

 SCF Done:  E(UB3LYP) =  -979.393028607     A.U. after   22 cycles
 Normal termination of Gaussian 16 at Thu Dec 10 18:35:52 2020.
 Gaussian 16:  ES64L-G16RevA.03 25-Dec-2016

 ----------------------------------------------------------------------
 # B3LYP/6-311++G(d,p) empiricaldispersion=gd3bj scf=xqc pop=npa geom=c
 heck
 ----------------------------------------------------------------------

 ------------------------------------
 CID_105862839_JID_5987_Energie_anion
 ------------------------------------
 Structure from the checkpoint file:  "JID_5987.chk"
 Charge = -1 Multiplicity = 2

                         Standard orientation:
 ---------------------------------------------------------------------
 Center     Atomic      Atomic             Coordinates (Angstroms)
 Number     Number       Type             X           Y           Z
 ---------------------------------------------------------------------
      1          6           0        0.373525   -2.449201   -1.129402
      2          6           0        1.821999   -2.405805   -0.654818
      3         16           0        2.118018   -1.469430    0.897832
      4          6           0        2.101204    0.311450    0.409317
      5          6           0        2.294886    0.614704   -1.086681
      6          6           0        1.942812    2.119010   -1.226044
      7          6           0        1.371323    2.531498    0.150407
      8          6           0        0.909415    1.221702    0.827442
      9          7           0       -0.399215    0.711631    0.379969
     10          6           0       -1.034884   -0.088401    1.438110
     11          6           0       -2.196098   -0.934208    0.880976
     12          6           0       -2.785819   -0.318752   -0.395315
     13          6           0       -2.771415    1.199575   -0.239596
     14          6           0       -1.335140    1.745265   -0.089604
     15          7           0       -4.166358   -0.787832   -0.577537
     16          1           0       -0.249798   -2.987691   -0.409390
     17          1           0        0.303367   -2.963731   -2.096685
     18          1           0       -0.035789   -1.440622   -1.229616
     19          1           0        2.180767   -3.412122   -0.413163
     20          1           0        2.485526   -2.015215   -1.430791
     21          1           0        2.971045    0.708069    0.946859
     22          1           0        3.309620    0.376461   -1.418446
     23          1           0        1.600495    0.020303   -1.683245
     24          1           0        1.202425    2.266168   -2.019030
     25          1           0        2.816212    2.723695   -1.489478
     26          1           0        0.599220    3.299091    0.088120
     27          1           0        2.171677    2.947490    0.772214
     28          1           0        0.895964    1.360651    1.921172
     29          1           0       -1.399032    0.576117    2.246628
     30          1           0       -0.276721   -0.737639    1.875121
     31          1           0       -2.997807   -0.994161    1.626431
     32          1           0       -1.861700   -1.957508    0.680581
     33          1           0       -2.133519   -0.584562   -1.243526
     34          1           0       -3.258584    1.684799   -1.094508
     35          1           0       -3.375613    1.445771    0.641323
     36          1           0       -1.366899    2.610673    0.597442
     37          1           0       -0.977068    2.116232   -1.055733
     38          1           0       -4.513781   -0.471899   -1.483127
     39          1           0       -4.170119   -1.807110   -0.620242
 ---------------------------------------------------------------------

 SCF Done:  E(UB3LYP) =  -979.650203547     A.U. after   28 cycles

 The electronic state is 2-A.
 Alpha  occ. eigenvalues --  -88.73758 -14.20747 -14.19386 -10.10752 -10.10463
 Alpha  occ. eigenvalues --  -10.10291 -10.09567 -10.09456 -10.09145 -10.07237
 Alpha  occ. eigenvalues --  -10.07153 -10.06926 -10.06595 -10.06514 -10.06276
 Alpha  occ. eigenvalues --   -7.82380  -5.78785  -5.78392  -5.77758  -0.83445
 Alpha  occ. eigenvalues --   -0.78882  -0.74520  -0.69906  -0.66838  -0.65415
 Alpha  occ. eigenvalues --   -0.63495  -0.60856  -0.57681  -0.53480  -0.53253
 Alpha  occ. eigenvalues --   -0.50679  -0.47260  -0.45761  -0.42932  -0.41075
 Alpha  occ. eigenvalues --   -0.39490  -0.38952  -0.38125  -0.37420  -0.34955
 Alpha  occ. eigenvalues --   -0.34632  -0.33602  -0.32477  -0.32250  -0.31436
 Alpha  occ. eigenvalues --   -0.30085  -0.29209  -0.28015  -0.27817  -0.26590
 Alpha  occ. eigenvalues --   -0.26490  -0.25664  -0.25059  -0.24411  -0.23865
 Alpha  occ. eigenvalues --   -0.23555  -0.22793  -0.22196  -0.21289  -0.19879
 Alpha  occ. eigenvalues --   -0.15033  -0.12867  -0.11614   0.04214
 Alpha virt. eigenvalues --    0.05878   0.06666   0.07440   0.07734   0.08672
 Alpha virt. eigenvalues --    0.08820   0.09217   0.09558   0.10577   0.10745
 Alpha virt. eigenvalues --    0.11089   0.11331   0.11810   0.12055   0.12528

  Beta  occ. eigenvalues --  -88.73756 -14.20741 -14.19352 -10.10750 -10.10457
  Beta  occ. eigenvalues --  -10.10281 -10.09558 -10.09441 -10.09143 -10.07222
  Beta  occ. eigenvalues --  -10.07136 -10.06900 -10.06579 -10.06509 -10.06253
  Beta  occ. eigenvalues --   -7.82378  -5.78784  -5.78386  -5.77756  -0.83431
  Beta  occ. eigenvalues --   -0.78832  -0.74496  -0.69884  -0.66800  -0.65393
  Beta  occ. eigenvalues --   -0.63465  -0.60819  -0.57643  -0.53449  -0.53214
  Beta  occ. eigenvalues --   -0.50634  -0.47213  -0.45724  -0.42895  -0.41042
  Beta  occ. eigenvalues --   -0.39455  -0.38919  -0.38092  -0.37392  -0.34930
  Beta  occ. eigenvalues --   -0.34610  -0.33565  -0.32440  -0.32221  -0.31413
  Beta  occ. eigenvalues --   -0.30063  -0.29174  -0.27986  -0.27788  -0.26560
  Beta  occ. eigenvalues --   -0.26465  -0.25643  -0.25030  -0.24382  -0.23838
  Beta  occ. eigenvalues --   -0.23533  -0.22772  -0.22170  -0.21265  -0.19856
  Beta  occ. eigenvalues --   -0.14998  -0.12847  -0.11588
  Beta virt. eigenvalues --    0.06394   0.06819   0.07238   0.07812   0.08121
  Beta virt. eigenvalues --    0.09053   0.09267   0.09552   0.09804   0.10924
  Beta virt. eigenvalues --    0.11068   0.11391   0.11494   0.12091   0.12359

 Mulliken charges and spin densities:
               1          2
     1  C   -0.468720   0.112325
     2  C   -0.196824  -0.379234
     3  S    0.234594  -0.156865
     4  C   -0.065613   0.198063
     5  C   -0.585726   0.217588
     6  C    1.481324  -1.947564
     7  C   -1.109649   0.681201
     8  C    0.132146  -0.425658
     9  N    0.318074   0.056451
    10  C   -0.438905   0.085970
    11  C    0.691606  -0.920154
    12  C    0.170238  -0.506683
    13  C    0.161333  -0.855768
    14  C   -0.089227  -0.129938
    15  N   -0.384196   0.110184
    16  H   -0.112300   0.200036
    17  H   -0.507901   0.662378
    18  H    1.171864  -1.032221
    19  H    0.035169   0.185875
    20  H    0.083948   0.096049
    21  H    0.102829   0.172720
    22  H   -0.300366   0.476782
    23  H   -0.047270   0.185922
    24  H   -0.260431   0.418881
    25  H   -0.303618   0.474368
    26  H   -0.115864   0.271939
    27  H   -0.385305   0.567185
    28  H    0.141149   0.019034
    29  H    0.079458   0.049567
    30  H    0.107264   0.002801
    31  H    0.166223  -0.001811
    32  H    0.164777  -0.026250
    33  H   -0.681978   0.876156
    34  H   -0.335128   0.509191
    35  H    0.125451   0.042408
    36  H    0.047843   0.073745
    37  H    0.148329   0.005099
    38  H   -0.117319   0.348521
    39  H   -0.057279   0.281709
 Sum of Mulliken charges =  -1.00000   1.00000

 Dipole moment (field-independent basis, Debye):
    X=              0.9225    Y=             -0.8056    Z=              4.8388  Tot=              4.9914
 Quadrupole moment (field-independent basis, Debye-Ang):
   XX=           -182.3247   YY=           -154.4040   ZZ=           -143.7299
   XY=             -9.1316   XZ=             -5.9240   YZ=              0.1361

 Summary of Natural Population Analysis:

                                       Natural Population
                Natural  -----------------------------------------------
    Atom  No    Charge         Core      Valence    Rydberg      Total
 -----------------------------------------------------------------------
      C    1   -0.29558      0.99964     2.28850    0.00744     3.29558
      C    2   -0.25069      0.99960     2.24055    0.01053     3.25069
      S    3    0.08613      4.99958     2.89796    0.01633     7.91387
      C    4   -0.16746      0.99948     2.15330    0.01467     3.16746
      C    5   -0.19723      0.99960     2.18856    0.00908     3.19723
      C    6   -0.19036      0.99964     2.18249    0.00823     3.19036
      C    7   -0.19692      0.99961     2.18831    0.00899     3.19692
      C    8    0.00098      0.99954     1.98647    0.01300     2.99902
      N    9   -0.29817      0.99969     2.78569    0.01279     3.79817
      C   10   -0.08585      0.99962     2.07768    0.00854     3.08585
      C   11   -0.19491      0.99960     2.18662    0.00868     3.19491
      C   12   -0.01535      0.99957     2.00377    0.01200     3.01535
      C   13   -0.19545      0.99961     2.18600    0.00984     3.19545
      C   14   -0.07950      0.99961     2.06909    0.01080     3.07950
      N   15   -0.42248      0.99976     2.91262    0.01010     3.92248
      H   16    0.09676      0.00000     0.40195    0.00129     0.40324
      H   17    0.09883      0.00000     0.39978    0.00139     0.40117
      H   18    0.10729      0.00000     0.39008    0.00263     0.39271
      H   19    0.10272      0.00000     0.39632    0.00096     0.39728
      H   20    0.10226      0.00000     0.39640    0.00134     0.39774
      H   21    0.10156      0.00000     0.39695    0.00148     0.39844
      H   22    0.10284      0.00000     0.39591    0.00124     0.39716
      H   23    0.10231      0.00000     0.39545    0.00224     0.39769
      H   24    0.09885      0.00000     0.39978    0.00137     0.40115
      H   25    0.10059      0.00000     0.39775    0.00165     0.39941
      H   26    0.10631      0.00000     0.39245    0.00124     0.39369
      H   27    0.10125      0.00000     0.39742    0.00133     0.39875
      H   28    0.08875      0.00000     0.40959    0.00166     0.41125
      H   29    0.07628      0.00000     0.42254    0.00118     0.42372
      H   30    0.10827      0.00000     0.39032    0.00141     0.39173
      H   31    0.09937      0.00000     0.39942    0.00121     0.40063
      H   32    0.09775      0.00000     0.40096    0.00129     0.40225
      H   33    0.08469      0.00000     0.41183    0.00348     0.41531
      H   34    0.10296      0.00000     0.39597    0.00107     0.39704
      H   35    0.09607      0.00000     0.40252    0.00141     0.40393
      H   36    0.08080      0.00000     0.41808    0.00113     0.41920
      H   37    0.09657      0.00000     0.40181    0.00162     0.40343
      H   38    0.17600      0.00000     0.32164    0.00236     0.32400
      H   39    0.17376      0.00000     0.32440    0.00183     0.32624
 =======================================================================
   * Total *   -0.00000     18.99416    43.80696    0.19888    63.00000

 Normal termination of Gaussian 16 at Thu Dec 10 18:59:15 2020.
