 Gaussian 16, Revision A.03,

 -----------------------------------------------------------
 # opt freq B3LYP/6-31G(d) empiricaldispersion=gd3bj scf=xqc
 -----------------------------------------------------------

 -------------------------------
 CID_137186857_JID_4167_neutraal
 -------------------------------
 Symbolic Z-matrix:
 Charge =  0 Multiplicity = 1

 SCF Done:  E(RB3LYP) =  -665.437000104     A.U. after   16 cycles
 SCF Done:  E(RB3LYP) =  -665.442986363     A.U. after   16 cycles
 SCF Done:  E(RB3LYP) =  -665.445171656     A.U. after   13 cycles
 SCF Done:  E(RB3LYP) =  -665.448502753     A.U. after   14 cycles
 SCF Done:  E(RB3LYP) =  -665.451898008     A.U. after   16 cycles
 SCF Done:  E(RB3LYP) =  -665.452461415     A.U. after   13 cycles
 SCF Done:  E(RB3LYP) =  -665.452808950     A.U. after   12 cycles
 SCF Done:  E(RB3LYP) =  -665.452836334     A.U. after   12 cycles
 SCF Done:  E(RB3LYP) =  -665.452846377     A.U. after   10 cycles
 SCF Done:  E(RB3LYP) =  -665.452849414     A.U. after    9 cycles
 SCF Done:  E(RB3LYP) =  -665.454201719     A.U. after   13 cycles
 SCF Done:  E(RB3LYP) =  -665.454224606     A.U. after   11 cycles
 SCF Done:  E(RB3LYP) =  -665.454239429     A.U. after   11 cycles
 SCF Done:  E(RB3LYP) =  -665.454243288     A.U. after   10 cycles
 SCF Done:  E(RB3LYP) =  -665.454244673     A.U. after   11 cycles
 SCF Done:  E(RB3LYP) =  -665.454244864     A.U. after    8 cycles
 Optimization completed.
    -- Stationary point found.
 Normal termination of Gaussian 16 at Thu Dec 10 09:45:00 2020.

 --------------------------------------------------------------------
 #N Geom=AllCheck Guess=TCheck SCRF=Check GenChk RB3LYP/6-31G(d) Freq
 --------------------------------------------------------------------

 Structure from the checkpoint file:  "JID_4167.chk"
 -------------------------------
 CID_137186857_JID_4167_neutraal
 -------------------------------
 Charge =  0 Multiplicity = 1

 SCF Done:  E(RB3LYP) =  -665.454244864     A.U. after    1 cycles

  Exact polarizability: 171.637 -18.346 125.244 -15.329 -14.042  80.779
 Approx polarizability: 275.247 -60.449 222.044 -36.485 -30.183 131.848

                      1                      2                      3
                      A                      A                      A
 Frequencies --     29.4381                38.0829                51.6416
 Red. masses --      4.1258                 3.0822                 3.3105
 Frc consts  --      0.0021                 0.0026                 0.0052
 IR Inten    --      0.3236                 0.0019                 0.1130

                      4                      5                      6
                      A                      A                      A
 Frequencies --     87.1637               115.1906               173.4442
 Red. masses --      5.5115                 8.4516                 4.6936
 Frc consts  --      0.0247                 0.0661                 0.0832
 IR Inten    --      0.8074                 6.7412                 1.4452

                      7                      8                      9
                      A                      A                      A
 Frequencies --    223.8629               232.4282               274.3123
 Red. masses --      1.0889                 1.6955                 2.0009
 Frc consts  --      0.0322                 0.0540                 0.0887
 IR Inten    --      1.0680                 3.1155                 5.8741

                     10                     11                     12
                      A                      A                      A
 Frequencies --    286.9811               305.0453               348.8082
 Red. masses --      6.1941                 2.4718                 3.6649
 Frc consts  --      0.3006                 0.1355                 0.2627
 IR Inten    --      4.8796                 1.9157                 0.2006

                     13                     14                     15
                      A                      A                      A
 Frequencies --    382.2129               431.0609               459.0659
 Red. masses --      3.9620                 3.1441                 2.4660
 Frc consts  --      0.3410                 0.3442                 0.3062
 IR Inten    --      1.9457                 0.4303                13.9022

                     16                     17                     18
                      A                      A                      A
 Frequencies --    477.6683               490.4926               518.1837
 Red. masses --      3.8781                 4.5509                 2.9832
 Frc consts  --      0.5213                 0.6451                 0.4720
 IR Inten    --      2.4278                 3.8112                 7.7080

                     19                     20                     21
                      A                      A                      A
 Frequencies --    574.0443               615.5942               657.6880
 Red. masses --      3.5521                 3.6545                 1.8299
 Frc consts  --      0.6896                 0.8160                 0.4664
 IR Inten    --     15.5739                75.2884                32.3596

                     22                     23                     24
                      A                      A                      A
 Frequencies --    674.7462               711.4374               730.6695
 Red. masses --      6.3823                 3.1967                 3.9557
 Frc consts  --      1.7120                 0.9533                 1.2443
 IR Inten    --      5.7218                50.8942                 7.7502

                     25                     26                     27
                      A                      A                      A
 Frequencies --    775.8402               825.3849               829.8889
 Red. masses --      5.6589                 1.3300                 2.5095
 Frc consts  --      2.0069                 0.5339                 1.0183
 IR Inten    --     45.1412                16.3275                49.3571

                     28                     29                     30
                      A                      A                      A
 Frequencies --    860.7644               875.1114               887.6773
 Red. masses --      1.8221                 5.7735                 1.5317
 Frc consts  --      0.7954                 2.6051                 0.7111
 IR Inten    --     44.9294                10.2128                67.0706

                     31                     32                     33
                      A                      A                      A
 Frequencies --    939.0151               953.3145               961.0196
 Red. masses --      1.3010                 1.6228                 1.3074
 Frc consts  --      0.6759                 0.8689                 0.7114
 IR Inten    --      0.3444                 2.2731                 2.6284

                     34                     35                     36
                      A                      A                      A
 Frequencies --    964.8035               980.8581              1051.3751
 Red. masses --      1.4795                 1.3069                 2.9486
 Frc consts  --      0.8114                 0.7408                 1.9204
 IR Inten    --      1.4438                 1.6073                 9.6971

                     37                     38                     39
                      A                      A                      A
 Frequencies --   1115.0575              1126.3929              1155.1823
 Red. masses --      2.5703                 1.6296                 2.1171
 Frc consts  --      1.8829                 1.2181                 1.6646
 IR Inten    --     11.0114                 3.5990                 8.5458

                     40                     41                     42
                      A                      A                      A
 Frequencies --   1186.2163              1201.3891              1208.3283
 Red. masses --      2.3920                 1.5921                 1.5012
 Frc consts  --      1.9831                 1.3539                 1.2914
 IR Inten    --     41.9650               104.5647                25.7293

                     43                     44                     45
                      A                      A                      A
 Frequencies --   1224.2887              1283.8234              1332.0600
 Red. masses --      2.1867                 5.7286                 1.3091
 Frc consts  --      1.9311                 5.5630                 1.3686
 IR Inten    --     11.3716                 0.8723                 8.2690

                     46                     47                     48
                      A                      A                      A
 Frequencies --   1357.6322              1370.8357              1386.8552
 Red. masses --      1.6507                 1.5392                 5.1516
 Frc consts  --      1.7926                 1.7042                 5.8379
 IR Inten    --    196.2731                76.4817               161.6938

                     49                     50                     51
                      A                      A                      A
 Frequencies --   1400.9907              1428.1399              1446.3104
 Red. masses --      1.8714                 1.2940                 1.2448
 Frc consts  --      2.1642                 1.5550                 1.5342
 IR Inten    --    153.8153                 8.3178                14.2462

                     52                     53                     54
                      A                      A                      A
 Frequencies --   1464.7722              1495.4132              1513.6700
 Red. masses --      1.3103                 3.3011                 1.0513
 Frc consts  --      1.6564                 4.3494                 1.4192
 IR Inten    --      7.2209                11.3087                 1.4084

                     55                     56                     57
                      A                      A                      A
 Frequencies --   1517.2023              1529.0758              1533.4777
 Red. masses --      1.0735                 1.2091                 2.0238
 Frc consts  --      1.4559                 1.6657                 2.8040
 IR Inten    --     19.6944                23.7030                37.7341

                     58                     59                     60
                      A                      A                      A
 Frequencies --   1541.8671              1559.0392              1572.4487
 Red. masses --      1.0515                 1.3608                 7.5664
 Frc consts  --      1.4728                 1.9487                11.0228
 IR Inten    --     10.3585                27.1592                 4.2174

                     61                     62                     63
                      A                      A                      A
 Frequencies --   1683.9343              1757.7053              3042.2148
 Red. masses --      5.7483                 7.8740                 1.0383
 Frc consts  --      9.6037                14.3330                 5.6620
 IR Inten    --    112.7248               253.8028                16.0802

                     64                     65                     66
                      A                      A                      A
 Frequencies --   3046.5766              3060.7029              3109.9474
 Red. masses --      1.0466                 1.0781                 1.0993
 Frc consts  --      5.7234                 5.9507                 6.2643
 IR Inten    --     14.5436                17.2894                15.5780

                     67                     68                     69
                      A                      A                      A
 Frequencies --   3116.6311              3122.8203              3142.0588
 Red. masses --      1.0981                 1.1000                 1.1035
 Frc consts  --      6.2843                 6.3203                 6.4190
 IR Inten    --     30.3184                36.2573                23.6250

                     70                     71                     72
                      A                      A                      A
 Frequencies --   3240.6561              3265.9994              3272.9859
 Red. masses --      1.0902                 1.0895                 1.0946
 Frc consts  --      6.7453                 6.8474                 6.9084
 IR Inten    --      0.8715                 0.2287                 0.1135

                     73                     74                     75
                      A                      A                      A
 Frequencies --   3278.5035              3478.1960              3481.8744
 Red. masses --      1.0950                 1.0748                 1.0743
 Frc consts  --      6.9343                 7.6607                 7.6734
 IR Inten    --      2.0759                 1.1405                11.2369

 - Thermochemistry -
 -------------------
 Temperature   298.150 Kelvin.  Pressure   1.00000 Atm.
 Atom     1 has atomic number  6 and mass  12.00000

 Molecular mass:   195.10078 amu.
 Principal axes and moments of inertia in atomic units:
                           1         2         3
     Eigenvalues --  1509.849034713.539165735.11880
           X            0.99968   0.02498   0.00481
           Y           -0.02492   0.99963  -0.01132
           Z           -0.00509   0.01119   0.99992
 This molecule is an asymmetric top.
 Rotational symmetry number  1.
 Warning -- assumption of classical behavior for rotation
           may cause significant error
 Rotational temperatures (Kelvin)      0.05737     0.01838     0.01510
 Rotational constants (GHZ):           1.19531     0.38288     0.31468
 Zero-point vibrational energy     585246.6 (Joules/Mol)
                                  139.87730 (Kcal/Mol)
 Warning -- explicit consideration of  20 degrees of freedom as
           vibrations may cause significant error
 Vibrational temperatures:     42.35    54.79    74.30   125.41   165.73
          (Kelvin)            249.55   322.09   334.41   394.67   412.90
                              438.89   501.86   549.92   620.20   660.49
                              687.26   705.71   745.55   825.92   885.70
                              946.27   970.81  1023.60  1051.27  1116.26
                             1187.54  1194.03  1238.45  1259.09  1277.17
                             1351.03  1371.61  1382.69  1388.14  1411.24
                             1512.69  1604.32  1620.63  1662.05  1706.70
                             1728.53  1738.51  1761.48  1847.14  1916.54
                             1953.33  1972.33  1995.38  2015.71  2054.77
                             2080.92  2107.48  2151.57  2177.83  2182.92
                             2200.00  2206.33  2218.40  2243.11  2262.40
                             2422.81  2528.95  4377.07  4383.34  4403.67
                             4474.52  4484.14  4493.04  4520.72  4662.58
                             4699.04  4709.10  4717.04  5004.35  5009.64

 Zero-point correction=                           0.222909 (Hartree/Particle)
 Thermal correction to Energy=                    0.236313
 Thermal correction to Enthalpy=                  0.237258
 Thermal correction to Gibbs Free Energy=         0.181378
 Sum of electronic and zero-point Energies=           -665.231336
 Sum of electronic and thermal Energies=              -665.217931
 Sum of electronic and thermal Enthalpies=            -665.216987
 Sum of electronic and thermal Free Energies=         -665.272867

                     E (Thermal)             CV                S
                      KCal/Mol        Cal/Mol-Kelvin    Cal/Mol-Kelvin
 Total                  148.289             50.562            117.610
 Electronic               0.000              0.000              0.000
 Translational            0.889              2.981             41.710
 Rotational               0.889              2.981             32.079
 Vibrational            146.511             44.601             43.820
 Vibration     1          0.593              1.984              5.867
 Vibration     2          0.594              1.982              5.356
 Vibration     3          0.596              1.977              4.754
 Vibration     4          0.601              1.958              3.723
 Vibration     5          0.608              1.937              3.180
 Vibration     6          0.627              1.875              2.398
 Vibration     7          0.649              1.805              1.928
 Vibration     8          0.653              1.791              1.860
 Vibration     9          0.677              1.721              1.569
 Vibration    10          0.684              1.698              1.492
 Vibration    11          0.696              1.664              1.389
 Vibration    12          0.726              1.578              1.172
 Vibration    13          0.752              1.508              1.030
 Vibration    14          0.792              1.403              0.855
 Vibration    15          0.817              1.341              0.769
 Vibration    16          0.834              1.300              0.716
 Vibration    17          0.846              1.271              0.682
 Vibration    18          0.873              1.210              0.614
 Vibration    19          0.930              1.087              0.497
 Vibration    20          0.975              0.999              0.424

 Optimization completed.
    -- Stationary point found.
 Normal termination of Gaussian 16 at Thu Dec 10 09:51:50 2020.

 ----------------------------------------------------------------------
 # B3LYP/6-311++G(d,p) empiricaldispersion=gd3bj scf=xqc pop=npa geom=c
 heck
 ----------------------------------------------------------------------

 ---------------------------------------
 CID_137186857_JID_4167_Energie_neutraal
 ---------------------------------------
 Structure from the checkpoint file:  "JID_4167.chk"
 Charge =  0 Multiplicity = 1

 SCF Done:  E(RB3LYP) =  -665.649333259     A.U. after   16 cycles
 Normal termination of Gaussian 16 at Thu Dec 10 09:54:38 2020.

 ----------------------------------------------------------------------
 # B3LYP/6-311++G(d,p) empiricaldispersion=gd3bj scf=xqc pop=npa geom=c
 heck
 ----------------------------------------------------------------------

 -------------------------------------
 CID_137186857_JID_4167_Energie_kation
 -------------------------------------
 Structure from the checkpoint file:  "JID_4167.chk"
 Charge =  1 Multiplicity = 2

 SCF Done:  E(UB3LYP) =  -665.349055059     A.U. after   26 cycles
 Normal termination of Gaussian 16 at Thu Dec 10 10:00:44 2020.
 Gaussian 16:  ES64L-G16RevA.03 25-Dec-2016

 ----------------------------------------------------------------------
 # B3LYP/6-311++G(d,p) empiricaldispersion=gd3bj scf=xqc pop=npa geom=c
 heck
 ----------------------------------------------------------------------

 ------------------------------------
 CID_137186857_JID_4167_Energie_anion
 ------------------------------------
 Structure from the checkpoint file:  "JID_4167.chk"
 Charge = -1 Multiplicity = 2

                         Standard orientation:
 ---------------------------------------------------------------------
 Center     Atomic      Atomic             Coordinates (Angstroms)
 Number     Number       Type             X           Y           Z
 ---------------------------------------------------------------------
      1          6           0       -2.815964   -2.278524   -0.387814
      2          6           0       -2.669131   -0.759878   -0.467223
      3          6           0       -4.020538   -0.065019   -0.673531
      4          7           0       -1.947517   -0.321168    0.745940
      5          7           0       -1.643514    1.047386    0.787137
      6          6           0       -0.462908    1.564382    0.283520
      7          8           0       -0.428493    2.748513   -0.039694
      8          6           0        0.752303    0.705292    0.174189
      9          6           0        0.971835   -0.526828    0.808561
     10          6           0        2.172739   -1.188987    0.661901
     11          7           0        3.190136   -0.679037   -0.109183
     12          6           0        2.993933    0.533518   -0.728700
     13          6           0        1.810185    1.221610   -0.589776
     14          8           0        4.284801   -1.309926   -0.243795
     15          1           0       -3.447192   -2.566169    0.463271
     16          1           0       -1.838676   -2.754834   -0.266806
     17          1           0       -3.287850   -2.668765   -1.294884
     18          1           0       -2.006397   -0.509721   -1.304892
     19          1           0       -4.703876   -0.289963    0.155605
     20          1           0       -3.914856    1.022893   -0.749039
     21          1           0       -4.493529   -0.408139   -1.599785
     22          1           0       -2.486557   -0.546713    1.580859
     23          1           0       -2.406310    1.714571    0.675766
     24          1           0        0.198132   -0.980528    1.410766
     25          1           0        2.414886   -2.136786    1.122617
     26          1           0        3.844033    0.867231   -1.307548
     27          1           0        1.689273    2.184553   -1.072039
 ---------------------------------------------------------------------

 SCF Done:  E(UB3LYP) =  -665.667821657     A.U. after   30 cycles

 The electronic state is 2-A.
 Alpha  occ. eigenvalues --  -18.93443 -18.92513 -14.26538 -14.23195 -14.22368
 Alpha  occ. eigenvalues --  -10.11393 -10.11193 -10.07990 -10.07743 -10.05398
 Alpha  occ. eigenvalues --  -10.05314 -10.03252 -10.02937 -10.01857  -0.94430
 Alpha  occ. eigenvalues --   -0.90405  -0.85926  -0.73522  -0.72651  -0.64812
 Alpha  occ. eigenvalues --   -0.63443  -0.62463  -0.60718  -0.51389  -0.50343
 Alpha  occ. eigenvalues --   -0.50110  -0.44282  -0.43109  -0.38208  -0.38107
 Alpha  occ. eigenvalues --   -0.36086  -0.35018  -0.33695  -0.32448  -0.31509
 Alpha  occ. eigenvalues --   -0.30983  -0.30421  -0.30209  -0.29146  -0.28008
 Alpha  occ. eigenvalues --   -0.26801  -0.26440  -0.25726  -0.24027  -0.22121
 Alpha  occ. eigenvalues --   -0.18386  -0.15260  -0.13602  -0.12527  -0.11545
 Alpha  occ. eigenvalues --   -0.09334  -0.07266   0.04059
 Alpha virt. eigenvalues --    0.05847   0.08040   0.08232   0.10006   0.10912
 Alpha virt. eigenvalues --    0.11230   0.11257   0.11880   0.12370   0.12605
 Alpha virt. eigenvalues --    0.13472   0.14197   0.14626   0.15252   0.15766

  Beta  occ. eigenvalues --  -18.93202 -18.92038 -14.25805 -14.23191 -14.22325
  Beta  occ. eigenvalues --  -10.11203 -10.11188 -10.07981 -10.07736 -10.05486
  Beta  occ. eigenvalues --  -10.05394 -10.03134 -10.02817 -10.01658  -0.93343
  Beta  occ. eigenvalues --   -0.90130  -0.85686  -0.73009  -0.72555  -0.64677
  Beta  occ. eigenvalues --   -0.62781  -0.62275  -0.60691  -0.51064  -0.50099
  Beta  occ. eigenvalues --   -0.49656  -0.44072  -0.43052  -0.38142  -0.37901
  Beta  occ. eigenvalues --   -0.36059  -0.34734  -0.33435  -0.32346  -0.30946
  Beta  occ. eigenvalues --   -0.30292  -0.29926  -0.29107  -0.29042  -0.27670
  Beta  occ. eigenvalues --   -0.26660  -0.25705  -0.25284  -0.23744  -0.21976
  Beta  occ. eigenvalues --   -0.17001  -0.14984  -0.12931  -0.12022  -0.11190
  Beta  occ. eigenvalues --   -0.08921  -0.04715
  Beta virt. eigenvalues --    0.05811   0.07959   0.08120   0.09897   0.10201
  Beta virt. eigenvalues --    0.10914   0.11079   0.11197   0.11821   0.12328
  Beta virt. eigenvalues --    0.12736   0.13422   0.14125   0.14651   0.15166

 Mulliken charges and spin densities:
               1          2
     1  C   -0.273188  -0.216766
     2  C   -0.186796   0.146067
     3  C   -0.456058  -0.126543
     4  N   -0.058854   0.006065
     5  N   -0.225094   0.009930
     6  C   -0.644321   0.094593
     7  O   -0.394771   0.091334
     8  C    0.404954   0.047931
     9  C    0.067783   0.155725
    10  C   -0.584729  -0.017349
    11  N   -0.159383   0.202375
    12  C   -0.520236  -0.005316
    13  C    0.380783   0.166682
    14  O   -0.210900   0.196247
    15  H    0.058118   0.061042
    16  H    0.123359   0.044085
    17  H    0.095205   0.031272
    18  H    0.190981  -0.009977
    19  H    0.086897   0.047807
    20  H    0.100874   0.048499
    21  H    0.079054   0.046907
    22  H    0.226909  -0.004617
    23  H    0.257239  -0.003807
    24  H    0.155143  -0.007287
    25  H    0.146592   0.000930
    26  H    0.139561  -0.000080
    27  H    0.200877  -0.005748
 Sum of Mulliken charges =  -1.00000   1.00000

 Dipole moment (field-independent basis, Debye):
    X=            -10.0495    Y=             -1.9656    Z=              0.4696  Tot=             10.2507
 Quadrupole moment (field-independent basis, Debye-Ang):
   XX=           -138.2972   YY=           -113.2727   ZZ=            -90.3343
   XY=             14.5905   XZ=             -0.1546   YZ=             -2.4092

 Summary of Natural Population Analysis:

                                       Natural Population
                Natural  -----------------------------------------------
    Atom  No    Charge         Core      Valence    Rydberg      Total
 -----------------------------------------------------------------------
      C    1   -0.28847      0.99965     2.28361    0.00521     3.28847
      C    2   -0.01863      0.99962     2.00797    0.01103     3.01863
      C    3   -0.29671      0.99965     2.29233    0.00473     3.29671
      N    4   -0.24171      0.99973     2.72726    0.01471     3.74171
      N    5   -0.24055      0.99967     2.72672    0.01416     3.74055
      C    6    0.35779      0.99963     1.62108    0.02150     2.64221
      O    7   -0.31518      0.99988     3.30932    0.00598     4.31518
      C    8   -0.06713      0.99946     2.05586    0.01181     3.06713
      C    9   -0.07163      0.99955     2.06358    0.00850     3.07163
      C   10   -0.04205      0.99957     2.03031    0.01217     3.04205
      N   11    0.12605      0.99959     2.35794    0.01642     3.37395
      C   12   -0.03799      0.99957     2.02753    0.01090     3.03799
      C   13   -0.06265      0.99955     2.05522    0.00787     3.06265
      O   14   -0.24111      0.99992     3.23249    0.00870     4.24111
      H   15    0.09152      0.00000     0.40733    0.00115     0.40848
      H   16    0.10967      0.00000     0.38921    0.00112     0.39033
      H   17    0.09738      0.00000     0.40168    0.00094     0.40262
      H   18    0.09937      0.00000     0.39925    0.00137     0.40063
      H   19    0.09225      0.00000     0.40642    0.00133     0.40775
      H   20    0.10103      0.00000     0.39732    0.00165     0.39897
      H   21    0.09836      0.00000     0.40050    0.00113     0.40164
      H   22    0.16478      0.00000     0.33341    0.00181     0.33522
      H   23    0.17291      0.00000     0.32473    0.00235     0.32709
      H   24    0.10662      0.00000     0.39241    0.00096     0.39338
      H   25    0.09809      0.00000     0.40092    0.00099     0.40191
      H   26    0.09861      0.00000     0.40030    0.00110     0.40139
      H   27    0.10936      0.00000     0.38970    0.00094     0.39064
 =======================================================================
   * Total *   -0.00000     13.99504    37.83441    0.17055    52.00000

 Normal termination of Gaussian 16 at Thu Dec 10 10:07:45 2020.
