 Gaussian 16, Revision A.03,

 -----------------------------------------------------------
 # opt freq B3LYP/6-31G(d) empiricaldispersion=gd3bj scf=xqc
 -----------------------------------------------------------

 ------------------------------
 CID_153536299_JID_945_neutraal
 ------------------------------
 Symbolic Z-matrix:
 Charge =  0 Multiplicity = 1

 SCF Done:  E(RB3LYP) =  -426.570058198     A.U. after   14 cycles
 SCF Done:  E(RB3LYP) =  -426.574325918     A.U. after   12 cycles
 SCF Done:  E(RB3LYP) =  -426.575195764     A.U. after   12 cycles
 SCF Done:  E(RB3LYP) =  -426.575468259     A.U. after   12 cycles
 SCF Done:  E(RB3LYP) =  -426.575580342     A.U. after   10 cycles
 SCF Done:  E(RB3LYP) =  -426.575599044     A.U. after   10 cycles
 SCF Done:  E(RB3LYP) =  -426.575610209     A.U. after    9 cycles
 SCF Done:  E(RB3LYP) =  -426.575613733     A.U. after    9 cycles
 SCF Done:  E(RB3LYP) =  -426.575615073     A.U. after    9 cycles
 SCF Done:  E(RB3LYP) =  -426.575615470     A.U. after    8 cycles
 SCF Done:  E(RB3LYP) =  -426.575616011     A.U. after    8 cycles
 SCF Done:  E(RB3LYP) =  -426.575616511     A.U. after    8 cycles
 SCF Done:  E(RB3LYP) =  -426.575616994     A.U. after    8 cycles
 SCF Done:  E(RB3LYP) =  -426.575617196     A.U. after    8 cycles
 Optimization completed.
    -- Stationary point found.

 1\1\GINC-NODE115\FOpt\RB3LYP\6-31G(d)\C9H14O1\VSC10255\08-Dec-2020\0\\
 # opt freq B3LYP/6-31G(d) empiricaldispersion=gd3bj scf=xqc\\CID_15353
 6299_JID_945_neutraal\\0,1\C,0.8580976161,0.0797063015,0.023036648\C,0
 .2706385182,1.4121538335,-0.3706347949\C,-0.2475266963,1.598807202,-1.
 5977375354\C,0.2171441808,2.5306034743,0.5783910361\C,0.7102228987,2.6
 418792401,1.827775844\C,1.5352102037,1.6857795355,2.618561495\C,2.8529
 149283,1.5957689354,2.4103542938\C,0.8409908055,0.8898055289,3.7086919
 353\C,-0.2220107439,1.6698518444,4.4987614546\O,-1.4459523967,1.813003

 Normal termination of Gaussian 16 at Tue Dec  8 13:32:54 2020.

 --------------------------------------------------------------------
 #N Geom=AllCheck Guess=TCheck SCRF=Check GenChk RB3LYP/6-31G(d) Freq
 --------------------------------------------------------------------

 Structure from the checkpoint file:  "JID_945.chk"
 ------------------------------
 CID_153536299_JID_945_neutraal
 ------------------------------
 Charge =  0 Multiplicity = 1

 SCF Done:  E(RB3LYP) =  -426.575617196     A.U. after    1 cycles

  Exact polarizability: 135.055 -17.103  95.861   1.281   4.266  76.174
 Approx polarizability: 196.465 -29.057 145.055   4.984   1.919 109.435

                      1                      2                      3
                      A                      A                      A
 Frequencies --     33.7298                40.0967                61.0076
 Red. masses --      3.8157                 3.5510                 2.7791
 Frc consts  --      0.0026                 0.0034                 0.0061
 IR Inten    --      0.0815                 0.9550                 0.0919

                      4                      5                      6
                      A                      A                      A
 Frequencies --    147.7637               167.7296               204.8908
 Red. masses --      3.0506                 4.1440                 2.4863
 Frc consts  --      0.0392                 0.0687                 0.0615
 IR Inten    --      0.0436                 3.1575                 0.4699

                      7                      8                      9
                      A                      A                      A
 Frequencies --    229.8055               257.0055               280.4088
 Red. masses --      1.1692                 2.6615                 2.7443
 Frc consts  --      0.0364                 0.1036                 0.1271
 IR Inten    --      0.3853                 0.3065                 1.7884

                     10                     11                     12
                      A                      A                      A
 Frequencies --    348.7380               395.0056               427.5819
 Red. masses --      3.1951                 1.2733                 1.7385
 Frc consts  --      0.2289                 0.1171                 0.1873
 IR Inten    --      4.4934                82.3965                27.6590

                     13                     14                     15
                      A                      A                      A
 Frequencies --    439.9885               466.8438               546.9212
 Red. masses --      2.2555                 2.0043                 2.9728
 Frc consts  --      0.2573                 0.2574                 0.5239
 IR Inten    --      3.0998                 3.2743                 6.4278

                     16                     17                     18
                      A                      A                      A
 Frequencies --    582.6681               692.6333               720.3452
 Red. masses --      2.1934                 1.2402                 2.2869
 Frc consts  --      0.4387                 0.3506                 0.6992
 IR Inten    --      1.8272                 5.9900                 1.2707

                     19                     20                     21
                      A                      A                      A
 Frequencies --    733.4687               786.2788               818.0034
 Red. masses --      1.6713                 2.4605                 1.4388
 Frc consts  --      0.5297                 0.8963                 0.5672
 IR Inten    --      2.9756                 1.7134                19.2350

                     22                     23                     24
                      A                      A                      A
 Frequencies --    856.5336               900.3786               925.2881
 Red. masses --      2.3241                 2.3564                 1.6579
 Frc consts  --      1.0046                 1.1255                 0.8363
 IR Inten    --      4.9374                 2.6421                 6.8658

                     25                     26                     27
                      A                      A                      A
 Frequencies --    928.0423               938.5136              1000.7635
 Red. masses --      1.3572                 1.5597                 1.5544
 Frc consts  --      0.6887                 0.8094                 0.9172
 IR Inten    --     39.8559                33.6117                 3.8701

                     28                     29                     30
                      A                      A                      A
 Frequencies --   1010.6754              1015.7833              1058.0641
 Red. masses --      1.2979                 1.4943                 1.4786
 Frc consts  --      0.7811                 0.9085                 0.9753
 IR Inten    --      1.0395                 5.6278                 3.6581

                     31                     32                     33
                      A                      A                      A
 Frequencies --   1083.9775              1086.4999              1096.9584
 Red. masses --      2.0515                 1.5210                 3.9360
 Frc consts  --      1.4202                 1.0579                 2.7906
 IR Inten    --     11.8505                 3.7884                82.8292

                     34                     35                     36
                      A                      A                      A
 Frequencies --   1213.2759              1229.4682              1267.6385
 Red. masses --      1.2562                 1.2950                 1.2642
 Frc consts  --      1.0895                 1.1533                 1.1969
 IR Inten    --     21.1934                 1.8872                 3.1343

                     37                     38                     39
                      A                      A                      A
 Frequencies --   1298.9677              1362.0354              1367.2318
 Red. masses --      1.8164                 1.7918                 1.3898
 Frc consts  --      1.8058                 1.9585                 1.5306
 IR Inten    --     11.1943                 0.1956                 1.3017

                     40                     41                     42
                      A                      A                      A
 Frequencies --   1401.1403              1431.2206              1447.5410
 Red. masses --      1.2420                 1.3469                 1.3991
 Frc consts  --      1.4365                 1.6256                 1.7273
 IR Inten    --      9.5088                 2.1058                13.7690

                     43                     44                     45
                      A                      A                      A
 Frequencies --   1450.5946              1465.5543              1485.6095
 Red. masses --      1.2565                 1.2115                 1.2330
 Frc consts  --      1.5578                 1.5331                 1.6034
 IR Inten    --     52.1055                 0.4600                 0.9462

                     46                     47                     48
                      A                      A                      A
 Frequencies --   1495.4466              1511.0030              1527.4769
 Red. masses --      1.1329                 1.0528                 1.0731
 Frc consts  --      1.4927                 1.4162                 1.4752
 IR Inten    --     14.0745                 8.5728                21.8377

                     49                     50                     51
                      A                      A                      A
 Frequencies --   1543.3990              1676.0292              1710.6965
 Red. masses --      1.0876                 5.0703                 4.8473
 Frc consts  --      1.5264                 8.3916                 8.3579
 IR Inten    --      0.6710                10.6476                 7.4737

                     52                     53                     54
                      A                      A                      A
 Frequencies --   1721.4924              2986.9923              3029.8043
 Red. masses --      6.0762                 1.0730                 1.0627
 Frc consts  --     10.6094                 5.6404                 5.7478
 IR Inten    --      5.0117                62.2366                20.8902

                     55                     56                     57
                      A                      A                      A
 Frequencies --   3061.3265              3081.9024              3102.1512
 Red. masses --      1.0369                 1.0999                 1.0913
 Frc consts  --      5.7253                 6.1549                 6.1876
 IR Inten    --     19.1365                27.9997                58.9457

                     58                     59                     60
                      A                      A                      A
 Frequencies --   3112.3308              3122.1964              3140.5524
 Red. masses --      1.0838                 1.0990                 1.1025
 Frc consts  --      6.1854                 6.3120                 6.4068
 IR Inten    --      6.1171                17.8381                17.6669

                     61                     62                     63
                      A                      A                      A
 Frequencies --   3152.3767              3157.6067              3166.0174
 Red. masses --      1.0892                 1.0602                 1.0608
 Frc consts  --      6.3774                 6.2281                 6.2646
 IR Inten    --     21.2982                 8.2075                11.1506

                     64                     65                     66
                      A                      A                      A
 Frequencies --   3239.7415              3245.6570              3701.5266
 Red. masses --      1.1160                 1.1162                 1.0656
 Frc consts  --      6.9015                 6.9276                 8.6019
 IR Inten    --     15.1442                14.7561                84.6179

 - Thermochemistry -
 -------------------
 Temperature   298.150 Kelvin.  Pressure   1.00000 Atm.
 Atom     1 has atomic number  6 and mass  12.00000

 Molecular mass:   138.10447 amu.
 Principal axes and moments of inertia in atomic units:
                           1         2         3
     Eigenvalues --   956.540712200.511492594.46055
           X            0.99986  -0.01619   0.00510
           Y            0.01593   0.99872   0.04794
           Z           -0.00587  -0.04785   0.99884
 This molecule is an asymmetric top.
 Rotational symmetry number  1.
 Warning -- assumption of classical behavior for rotation
           may cause significant error
 Rotational temperatures (Kelvin)      0.09055     0.03936     0.03338
 Rotational constants (GHZ):           1.88674     0.82015     0.69561
 Zero-point vibrational energy     551409.1 (Joules/Mol)
                                  131.78993 (Kcal/Mol)
 Warning -- explicit consideration of  16 degrees of freedom as
           vibrations may cause significant error
 Vibrational temperatures:     48.53    57.69    87.78   212.60   241.33
          (Kelvin)            294.79   330.64   369.77   403.45   501.76
                              568.32   615.19   633.05   671.68   786.90
                              838.33   996.54  1036.42  1055.30  1131.28
                             1176.92  1232.36  1295.44  1331.28  1335.25
                             1350.31  1439.88  1454.14  1461.49  1522.32
                             1559.60  1563.23  1578.28  1745.63  1768.93
                             1823.85  1868.92  1959.67  1967.14  2015.93
                             2059.21  2082.69  2087.08  2108.61  2137.46
                             2151.61  2174.00  2197.70  2220.61  2411.43
                             2461.31  2476.84  4297.62  4359.21  4404.57
                             4434.17  4463.30  4477.95  4492.14  4518.55
                             4535.57  4543.09  4555.19  4661.27  4669.78
                             5325.67

 Zero-point correction=                           0.210021 (Hartree/Particle)
 Thermal correction to Energy=                    0.221571
 Thermal correction to Enthalpy=                  0.222515
 Thermal correction to Gibbs Free Energy=         0.171760
 Sum of electronic and zero-point Energies=           -426.365597
 Sum of electronic and thermal Energies=              -426.354046
 Sum of electronic and thermal Enthalpies=            -426.353102
 Sum of electronic and thermal Free Energies=         -426.403857

                     E (Thermal)             CV                S
                      KCal/Mol        Cal/Mol-Kelvin    Cal/Mol-Kelvin
 Total                  139.038             42.459            106.823
 Electronic               0.000              0.000              0.000
 Translational            0.889              2.981             40.680
 Rotational               0.889              2.981             30.080
 Vibrational            137.260             36.497             36.062
 Vibration     1          0.594              1.983              5.597
 Vibration     2          0.594              1.981              5.254
 Vibration     3          0.597              1.973              4.424
 Vibration     4          0.617              1.905              2.701
 Vibration     5          0.624              1.882              2.461
 Vibration     6          0.640              1.833              2.089
 Vibration     7          0.652              1.795              1.880
 Vibration     8          0.667              1.751              1.682
 Vibration     9          0.680              1.710              1.531
 Vibration    10          0.726              1.578              1.172
 Vibration    11          0.762              1.481              0.981
 Vibration    12          0.789              1.410              0.867
 Vibration    13          0.800              1.383              0.827
 Vibration    14          0.824              1.324              0.746
 Vibration    15          0.902              1.146              0.551
 Vibration    16          0.939              1.069              0.480

                           ! Non-Optimized Parameters !

 1\1\GINC-NODE115\Freq\RB3LYP\6-31G(d)\C9H14O1\VSC10255\08-Dec-2020\0\\
 #N Geom=AllCheck Guess=TCheck SCRF=Check GenChk RB3LYP/6-31G(d) Freq\\
 CID_153536299_JID_945_neutraal\\0,1\C,0.8580976161,0.0797063015,0.0230
 36648\C,0.2706385182,1.4121538335,-0.3706347949\C,-0.2475266963,1.5988
 07202,-1.5977375354\C,0.2171441808,2.5306034743,0.5783910361\C,0.71022
 28987,2.6418792401,1.827775844\C,1.5352102037,1.6857795355,2.618561495
 \C,2.8529149283,1.5957689354,2.4103542938\C,0.8409908055,0.8898055289,
 3.7086919353\C,-0.2220107439,1.6698518444,4.4987614546\O,-1.4459523967

 Normal termination of Gaussian 16 at Tue Dec  8 13:38:49 2020.

 ----------------------------------------------------------------------
 # B3LYP/6-311++G(d,p) empiricaldispersion=gd3bj scf=xqc pop=npa geom=c
 heck
 ----------------------------------------------------------------------

 --------------------------------------
 CID_153536299_JID_945_Energie_neutraal
 --------------------------------------
 Structure from the checkpoint file:  "JID_945.chk"
 Charge =  0 Multiplicity = 1

 SCF Done:  E(RB3LYP) =  -426.707862828     A.U. after   14 cycles
 Normal termination of Gaussian 16 at Tue Dec  8 13:42:20 2020.

 ----------------------------------------------------------------------
 # B3LYP/6-311++G(d,p) empiricaldispersion=gd3bj scf=xqc pop=npa geom=c
 heck
 ----------------------------------------------------------------------

 ------------------------------------
 CID_153536299_JID_945_Energie_kation
 ------------------------------------
 Structure from the checkpoint file:  "JID_945.chk"
 Charge =  1 Multiplicity = 2

 SCF Done:  E(UB3LYP) =  -426.395426354     A.U. after   26 cycles
 Normal termination of Gaussian 16 at Tue Dec  8 13:52:28 2020.
 Gaussian 16:  ES64L-G16RevA.03 25-Dec-2016

 -----------------------------------
 CID_153536299_JID_945_Energie_anion
 -----------------------------------
 Structure from the checkpoint file:  "JID_945.chk"
 Charge = -1 Multiplicity = 2

                         Standard orientation:
 ---------------------------------------------------------------------
 Center     Atomic      Atomic             Coordinates (Angstroms)
 Number     Number       Type             X           Y           Z
 ---------------------------------------------------------------------
      1          6           0        1.854469    0.644695    1.264020
      2          6           0        2.168526   -0.265199    0.102571
      3          6           0        3.374263   -0.851658   -0.004104
      4          6           0        1.163116   -0.562957   -0.924529
      5          6           0       -0.080474   -0.073549   -1.098987
      6          6           0       -0.805530    0.986105   -0.343011
      7          6           0       -0.567422    2.278117   -0.591620
      8          6           0       -1.867174    0.544142    0.647686
      9          6           0       -2.716337   -0.653009    0.191172
     10          8           0       -2.043623   -1.895975    0.324630
     11          1           0        2.685293    0.657445    1.975340
     12          1           0        0.955978    0.311023    1.795179
     13          1           0        1.660441    1.668855    0.933546
     14          1           0        3.614611   -1.517548   -0.828783
     15          1           0        4.157563   -0.681283    0.728578
     16          1           0        1.487594   -1.311348   -1.647243
     17          1           0       -0.648522   -0.493152   -1.932757
     18          1           0       -1.126988    3.065131   -0.091342
     19          1           0        0.194126    2.588834   -1.301090
     20          1           0       -1.386023    0.243385    1.589532
     21          1           0       -2.518674    1.395792    0.877751
     22          1           0       -3.603214   -0.729985    0.827562
     23          1           0       -3.069513   -0.491549   -0.841245
     24          1           0       -1.194309   -1.817917   -0.141247
 ---------------------------------------------------------------------

 SCF Done:  E(UB3LYP) =  -426.696449043     A.U. after   33 cycles
 SCF Done:  E(UB3LYP) =  -426.696449043     a.u. after    1 cycles

 The electronic state is 2-A.
 Alpha  occ. eigenvalues --  -18.99179 -10.09341 -10.06025 -10.04949 -10.03570
 Alpha  occ. eigenvalues --  -10.03477 -10.03330 -10.02671 -10.02252 -10.00790
 Alpha  occ. eigenvalues --   -0.89496  -0.69788  -0.66734  -0.61294  -0.58896
 Alpha  occ. eigenvalues --   -0.55230  -0.50941  -0.47814  -0.41715  -0.38373
 Alpha  occ. eigenvalues --   -0.36913  -0.34525  -0.33667  -0.32484  -0.30448
 Alpha  occ. eigenvalues --   -0.28909  -0.28264  -0.27651  -0.26961  -0.25787
 Alpha  occ. eigenvalues --   -0.23438  -0.22442  -0.20954  -0.19476  -0.16994
 Alpha  occ. eigenvalues --   -0.15289  -0.12974  -0.09707   0.05789
 Alpha virt. eigenvalues --    0.07769   0.09062   0.09328   0.09894   0.10873
 Alpha virt. eigenvalues --    0.11028   0.11704   0.12120   0.13237   0.13395
 Alpha virt. eigenvalues --    0.13708   0.14632   0.15231   0.16251   0.16658

  Beta  occ. eigenvalues --  -18.99150 -10.09312 -10.06037 -10.04912 -10.03537
  Beta  occ. eigenvalues --  -10.03483 -10.03241 -10.02516 -10.01984 -10.00486
  Beta  occ. eigenvalues --   -0.89429  -0.69514  -0.66417  -0.61072  -0.58697
  Beta  occ. eigenvalues --   -0.54920  -0.50813  -0.47250  -0.41413  -0.38269
  Beta  occ. eigenvalues --   -0.36764  -0.34385  -0.33548  -0.32290  -0.30301
  Beta  occ. eigenvalues --   -0.28752  -0.28198  -0.27541  -0.26871  -0.25659
  Beta  occ. eigenvalues --   -0.23295  -0.22271  -0.20796  -0.19307  -0.15797
  Beta  occ. eigenvalues --   -0.15235  -0.12838  -0.07975
  Beta virt. eigenvalues --    0.08474   0.09217   0.09293   0.09852   0.10773
  Beta virt. eigenvalues --    0.10981   0.11108   0.12010   0.12390   0.13312
  Beta virt. eigenvalues --    0.13403   0.13818   0.14844   0.15319   0.16457

 Mulliken charges and spin densities:
               1          2
     1  C   -0.612433  -0.053860
     2  C    0.971563   0.163173
     3  C   -0.784727   0.212284
     4  C   -0.548199  -0.039961
     5  C   -0.968132   0.379422
     6  C    0.724820   0.350228
     7  C   -0.206896  -0.422491
     8  C   -0.287584  -0.152038
     9  C    0.853055  -1.272393
    10  O   -0.258098   0.003068
    11  H    0.126893   0.008268
    12  H    0.067105   0.039738
    13  H    0.155568  -0.000309
    14  H    0.095325  -0.003515
    15  H    0.061229  -0.003288
    16  H    0.051465   0.040606
    17  H    0.074459   0.106037
    18  H    0.018729   0.077903
    19  H    0.151660  -0.020743
    20  H    0.262799  -0.076576
    21  H   -0.548547   0.673208
    22  H   -0.651333   0.817003
    23  H    0.040240   0.087655
    24  H    0.211039   0.086581
 Sum of Mulliken charges =  -1.00000   1.00000

 Dipole moment (field-independent basis, Debye):
    X=              2.4358    Y=              1.7598    Z=             -1.2743  Tot=              3.2640
 Quadrupole moment (field-independent basis, Debye-Ang):
   XX=           -120.3888   YY=            -87.1873   ZZ=            -79.7079
   XY=              2.8267   XZ=              6.9274   YZ=              2.4975

 Summary of Natural Population Analysis:

                                       Natural Population
                Natural  -----------------------------------------------
    Atom  No    Charge         Core      Valence    Rydberg      Total
 -----------------------------------------------------------------------
      C    1   -0.29563      0.99963     2.29101    0.00499     3.29563
      C    2   -0.02343      0.99951     2.01452    0.00940     3.02343
      C    3   -0.13367      0.99954     2.12567    0.00846     3.13367
      C    4   -0.07140      0.99949     2.06147    0.01044     3.07140
      C    5   -0.09884      0.99950     2.08658    0.01275     3.09884
      C    6   -0.00529      0.99950     1.99458    0.01122     3.00529
      C    7   -0.19838      0.99949     2.19200    0.00689     3.19838
      C    8   -0.21614      0.99957     2.20613    0.01043     3.21614
      C    9   -0.00727      0.99960     1.99424    0.01342     3.00727
      O   10   -0.37681      0.99990     3.37016    0.00675     4.37681
      H   11    0.09397      0.00000     0.40522    0.00082     0.40603
      H   12    0.09981      0.00000     0.39899    0.00119     0.40019
      H   13    0.10356      0.00000     0.39543    0.00101     0.39644
      H   14    0.08252      0.00000     0.41660    0.00088     0.41748
      H   15    0.08059      0.00000     0.41857    0.00084     0.41941
      H   16    0.08789      0.00000     0.41045    0.00166     0.41211
      H   17    0.09528      0.00000     0.40358    0.00114     0.40472
      H   18    0.08732      0.00000     0.41179    0.00089     0.41268
      H   19    0.09229      0.00000     0.40676    0.00095     0.40771
      H   20    0.10342      0.00000     0.39517    0.00142     0.39658
      H   21    0.10250      0.00000     0.39499    0.00251     0.39750
      H   22    0.08654      0.00000     0.41157    0.00189     0.41346
      H   23    0.07231      0.00000     0.42634    0.00135     0.42769
      H   24    0.23885      0.00000     0.25803    0.00312     0.26115
 =======================================================================
   * Total *   -0.00000      9.99574    27.88984    0.11442    38.00000

 Normal termination of Gaussian 16 at Tue Dec  8 13:59:53 2020.
