 Gaussian 16, Revision A.03,

 -----------------------------------------------------------
 # opt freq B3LYP/6-31G(d) empiricaldispersion=gd3bj scf=xqc
 -----------------------------------------------------------

 ------------------------------
 CID_21363335_JID_5395_neutraal
 ------------------------------
 Symbolic Z-matrix:
 Charge =  0 Multiplicity = 1

 SCF Done:  E(RB3LYP) =  -657.925439841     A.U. after   13 cycles
 SCF Done:  E(RB3LYP) =  -657.928946350     A.U. after   12 cycles
 SCF Done:  E(RB3LYP) =  -657.929690372     A.U. after   12 cycles
 SCF Done:  E(RB3LYP) =  -657.930426263     A.U. after   12 cycles
 SCF Done:  E(RB3LYP) =  -657.931471963     A.U. after   14 cycles
 SCF Done:  E(RB3LYP) =  -657.931771688     A.U. after   11 cycles
 SCF Done:  E(RB3LYP) =  -657.931841038     A.U. after   11 cycles
 SCF Done:  E(RB3LYP) =  -657.931875870     A.U. after   11 cycles
 SCF Done:  E(RB3LYP) =  -657.931886887     A.U. after   10 cycles
 SCF Done:  E(RB3LYP) =  -657.931889558     A.U. after    9 cycles
 SCF Done:  E(RB3LYP) =  -657.931891625     A.U. after    9 cycles
 SCF Done:  E(RB3LYP) =  -657.931893262     A.U. after    9 cycles
 SCF Done:  E(RB3LYP) =  -657.931893613     A.U. after    8 cycles
 SCF Done:  E(RB3LYP) =  -657.931893643     A.U. after    7 cycles
 SCF Done:  E(RB3LYP) =  -657.931893665     A.U. after    6 cycles
 Optimization completed.
    -- Stationary point found.
 Normal termination of Gaussian 16 at Thu Dec 10 15:55:02 2020.

 --------------------------------------------------------------------
 #N Geom=AllCheck Guess=TCheck SCRF=Check GenChk RB3LYP/6-31G(d) Freq
 --------------------------------------------------------------------

 Structure from the checkpoint file:  "JID_5395.chk"
 ------------------------------
 CID_21363335_JID_5395_neutraal
 ------------------------------
 Charge =  0 Multiplicity = 1

 SCF Done:  E(RB3LYP) =  -657.931893665     A.U. after    1 cycles

  Exact polarizability: 161.943 -24.438 130.299   3.946   8.418 126.194
 Approx polarizability: 212.787 -42.159 179.932  11.855  16.570 216.338

                      1                      2                      3
                      A                      A                      A
 Frequencies --     26.0227                32.7436                42.3279
 Red. masses --      3.5724                 2.7590                 3.1166
 Frc consts  --      0.0014                 0.0017                 0.0033
 IR Inten    --      0.0154                 0.0719                 0.0871

                      4                      5                      6
                      A                      A                      A
 Frequencies --     53.9703                81.1773                91.8985
 Red. masses --      3.5352                 3.5976                 3.7909
 Frc consts  --      0.0061                 0.0140                 0.0189
 IR Inten    --      0.2269                 1.6204                 0.2575

                      7                      8                      9
                      A                      A                      A
 Frequencies --    119.3389               150.1505               180.4130
 Red. masses --      2.0031                 2.2898                 1.4974
 Frc consts  --      0.0168                 0.0304                 0.0287
 IR Inten    --      3.9293                 0.3997                 3.1976

                     10                     11                     12
                      A                      A                      A
 Frequencies --    216.3435               226.5394               256.7947
 Red. masses --      1.5587                 1.5065                 1.4772
 Frc consts  --      0.0430                 0.0456                 0.0574
 IR Inten    --      0.3345                 0.2520                 2.1980

                     13                     14                     15
                      A                      A                      A
 Frequencies --    284.7651               304.2043               320.3196
 Red. masses --      2.8173                 2.5117                 2.0514
 Frc consts  --      0.1346                 0.1369                 0.1240
 IR Inten    --      3.8914                 2.4435                 2.2235

                     16                     17                     18
                      A                      A                      A
 Frequencies --    344.5411               394.2002               409.2932
 Red. masses --      2.8881                 2.2287                 3.6095
 Frc consts  --      0.2020                 0.2041                 0.3563
 IR Inten    --      5.1817                 0.3178                 2.0616

                     19                     20                     21
                      A                      A                      A
 Frequencies --    421.3921               463.5065               495.9744
 Red. masses --      2.9007                 3.9394                 2.9757
 Frc consts  --      0.3035                 0.4986                 0.4313
 IR Inten    --      0.0699                 2.7220                 1.2056

                     22                     23                     24
                      A                      A                      A
 Frequencies --    538.9931               595.4099               648.4941
 Red. masses --      3.3237                 2.2494                 3.2068
 Frc consts  --      0.5689                 0.4698                 0.7946
 IR Inten    --      4.3447                16.7770                 4.6116

                     25                     26                     27
                      A                      A                      A
 Frequencies --    660.3942               707.0741               757.5287
 Red. masses --      6.5812                 3.3573                 3.2076
 Frc consts  --      1.6911                 0.9889                 1.0845
 IR Inten    --      0.0142                 0.1145                 0.0500

                     28                     29                     30
                      A                      A                      A
 Frequencies --    800.6022               821.3668               830.5353
 Red. masses --      1.1606                 3.2062                 2.7916
 Frc consts  --      0.4383                 1.2744                 1.1345
 IR Inten    --      0.5858                 2.4493                 1.7254

                     31                     32                     33
                      A                      A                      A
 Frequencies --    837.5052               855.6948               866.8103
 Red. masses --      1.5389                 1.2575                 2.4291
 Frc consts  --      0.6360                 0.5425                 1.0753
 IR Inten    --     20.4575                 0.3225                53.8000

                     34                     35                     36
                      A                      A                      A
 Frequencies --    926.5876               960.4185               962.0259
 Red. masses --      2.2498                 1.3368                 1.3950
 Frc consts  --      1.1381                 0.7265                 0.7607
 IR Inten    --     26.5691                 0.2439                 1.0560

                     37                     38                     39
                      A                      A                      A
 Frequencies --    973.8138               981.5408              1028.6036
 Red. masses --      2.2067                 2.3629                 2.8220
 Frc consts  --      1.2330                 1.3413                 1.7591
 IR Inten    --      0.5943                 1.7024                37.2951

                     40                     41                     42
                      A                      A                      A
 Frequencies --   1045.5387              1055.7484              1085.5128
 Red. masses --      2.8241                 1.8260                 2.0023
 Frc consts  --      1.8189                 1.1991                 1.3901
 IR Inten    --      1.6452                32.2759                64.5934

                     43                     44                     45
                      A                      A                      A
 Frequencies --   1093.2208              1094.3992              1127.9436
 Red. masses --      1.9042                 2.1023                 2.2808
 Frc consts  --      1.3409                 1.4835                 1.7096
 IR Inten    --     21.5462                14.5113               187.7548

                     46                     47                     48
                      A                      A                      A
 Frequencies --   1151.1101              1159.7416              1184.0074
 Red. masses --      1.6965                 1.6451                 3.1528
 Frc consts  --      1.3244                 1.3037                 2.6041
 IR Inten    --     12.9631                41.7279               149.4068

                     49                     50                     51
                      A                      A                      A
 Frequencies --   1189.2307              1219.2140              1231.6850
 Red. masses --      1.2917                 1.1269                 1.5158
 Frc consts  --      1.0763                 0.9870                 1.3548
 IR Inten    --      1.0226                 0.0396                 4.5041

                     52                     53                     54
                      A                      A                      A
 Frequencies --   1237.8935              1242.6552              1245.5420
 Red. masses --      3.5357                 1.8095                 1.6184
 Frc consts  --      3.1923                 1.6463                 1.4793
 IR Inten    --      0.4722                 2.4881                 7.5187

                     55                     56                     57
                      A                      A                      A
 Frequencies --   1286.7522              1301.6277              1360.8116
 Red. masses --      1.3370                 1.2703                 1.5006
 Frc consts  --      1.3043                 1.2681                 1.6372
 IR Inten    --      0.1528                16.4070                 1.6583

                     58                     59                     60
                      A                      A                      A
 Frequencies --   1368.1526              1372.5940              1381.4292
 Red. masses --      2.3746                 1.5280                 1.4552
 Frc consts  --      2.6188                 1.6961                 1.6362
 IR Inten    --      1.2136                 4.3421                 6.8727

                     61                     62                     63
                      A                      A                      A
 Frequencies --   1396.3538              1416.4556              1435.0904
 Red. masses --      1.2266                 1.2222                 1.2342
 Frc consts  --      1.4091                 1.4447                 1.4975
 IR Inten    --     10.6817                 6.7567                 5.6012

                     64                     65                     66
                      A                      A                      A
 Frequencies --   1435.3936              1445.3394              1469.9930
 Red. masses --      1.2233                 1.3820                 2.5552
 Frc consts  --      1.4850                 1.7010                 3.2532
 IR Inten    --      1.1298                38.9607                 6.7234

                     67                     68                     69
                      A                      A                      A
 Frequencies --   1490.9269              1510.5484              1513.4487
 Red. masses --      1.1446                 1.1093                 1.0491
 Frc consts  --      1.4991                 1.4913                 1.4158
 IR Inten    --      0.6772                 2.9624                 0.2192

                     70                     71                     72
                      A                      A                      A
 Frequencies --   1518.1230              1520.1538              1525.7704
 Red. masses --      1.0637                 1.0501                 1.0410
 Frc consts  --      1.4444                 1.4298                 1.4279
 IR Inten    --      1.1703                 3.1480                 7.9393

                     73                     74                     75
                      A                      A                      A
 Frequencies --   1531.7945              1538.3916              1539.7750
 Red. masses --      1.0633                 1.0843                 1.0910
 Frc consts  --      1.4700                 1.5119                 1.5240
 IR Inten    --      2.3971                 1.7506                 3.9233

                     76                     77                     78
                      A                      A                      A
 Frequencies --   1544.3756              1567.9082              1633.9636
 Red. masses --      1.0474                 2.4909                 6.0991
 Frc consts  --      1.4718                 3.6078                 9.5940
 IR Inten    --      6.0696                16.3732                 0.0126

                     79                     80                     81
                      A                      A                      A
 Frequencies --   1678.2721              3025.9882              3043.1548
 Red. masses --      5.8696                 1.0378                 1.0602
 Frc consts  --      9.7405                 5.5989                 5.7847
 IR Inten    --      0.5358                58.5880                10.6950

                     82                     83                     84
                      A                      A                      A
 Frequencies --   3045.0936              3047.9519              3051.8376
 Red. masses --      1.0596                 1.0348                 1.0590
 Frc consts  --      5.7889                 5.6637                 5.8111
 IR Inten    --     39.2709                34.4380                70.3648

                     85                     86                     87
                      A                      A                      A
 Frequencies --   3070.7339              3079.5720              3083.3094
 Red. masses --      1.0353                 1.1038                 1.0908
 Frc consts  --      5.7517                 6.1679                 6.1096
 IR Inten    --      8.7524                 9.6529                10.3312

                     88                     89                     90
                      A                      A                      A
 Frequencies --   3086.7904              3089.8824              3102.3564
 Red. masses --      1.1016                 1.0990                 1.1051
 Frc consts  --      6.1844                 6.1820                 6.2665
 IR Inten    --     21.7939                45.6258                45.2559

                     91                     92                     93
                      A                      A                      A
 Frequencies --   3118.3172              3122.3930              3139.9306
 Red. masses --      1.1028                 1.1035                 1.1021
 Frc consts  --      6.3182                 6.3385                 6.4017
 IR Inten    --     53.5631                33.5640                31.6717

                     94                     95                     96
                      A                      A                      A
 Frequencies --   3146.7196              3150.8206              3167.8249
 Red. masses --      1.1032                 1.1027                 1.0865
 Frc consts  --      6.4361                 6.4497                 6.4239
 IR Inten    --     23.2976                20.2749                14.3411

                     97                     98                     99
                      A                      A                      A
 Frequencies --   3172.1673              3185.6540              3197.5363
 Red. masses --      1.0877                 1.0941                 1.0934
 Frc consts  --      6.4488                 6.5420                 6.5866
 IR Inten    --     14.7124                28.5789                11.6863

 - Thermochemistry -
 -------------------
 Temperature   298.150 Kelvin.  Pressure   1.00000 Atm.
 Atom     1 has atomic number  6 and mass  12.00000

 Molecular mass:   208.14633 amu.
 Principal axes and moments of inertia in atomic units:
                           1         2         3
     Eigenvalues --  2037.706205047.471756055.78353
           X            0.99985  -0.01718   0.00363
           Y            0.01710   0.99963   0.02101
           Z           -0.00399  -0.02094   0.99977
 This molecule is an asymmetric top.
 Rotational symmetry number  1.
 Warning -- assumption of classical behavior for rotation
           may cause significant error
 Rotational temperatures (Kelvin)      0.04251     0.01716     0.01430
 Rotational constants (GHZ):           0.88567     0.35755     0.29802
 Zero-point vibrational energy     813127.1 (Joules/Mol)
                                  194.34204 (Kcal/Mol)
 Warning -- explicit consideration of  23 degrees of freedom as
           vibrations may cause significant error
 Vibrational temperatures:     37.44    47.11    60.90    77.65   116.80
          (Kelvin)            132.22   171.70   216.03   259.57   311.27
                              325.94   369.47   409.71   437.68   460.87
                              495.72   567.17   588.88   606.29   666.88
                              713.60   775.49   856.66   933.04   950.16
                             1017.32  1089.91  1151.89  1181.76  1194.96
                             1204.98  1231.15  1247.15  1333.15  1381.83
                             1384.14  1401.10  1412.22  1479.93  1504.30
                             1518.99  1561.81  1572.90  1574.60  1622.86
                             1656.19  1668.61  1703.52  1711.04  1754.18
                             1772.12  1781.05  1787.90  1792.06  1851.35
                             1872.75  1957.90  1968.47  1974.86  1987.57
                             2009.04  2037.96  2064.78  2065.21  2079.52
                             2114.99  2145.11  2173.34  2177.52  2184.24
                             2187.16  2195.24  2203.91  2213.40  2215.39
                             2222.01  2255.87  2350.91  2414.66  4353.72
                             4378.42  4381.21  4385.32  4390.91  4418.10
                             4430.82  4436.19  4441.20  4445.65  4463.60
                             4486.56  4492.43  4517.66  4527.43  4533.33
                             4557.79  4564.04  4583.45  4600.54

 Zero-point correction=                           0.309704 (Hartree/Particle)
 Thermal correction to Energy=                    0.325906
 Thermal correction to Enthalpy=                  0.326850
 Thermal correction to Gibbs Free Energy=         0.264173
 Sum of electronic and zero-point Energies=           -657.622190
 Sum of electronic and thermal Energies=              -657.605988
 Sum of electronic and thermal Enthalpies=            -657.605044
 Sum of electronic and thermal Free Energies=         -657.667721

                     E (Thermal)             CV                S
                      KCal/Mol        Cal/Mol-Kelvin    Cal/Mol-Kelvin
 Total                  204.509             59.779            131.915
 Electronic               0.000              0.000              0.000
 Translational            0.889              2.981             41.903
 Rotational               0.889              2.981             32.499
 Vibrational            202.731             53.818             57.513
 Vibration     1          0.593              1.985              6.112
 Vibration     2          0.594              1.983              5.656
 Vibration     3          0.595              1.980              5.147
 Vibration     4          0.596              1.976              4.666
 Vibration     5          0.600              1.962              3.862
 Vibration     6          0.602              1.955              3.619
 Vibration     7          0.609              1.933              3.111
 Vibration     8          0.618              1.902              2.670
 Vibration     9          0.629              1.866              2.324
 Vibration    10          0.645              1.816              1.989
 Vibration    11          0.650              1.801              1.906
 Vibration    12          0.666              1.751              1.683
 Vibration    13          0.683              1.702              1.505
 Vibration    14          0.695              1.666              1.394
 Vibration    15          0.706              1.635              1.308
 Vibration    16          0.723              1.586              1.191
 Vibration    17          0.761              1.483              0.984
 Vibration    18          0.774              1.450              0.929
 Vibration    19          0.784              1.424              0.887
 Vibration    20          0.821              1.331              0.756
 Vibration    21          0.852              1.259              0.668
 Vibration    22          0.894              1.164              0.567
 Vibration    23          0.953              1.042              0.458

 Optimization completed.
    -- Stationary point found.
 Normal termination of Gaussian 16 at Thu Dec 10 16:06:07 2020.

 ----------------------------------------------------------------------
 # B3LYP/6-311++G(d,p) empiricaldispersion=gd3bj scf=xqc pop=npa geom=c
 heck
 ----------------------------------------------------------------------

 --------------------------------------
 CID_21363335_JID_5395_Energie_neutraal
 --------------------------------------
 Structure from the checkpoint file:  "JID_5395.chk"
 Charge =  0 Multiplicity = 1

 SCF Done:  E(RB3LYP) =  -658.114603182     A.U. after   14 cycles
 Normal termination of Gaussian 16 at Thu Dec 10 16:10:37 2020.

 ----------------------------------------------------------------------
 # B3LYP/6-311++G(d,p) empiricaldispersion=gd3bj scf=xqc pop=npa geom=c
 heck
 ----------------------------------------------------------------------

 ------------------------------------
 CID_21363335_JID_5395_Energie_kation
 ------------------------------------
 Structure from the checkpoint file:  "JID_5395.chk"
 Charge =  1 Multiplicity = 2

 SCF Done:  E(UB3LYP) =  -657.813019006     A.U. after   25 cycles
 Normal termination of Gaussian 16 at Thu Dec 10 16:22:15 2020.
 Gaussian 16:  ES64L-G16RevA.03 25-Dec-2016

 ----------------------------------------------------------------------
 # B3LYP/6-311++G(d,p) empiricaldispersion=gd3bj scf=xqc pop=npa geom=c
 heck
 ----------------------------------------------------------------------

 -----------------------------------
 CID_21363335_JID_5395_Energie_anion
 -----------------------------------
 Structure from the checkpoint file:  "JID_5395.chk"
 Charge = -1 Multiplicity = 2

                         Standard orientation:
 ---------------------------------------------------------------------
 Center     Atomic      Atomic             Coordinates (Angstroms)
 Number     Number       Type             X           Y           Z
 ---------------------------------------------------------------------
      1          6           0       -3.573635    2.253159   -0.421188
      2          6           0       -3.955327    0.806636   -0.065383
      3          6           0       -2.745576   -0.095301    0.014267
      4          6           0       -2.020158   -0.222634    1.204662
      5          6           0       -0.868030   -1.004239    1.264074
      6          6           0       -0.401343   -1.684290    0.133206
      7          6           0       -1.132496   -1.567725   -1.054464
      8          6           0       -2.284900   -0.786027   -1.112742
      9          6           0        0.903718   -2.440558    0.174788
     10          6           0        2.091137   -1.564415   -0.251810
     11          8           0        2.213812   -0.429064    0.602209
     12          6           0        1.802375    0.792785    0.018727
     13          6           0        1.645482    1.792425    1.153556
     14          8           0        2.687794    1.208350   -1.004440
     15          6           0        4.021764    1.458527   -0.585876
     16          1           0       -2.892377    2.670141    0.328879
     17          1           0       -4.460137    2.895335   -0.473912
     18          1           0       -3.063161    2.292561   -1.389825
     19          1           0       -4.487317    0.797813    0.894077
     20          1           0       -4.655775    0.420917   -0.816356
     21          1           0       -2.363900    0.297231    2.096398
     22          1           0       -0.313164   -1.081807    2.194933
     23          1           0       -0.792540   -2.091565   -1.945325
     24          1           0       -2.837157   -0.710482   -2.046851
     25          1           0        1.092756   -2.807561    1.190023
     26          1           0        0.867080   -3.316069   -0.486696
     27          1           0        3.023439   -2.136316   -0.174184
     28          1           0        1.984478   -1.242293   -1.294202
     29          1           0        0.851675    0.659957   -0.508251
     30          1           0        2.547049    1.829488    1.771956
     31          1           0        1.445247    2.788732    0.748300
     32          1           0        0.807156    1.490738    1.786880
     33          1           0        4.103424    2.388907   -0.006855
     34          1           0        4.617005    1.560031   -1.496666
     35          1           0        4.415304    0.629897    0.014616
 ---------------------------------------------------------------------

 SCF Done:  E(UB3LYP) =  -658.100318961     A.U. after   33 cycles
 SCF Done:  E(UB3LYP) =  -658.100318961     a.u. after    1 cycles

 The electronic state is 2-A.
 Alpha  occ. eigenvalues --  -19.03361 -19.03092 -10.17112 -10.11976 -10.11735
 Alpha  occ. eigenvalues --  -10.07689 -10.07659 -10.07532 -10.07341 -10.07245
 Alpha  occ. eigenvalues --  -10.07160 -10.07128 -10.07063 -10.06880 -10.06323
 Alpha  occ. eigenvalues --   -0.97516  -0.91444  -0.76265  -0.70487  -0.67716
 Alpha  occ. eigenvalues --   -0.65092  -0.64600  -0.60935  -0.60361  -0.54809
 Alpha  occ. eigenvalues --   -0.51490  -0.51085  -0.49009  -0.47136  -0.42290
 Alpha  occ. eigenvalues --   -0.41594  -0.39965  -0.37772  -0.37438  -0.36394
 Alpha  occ. eigenvalues --   -0.34826  -0.33943  -0.32920  -0.32794  -0.32269
 Alpha  occ. eigenvalues --   -0.31934  -0.30844  -0.29578  -0.29183  -0.28504
 Alpha  occ. eigenvalues --   -0.27766  -0.26373  -0.25643  -0.25125  -0.24642
 Alpha  occ. eigenvalues --   -0.23456  -0.23205  -0.20853  -0.18632  -0.17721
 Alpha  occ. eigenvalues --   -0.15573  -0.13915   0.04241
 Alpha virt. eigenvalues --    0.05943   0.06489   0.07358   0.07890   0.08213
 Alpha virt. eigenvalues --    0.08346   0.08741   0.09068   0.09537   0.09833
 Alpha virt. eigenvalues --    0.10287   0.10969   0.11531   0.11875   0.12353

  Beta  occ. eigenvalues --  -19.03359 -19.03089 -10.17110 -10.11955 -10.11710
  Beta  occ. eigenvalues --  -10.07646 -10.07607 -10.07522 -10.07328 -10.07233
  Beta  occ. eigenvalues --  -10.07146 -10.07114 -10.07053 -10.06870 -10.06287
  Beta  occ. eigenvalues --   -0.97510  -0.91438  -0.76198  -0.70411  -0.67683
  Beta  occ. eigenvalues --   -0.65050  -0.64549  -0.60874  -0.60324  -0.54745
  Beta  occ. eigenvalues --   -0.51442  -0.51046  -0.48972  -0.47065  -0.42259
  Beta  occ. eigenvalues --   -0.41577  -0.39916  -0.37732  -0.37406  -0.36338
  Beta  occ. eigenvalues --   -0.34777  -0.33903  -0.32884  -0.32740  -0.32232
  Beta  occ. eigenvalues --   -0.31902  -0.30823  -0.29544  -0.29132  -0.28459
  Beta  occ. eigenvalues --   -0.27732  -0.26333  -0.25597  -0.25063  -0.24591
  Beta  occ. eigenvalues --   -0.23423  -0.23150  -0.20835  -0.18611  -0.17702
  Beta  occ. eigenvalues --   -0.15471  -0.13698
  Beta virt. eigenvalues --    0.06191   0.06799   0.07198   0.07803   0.08180
  Beta virt. eigenvalues --    0.08368   0.08735   0.09105   0.09540   0.09901
  Beta virt. eigenvalues --    0.10171   0.10624   0.11204   0.11746   0.12205

 Mulliken charges and spin densities:
               1          2
     1  C    0.713512  -1.299734
     2  C    0.224494  -0.729129
     3  C    1.006631  -0.114324
     4  C   -0.629756   0.154280
     5  C   -0.718523   0.378332
     6  C    0.794236   0.111268
     7  C   -0.347361  -0.007090
     8  C   -0.749153   0.261266
     9  C    0.584483  -1.400487
    10  C    0.625333  -0.742302
    11  O   -0.036510   0.019680
    12  C   -1.059329   0.492211
    13  C    0.006167  -0.513052
    14  O   -0.041780   0.021122
    15  C    0.447187  -0.679044
    16  H   -0.024319   0.160623
    17  H   -0.409242   0.543823
    18  H   -0.018782   0.151789
    19  H   -0.176082   0.318760
    20  H   -0.177166   0.322206
    21  H   -0.366639   0.541474
    22  H   -0.163148   0.338205
    23  H   -0.340038   0.498734
    24  H   -0.278919   0.446882
    25  H    0.043324   0.132782
    26  H   -0.232971   0.390915
    27  H   -0.340411   0.492384
    28  H    0.174686  -0.002591
    29  H    0.552248  -0.242080
    30  H    0.048648   0.113970
    31  H    0.005115   0.156736
    32  H    0.217012  -0.079372
    33  H   -0.144648   0.268270
    34  H   -0.135681   0.276226
    35  H   -0.052617   0.217269
 Sum of Mulliken charges =  -1.00000   1.00000

 Dipole moment (field-independent basis, Debye):
    X=              2.4720    Y=             -0.2651    Z=              0.7871  Tot=              2.6078
 Quadrupole moment (field-independent basis, Debye-Ang):
   XX=           -181.1235   YY=           -142.5968   ZZ=           -126.8078
   XY=             11.7603   XZ=              0.6414   YZ=             -0.2694

 Summary of Natural Population Analysis:

                                       Natural Population
                Natural  -----------------------------------------------
    Atom  No    Charge         Core      Valence    Rydberg      Total
 -----------------------------------------------------------------------
      C    1   -0.27940      0.99966     2.27470    0.00504     3.27940
      C    2   -0.19780      0.99961     2.18885    0.00933     3.19780
      C    3   -0.01042      0.99951     2.00060    0.01031     3.01042
      C    4   -0.09982      0.99951     2.09046    0.00985     3.09982
      C    5   -0.09858      0.99951     2.08947    0.00959     3.09858
      C    6   -0.01603      0.99950     2.00580    0.01072     3.01603
      C    7   -0.09953      0.99951     2.09052    0.00950     3.09953
      C    8   -0.09886      0.99951     2.08992    0.00943     3.09886
      C    9   -0.20774      0.99959     2.19824    0.00991     3.20774
      C   10   -0.00590      0.99956     1.99356    0.01278     3.00590
      O   11   -0.31150      0.99987     3.30199    0.00963     4.31150
      C   12    0.21530      0.99959     1.76557    0.01954     2.78470
      C   13   -0.30327      0.99963     2.29902    0.00462     3.30327
      O   14   -0.30370      0.99988     3.29523    0.00859     4.30370
      C   15   -0.10500      0.99960     2.09670    0.00869     3.10500
      H   16    0.09701      0.00000     0.40184    0.00114     0.40299
      H   17    0.09858      0.00000     0.39978    0.00163     0.40142
      H   18    0.09672      0.00000     0.40221    0.00107     0.40328
      H   19    0.09949      0.00000     0.39903    0.00149     0.40051
      H   20    0.09906      0.00000     0.39951    0.00142     0.40094
      H   21    0.09917      0.00000     0.39975    0.00108     0.40083
      H   22    0.10097      0.00000     0.39754    0.00149     0.39903
      H   23    0.09922      0.00000     0.39972    0.00106     0.40078
      H   24    0.09927      0.00000     0.39970    0.00103     0.40073
      H   25    0.10180      0.00000     0.39694    0.00126     0.39820
      H   26    0.10398      0.00000     0.39456    0.00147     0.39602
      H   27    0.08866      0.00000     0.40977    0.00157     0.41134
      H   28    0.08694      0.00000     0.41128    0.00177     0.41306
      H   29    0.08503      0.00000     0.41214    0.00283     0.41497
      H   30    0.10113      0.00000     0.39770    0.00117     0.39887
      H   31    0.10227      0.00000     0.39690    0.00084     0.39773
      H   32    0.10885      0.00000     0.39010    0.00105     0.39115
      H   33    0.07787      0.00000     0.42043    0.00171     0.42213
      H   34    0.08891      0.00000     0.40986    0.00123     0.41109
      H   35    0.08732      0.00000     0.41090    0.00178     0.41268
 =======================================================================
   * Total *   -0.00000     14.99404    41.83029    0.17567    57.00000

 Normal termination of Gaussian 16 at Thu Dec 10 16:37:31 2020.
