 Gaussian 16, Revision A.03,

 -----------------------------------------------------------
 # opt freq B3LYP/6-31G(d) empiricaldispersion=gd3bj scf=xqc
 -----------------------------------------------------------

 ------------------------------
 CID_81090883_JID_7036_neutraal
 ------------------------------
 Symbolic Z-matrix:
 Charge =  0 Multiplicity = 1

 SCF Done:  E(RB3LYP) =  -767.443347730     A.U. after   15 cycles
 SCF Done:  E(RB3LYP) =  -767.449162361     A.U. after   12 cycles
 SCF Done:  E(RB3LYP) =  -767.449712065     A.U. after   12 cycles
 SCF Done:  E(RB3LYP) =  -767.450519390     A.U. after   12 cycles
 SCF Done:  E(RB3LYP) =  -767.451123357     A.U. after   13 cycles
 SCF Done:  E(RB3LYP) =  -767.451563431     A.U. after   12 cycles
 SCF Done:  E(RB3LYP) =  -767.451743472     A.U. after   11 cycles
 SCF Done:  E(RB3LYP) =  -767.451804880     A.U. after   10 cycles
 SCF Done:  E(RB3LYP) =  -767.451838647     A.U. after   10 cycles
 SCF Done:  E(RB3LYP) =  -767.451950521     A.U. after   12 cycles
 SCF Done:  E(RB3LYP) =  -767.453724936     A.U. after   11 cycles
 SCF Done:  E(RB3LYP) =  -767.453729672     A.U. after    8 cycles
 SCF Done:  E(RB3LYP) =  -767.453731300     A.U. after    8 cycles
 SCF Done:  E(RB3LYP) =  -767.453731569     A.U. after    7 cycles
 SCF Done:  E(RB3LYP) =  -767.453731751     A.U. after    8 cycles
 Optimization completed.
    -- Stationary point found.
 Normal termination of Gaussian 16 at Fri Dec 11 12:00:11 2020.

 --------------------------------------------------------------------
 #N Geom=AllCheck Guess=TCheck SCRF=Check GenChk RB3LYP/6-31G(d) Freq
 --------------------------------------------------------------------

 Structure from the checkpoint file:  "JID_7036.chk"
 ------------------------------
 CID_81090883_JID_7036_neutraal
 ------------------------------
 Charge =  0 Multiplicity = 1

 SCF Done:  E(RB3LYP) =  -767.453731751     A.U. after    1 cycles

  Exact polarizability: 215.400  -1.163 161.400   3.242  -1.831 103.909
 Approx polarizability: 269.479  -2.793 273.250   8.632  -1.416 154.539

                      1                      2                      3
                      A                      A                      A
 Frequencies --     28.6507                42.4498                47.8806
 Red. masses --      3.7684                 3.7389                 3.7172
 Frc consts  --      0.0018                 0.0040                 0.0050
 IR Inten    --      2.0534                 0.7367                 0.4533

                      4                      5                      6
                      A                      A                      A
 Frequencies --     82.7154                98.7966               112.5691
 Red. masses --      3.6673                 2.7100                 2.9834
 Frc consts  --      0.0148                 0.0156                 0.0223
 IR Inten    --      0.0626                 1.6190                 0.3194

                      7                      8                      9
                      A                      A                      A
 Frequencies --    149.4557               162.8173               194.6344
 Red. masses --      2.3551                 3.1283                 1.8049
 Frc consts  --      0.0310                 0.0489                 0.0403
 IR Inten    --      1.8659                 0.2323                 0.7108

                     10                     11                     12
                      A                      A                      A
 Frequencies --    197.6056               208.2734               230.7863
 Red. masses --      1.5333                 1.8565                 2.4715
 Frc consts  --      0.0353                 0.0474                 0.0776
 IR Inten    --      0.2774                 0.8818                 2.3903

                     13                     14                     15
                      A                      A                      A
 Frequencies --    235.3566               239.7517               252.0044
 Red. masses --      2.4470                 1.7078                 1.1598
 Frc consts  --      0.0799                 0.0578                 0.0434
 IR Inten    --      4.3209                 0.6787                 0.4189

                     16                     17                     18
                      A                      A                      A
 Frequencies --    262.4426               281.8953               290.2023
 Red. masses --      2.3095                 2.3287                 1.1510
 Frc consts  --      0.0937                 0.1090                 0.0571
 IR Inten    --      0.5731                 2.0983                23.2087

                     19                     20                     21
                      A                      A                      A
 Frequencies --    328.8247               361.2847               392.3444
 Red. masses --      2.3570                 3.4062                 5.0023
 Frc consts  --      0.1502                 0.2620                 0.4537
 IR Inten    --      1.6552                10.9909                 5.4277

                     22                     23                     24
                      A                      A                      A
 Frequencies --    419.2080               458.9037               463.3025
 Red. masses --      3.2477                 3.2944                 3.0602
 Frc consts  --      0.3363                 0.4088                 0.3870
 IR Inten    --      1.2451                 9.2184                 7.0543

                     25                     26                     27
                      A                      A                      A
 Frequencies --    492.4499               502.8309               544.9344
 Red. masses --      2.7676                 4.5967                 5.8772
 Frc consts  --      0.3954                 0.6848                 1.0283
 IR Inten    --      0.4631                11.3767                22.9497

                     28                     29                     30
                      A                      A                      A
 Frequencies --    578.2969               598.4482               611.6698
 Red. masses --      2.7422                 2.5493                 3.6747
 Frc consts  --      0.5403                 0.5379                 0.8100
 IR Inten    --     70.4611                70.8138                44.4635

                     31                     32                     33
                      A                      A                      A
 Frequencies --    648.8196               684.1665               701.6156
 Red. masses --      2.4839                 4.1376                 2.7274
 Frc consts  --      0.6161                 1.1411                 0.7910
 IR Inten    --    154.9780                19.3977                 4.8346

                     34                     35                     36
                      A                      A                      A
 Frequencies --    772.6467               791.3249               824.6818
 Red. masses --      4.2166                 2.9475                 1.2375
 Frc consts  --      1.4831                 1.0875                 0.4959
 IR Inten    --     25.2604                20.9359                11.7099

                     37                     38                     39
                      A                      A                      A
 Frequencies --    826.7589               852.2790               866.4573
 Red. masses --      1.4664                 1.4695                 1.6610
 Frc consts  --      0.5906                 0.6289                 0.7347
 IR Inten    --     24.9923                10.7943                15.4910

                     40                     41                     42
                      A                      A                      A
 Frequencies --    877.5155               915.2295               944.2832
 Red. masses --      2.6851                 2.5637                 1.1544
 Frc consts  --      1.2182                 1.2652                 0.6064
 IR Inten    --      3.9022                12.2744                 1.9660

                     43                     44                     45
                      A                      A                      A
 Frequencies --    962.9545               975.6841              1014.6096
 Red. masses --      1.5880                 2.4133                 5.9242
 Frc consts  --      0.8676                 1.3536                 3.5932
 IR Inten    --      2.7865                 6.1873                 3.4161

                     46                     47                     48
                      A                      A                      A
 Frequencies --   1024.1645              1085.6242              1104.6136
 Red. masses --      3.5126                 2.8820                 1.6165
 Frc consts  --      2.1708                 2.0012                 1.1621
 IR Inten    --     11.5628               107.6428                67.7176

                     49                     50                     51
                      A                      A                      A
 Frequencies --   1128.9679              1139.1598              1149.4803
 Red. masses --      1.7820                 1.7694                 1.3231
 Frc consts  --      1.3382                 1.3528                 1.0300
 IR Inten    --     68.5379                 4.7553                 8.7956

                     52                     53                     54
                      A                      A                      A
 Frequencies --   1157.5255              1170.5212              1189.0290
 Red. masses --      1.4480                 1.8511                 2.3202
 Frc consts  --      1.1431                 1.4943                 1.9327
 IR Inten    --      2.9449                11.0820                23.5647

                     55                     56                     57
                      A                      A                      A
 Frequencies --   1199.4268              1218.2068              1230.0952
 Red. masses --      1.7303                 1.9276                 2.0388
 Frc consts  --      1.4666                 1.6854                 1.8176
 IR Inten    --     26.6746                 7.7586               213.7232

                     58                     59                     60
                      A                      A                      A
 Frequencies --   1253.3247              1312.2033              1334.2678
 Red. masses --      3.0745                 1.3369                 1.1554
 Frc consts  --      2.8454                 1.3563                 1.2119
 IR Inten    --     16.3881                 1.2393                22.9843

                     61                     62                     63
                      A                      A                      A
 Frequencies --   1358.0428              1376.9049              1379.5503
 Red. masses --      3.4867                 1.3261                 2.9606
 Frc consts  --      3.7887                 1.4812                 3.3198
 IR Inten    --     20.3802                 4.5018               195.8994

                     64                     65                     66
                      A                      A                      A
 Frequencies --   1394.5074              1419.8342              1426.6702
 Red. masses --      2.5515                 1.2807                 1.5026
 Frc consts  --      2.9234                 1.5211                 1.8019
 IR Inten    --    246.7168                13.7532                32.8360

                     67                     68                     69
                      A                      A                      A
 Frequencies --   1436.9472              1444.5856              1461.8502
 Red. masses --      1.2803                 1.3410                 1.4154
 Frc consts  --      1.5576                 1.6488                 1.7822
 IR Inten    --     63.6020                13.1162                41.6347

                     70                     71                     72
                      A                      A                      A
 Frequencies --   1499.3742              1508.8643              1510.6516
 Red. masses --      1.6469                 1.1422                 1.8234
 Frc consts  --      2.1814                 1.5322                 2.4517
 IR Inten    --     22.0904                13.7592                62.6812

                     73                     74                     75
                      A                      A                      A
 Frequencies --   1515.9735              1522.4287              1524.4166
 Red. masses --      1.1497                 1.0889                 1.1330
 Frc consts  --      1.5567                 1.4870                 1.5513
 IR Inten    --     15.1140                16.9236                18.1427

                     76                     77                     78
                      A                      A                      A
 Frequencies --   1526.4346              1533.1324              1534.8165
 Red. masses --      2.0227                 1.0781                 1.0530
 Frc consts  --      2.7767                 1.4931                 1.4614
 IR Inten    --      5.1197                 0.4852                 0.9548

                     79                     80                     81
                      A                      A                      A
 Frequencies --   1549.6188              1550.6009              1552.9697
 Red. masses --      1.1124                 1.1572                 1.0737
 Frc consts  --      1.5738                 1.6393                 1.5257
 IR Inten    --     13.5697                21.0067                11.2504

                     82                     83                     84
                      A                      A                      A
 Frequencies --   1655.4680              1661.5357              1694.3568
 Red. masses --      4.8143                 5.8732                 1.2011
 Frc consts  --      7.7736                 9.5531                 2.0316
 IR Inten    --    227.9988                50.5941               119.6590

                     85                     86                     87
                      A                      A                      A
 Frequencies --   1732.8974              3026.8523              3041.6445
 Red. masses --     10.1649                 1.0438                 1.0685
 Frc consts  --     17.9846                 5.6346                 5.8244
 IR Inten    --    194.4610                36.9697                44.4345

                     88                     89                     90
                      A                      A                      A
 Frequencies --   3044.6882              3053.1341              3061.1408
 Red. masses --      1.0770                 1.0398                 1.0421
 Frc consts  --      5.8821                 5.7108                 5.7536
 IR Inten    --     38.0323                36.2394                39.6549

                     91                     92                     93
                      A                      A                      A
 Frequencies --   3061.5228              3072.6227              3111.3551
 Red. masses --      1.0368                 1.1043                 1.0971
 Frc consts  --      5.7257                 6.1425                 6.2573
 IR Inten    --     14.1759                34.0179                21.5124

                     94                     95                     96
                      A                      A                      A
 Frequencies --   3111.6078              3119.3966              3130.8501
 Red. masses --      1.1021                 1.1022                 1.1006
 Frc consts  --      6.2867                 6.3192                 6.3563
 IR Inten    --     30.7321                47.7964                31.4370

                     97                     98                     99
                      A                      A                      A
 Frequencies --   3147.3174              3165.9058              3176.4301
 Red. masses --      1.1033                 1.0993                 1.0984
 Frc consts  --      6.4390                 6.4918                 6.5296
 IR Inten    --     36.3662                 6.7773                 8.8421

                    100                    101                    102
                      A                      A                      A
 Frequencies --   3190.0059              3192.3009              3214.4664
 Red. masses --      1.0934                 1.0910                 1.0890
 Frc consts  --      6.5556                 6.5504                 6.6298
 IR Inten    --     14.3386                 4.9643                13.6305

                    103                    104                    105
                      A                      A                      A
 Frequencies --   3240.1437              3551.1389              3649.9462
 Red. masses --      1.0911                 1.0479                 1.0980
 Frc consts  --      6.7489                 7.7857                 8.6184
 IR Inten    --      1.0040                10.1829                 6.7375

 - Thermochemistry -
 -------------------
 Temperature   298.150 Kelvin.  Pressure   1.00000 Atm.
 Atom     1 has atomic number  6 and mass  12.00000

 Molecular mass:   236.15248 amu.
 Principal axes and moments of inertia in atomic units:
                           1         2         3
     Eigenvalues --  1989.355377981.765109046.40279
           X            0.99999  -0.00140  -0.00479
           Y            0.00144   0.99997   0.00809
           Z            0.00478  -0.00809   0.99996
 This molecule is an asymmetric top.
 Rotational symmetry number  1.
 Warning -- assumption of classical behavior for rotation
           may cause significant error
 Rotational temperatures (Kelvin)      0.04354     0.01085     0.00957
 Rotational constants (GHZ):           0.90720     0.22611     0.19950
 Zero-point vibrational energy     839547.2 (Joules/Mol)
                                  200.65659 (Kcal/Mol)
 Warning -- explicit consideration of  30 degrees of freedom as
           vibrations may cause significant error
 Vibrational temperatures:     41.22    61.08    68.89   119.01   142.15
          (Kelvin)            161.96   215.03   234.26   280.04   284.31
                              299.66   332.05   338.63   344.95   362.58
                              377.60   405.58   417.54   473.11   519.81
                              564.50   603.15   660.26   666.59   708.53
                              723.46   784.04   832.04   861.03   880.06
                              933.51   984.36  1009.47  1111.67  1138.54
                             1186.53  1189.52  1226.24  1246.64  1262.55
                             1316.81  1358.61  1385.48  1403.79  1459.80
                             1473.54  1561.97  1589.29  1624.33  1639.00
                             1653.85  1665.42  1684.12  1710.75  1725.71
                             1752.73  1769.83  1803.25  1887.97  1919.71
                             1953.92  1981.06  1984.87  2006.39  2042.82
                             2052.66  2067.45  2078.44  2103.28  2157.26
                             2170.92  2173.49  2181.15  2190.44  2193.30
                             2196.20  2205.84  2208.26  2229.56  2230.97
                             2234.38  2381.85  2390.58  2437.80  2493.25
                             4354.97  4376.25  4380.63  4392.78  4404.30
                             4404.85  4420.82  4476.55  4476.91  4488.12
                             4504.59  4528.29  4555.03  4570.17  4589.71
                             4593.01  4624.90  4661.84  5109.30  5251.46

 Zero-point correction=                           0.319767 (Hartree/Particle)
 Thermal correction to Energy=                    0.338155
 Thermal correction to Enthalpy=                  0.339099
 Thermal correction to Gibbs Free Energy=         0.273303
 Sum of electronic and zero-point Energies=           -767.133965
 Sum of electronic and thermal Energies=              -767.115577
 Sum of electronic and thermal Enthalpies=            -767.114633
 Sum of electronic and thermal Free Energies=         -767.180429

                     E (Thermal)             CV                S
                      KCal/Mol        Cal/Mol-Kelvin    Cal/Mol-Kelvin
 Total                  212.195             69.081            138.480
 Electronic               0.000              0.000              0.000
 Translational            0.889              2.981             42.279
 Rotational               0.889              2.981             33.329
 Vibrational            210.418             63.119             62.871
 Vibration     1          0.593              1.984              5.921
 Vibration     2          0.595              1.980              5.141
 Vibration     3          0.595              1.978              4.903
 Vibration     4          0.600              1.961              3.825
 Vibration     5          0.604              1.950              3.478
 Vibration     6          0.607              1.939              3.224
 Vibration     7          0.618              1.903              2.679
 Vibration     8          0.623              1.888              2.517
 Vibration     9          0.635              1.847              2.183
 Vibration    10          0.637              1.843              2.155
 Vibration    11          0.642              1.828              2.059
 Vibration    12          0.652              1.794              1.873
 Vibration    13          0.655              1.787              1.838
 Vibration    14          0.657              1.780              1.805
 Vibration    15          0.664              1.759              1.717
 Vibration    16          0.670              1.742              1.645
 Vibration    17          0.681              1.707              1.522
 Vibration    18          0.686              1.692              1.473
 Vibration    19          0.712              1.618              1.266
 Vibration    20          0.735              1.552              1.117
 Vibration    21          0.760              1.487              0.991
 Vibration    22          0.782              1.429              0.895
 Vibration    23          0.817              1.341              0.769
 Vibration    24          0.821              1.331              0.757
 Vibration    25          0.848              1.267              0.677
 Vibration    26          0.858              1.244              0.651
 Vibration    27          0.900              1.151              0.555
 Vibration    28          0.935              1.078              0.489
 Vibration    29          0.956              1.035              0.452
 Vibration    30          0.971              1.007              0.430

 Optimization completed.
    -- Stationary point found.
 Normal termination of Gaussian 16 at Fri Dec 11 12:12:14 2020.

 ----------------------------------------------------------------------
 # B3LYP/6-311++G(d,p) empiricaldispersion=gd3bj scf=xqc pop=npa geom=c
 heck
 ----------------------------------------------------------------------

 --------------------------------------
 CID_81090883_JID_7036_Energie_neutraal
 --------------------------------------
 Structure from the checkpoint file:  "JID_7036.chk"
 Charge =  0 Multiplicity = 1

 SCF Done:  E(RB3LYP) =  -767.673309636     A.U. after   16 cycles
 Normal termination of Gaussian 16 at Fri Dec 11 12:17:54 2020.

 ----------------------------------------------------------------------
 # B3LYP/6-311++G(d,p) empiricaldispersion=gd3bj scf=xqc pop=npa geom=c
 heck
 ----------------------------------------------------------------------

 ------------------------------------
 CID_81090883_JID_7036_Energie_kation
 ------------------------------------
 Structure from the checkpoint file:  "JID_7036.chk"
 Charge =  1 Multiplicity = 2

 SCF Done:  E(UB3LYP) =  -767.399154394     A.U. after   26 cycles
 Normal termination of Gaussian 16 at Fri Dec 11 12:31:34 2020.
 Gaussian 16:  ES64L-G16RevA.03 25-Dec-2016

 ----------------------------------------------------------------------
 # B3LYP/6-311++G(d,p) empiricaldispersion=gd3bj scf=xqc pop=npa geom=c
 heck
 ----------------------------------------------------------------------

 -----------------------------------
 CID_81090883_JID_7036_Energie_anion
 -----------------------------------
 Structure from the checkpoint file:  "JID_7036.chk"
 Charge = -1 Multiplicity = 2

                         Standard orientation:
 ---------------------------------------------------------------------
 Center     Atomic      Atomic             Coordinates (Angstroms)
 Number     Number       Type             X           Y           Z
 ---------------------------------------------------------------------
      1          6           0        5.028234   -1.099035   -0.860716
      2          6           0        4.473196   -1.199465    0.555375
      3          8           0        3.074275   -1.482206    0.573576
      4          6           0        2.180137   -0.491627    0.285752
      5          6           0        0.846601   -0.903879    0.180075
      6          6           0       -0.144856    0.041204   -0.066768
      7          6           0        0.180808    1.391495   -0.238859
      8          6           0        1.516547    1.801639   -0.156520
      9          6           0        2.517500    0.854373    0.118715
     10          7           0        1.868331    3.132278   -0.405257
     11          6           0       -1.555657   -0.454095   -0.247034
     12          8           0       -1.765829   -1.451587   -0.936192
     13          7           0       -2.569976    0.274066    0.329516
     14          6           0       -2.382416    1.097604    1.518096
     15          6           0       -3.979362   -0.077787    0.040855
     16          6           0       -4.297131   -0.006888   -1.455363
     17          6           0       -4.372975   -1.421377    0.667419
     18          1           0        4.826900   -2.024757   -1.408384
     19          1           0        6.112384   -0.940950   -0.830758
     20          1           0        4.573919   -0.271704   -1.413318
     21          1           0        4.924872   -2.043783    1.083264
     22          1           0        4.686914   -0.295083    1.140364
     23          1           0        0.598373   -1.953406    0.279587
     24          1           0       -0.596458    2.114767   -0.467989
     25          1           0        3.547542    1.186932    0.177274
     26          1           0        2.729350    3.433080    0.034263
     27          1           0        1.123560    3.799810   -0.248511
     28          1           0       -2.733048    2.123608    1.347553
     29          1           0       -2.952062    0.677914    2.358151
     30          1           0       -1.332105    1.130174    1.800288
     31          1           0       -4.559931    0.711910    0.533472
     32          1           0       -3.774849   -0.792123   -2.002785
     33          1           0       -5.376077   -0.125806   -1.605294
     34          1           0       -3.998736    0.964462   -1.864419
     35          1           0       -4.153703   -1.431666    1.741476
     36          1           0       -5.447053   -1.598072    0.540279
     37          1           0       -3.819623   -2.232343    0.190451
 ---------------------------------------------------------------------

 SCF Done:  E(UB3LYP) =  -767.662752989     A.U. after   33 cycles
 SCF Done:  E(UB3LYP) =  -767.665897911     a.u. after    8 cycles

 The electronic state is 2-A.
 Alpha  occ. eigenvalues --  -19.06026 -18.99139 -14.24833 -14.21667 -10.17755
 Alpha  occ. eigenvalues --  -10.14165 -10.14113 -10.12476 -10.12172 -10.10815
 Alpha  occ. eigenvalues --  -10.08973 -10.08193 -10.07312 -10.07309 -10.06994
 Alpha  occ. eigenvalues --  -10.06919 -10.06673  -0.97658  -0.94335  -0.84326
 Alpha  occ. eigenvalues --   -0.82208  -0.74870  -0.69931  -0.68504  -0.65553
 Alpha  occ. eigenvalues --   -0.63112  -0.61304  -0.60122  -0.56545  -0.55182
 Alpha  occ. eigenvalues --   -0.51021  -0.50322  -0.45429  -0.42867  -0.42467
 Alpha  occ. eigenvalues --   -0.40813  -0.39734  -0.38279  -0.37933  -0.36942
 Alpha  occ. eigenvalues --   -0.36896  -0.35871  -0.35070  -0.33952  -0.33232
 Alpha  occ. eigenvalues --   -0.31803  -0.31329  -0.31210  -0.30723  -0.29651
 Alpha  occ. eigenvalues --   -0.29450  -0.28287  -0.28023  -0.27743  -0.26549
 Alpha  occ. eigenvalues --   -0.26084  -0.25445  -0.25234  -0.23746  -0.20088
 Alpha  occ. eigenvalues --   -0.16460  -0.15124  -0.13932  -0.11064   0.03742
 Alpha virt. eigenvalues --    0.05325   0.06078   0.06386   0.07402   0.07657
 Alpha virt. eigenvalues --    0.08284   0.08365   0.09193   0.09623   0.09942
 Alpha virt. eigenvalues --    0.10341   0.10673   0.11468   0.11713   0.12184

  Beta  occ. eigenvalues --  -19.06025 -18.99139 -14.24833 -14.21599 -10.17753
  Beta  occ. eigenvalues --  -10.14164 -10.14096 -10.12467 -10.12167 -10.10781
  Beta  occ. eigenvalues --  -10.08973 -10.08177 -10.07299 -10.07292 -10.06986
  Beta  occ. eigenvalues --  -10.06903 -10.06669  -0.97653  -0.94334  -0.84318
  Beta  occ. eigenvalues --   -0.82131  -0.74842  -0.69914  -0.68478  -0.65525
  Beta  occ. eigenvalues --   -0.63070  -0.61261  -0.60097  -0.56508  -0.55158
  Beta  occ. eigenvalues --   -0.50989  -0.50269  -0.45386  -0.42827  -0.42435
  Beta  occ. eigenvalues --   -0.40783  -0.39697  -0.38258  -0.37879  -0.36912
  Beta  occ. eigenvalues --   -0.36856  -0.35835  -0.35030  -0.33933  -0.33214
  Beta  occ. eigenvalues --   -0.31785  -0.31306  -0.31188  -0.30708  -0.29627
  Beta  occ. eigenvalues --   -0.29429  -0.28269  -0.28002  -0.27721  -0.26529
  Beta  occ. eigenvalues --   -0.26071  -0.25420  -0.25204  -0.23727  -0.20063
  Beta  occ. eigenvalues --   -0.16453  -0.15115  -0.13917  -0.11025
  Beta virt. eigenvalues --    0.05844   0.06033   0.06339   0.07321   0.07792
  Beta virt. eigenvalues --    0.08206   0.08347   0.08738   0.09426   0.09981
  Beta virt. eigenvalues --    0.10110   0.10548   0.11027   0.11533   0.12015

 Mulliken charges and spin densities:
               1          2
     1  C    0.048136  -0.444161
     2  C   -0.103326  -0.137700
     3  O   -0.127881   0.018687
     4  C   -0.213807  -0.108753
     5  C   -0.640910   0.508605
     6  C    1.112251  -0.109178
     7  C   -0.691359  -0.044570
     8  C   -0.015224  -0.258402
     9  C    1.262115  -0.569641
    10  N   -0.223234  -0.083683
    11  C   -0.368778  -0.850696
    12  O   -0.249148  -0.001711
    13  N    0.195740   0.092684
    14  C    0.640127  -1.055956
    15  C   -0.613849   0.414415
    16  C   -0.226552  -0.185171
    17  C    0.189037  -0.587129
    18  H    0.119306   0.024500
    19  H   -0.158153   0.283539
    20  H    0.038900   0.105280
    21  H    0.013879   0.165396
    22  H   -0.153491   0.294372
    23  H    0.179247   0.034978
    24  H   -0.037609   0.232971
    25  H   -0.248055   0.445191
    26  H   -0.349112   0.608924
    27  H   -0.270320   0.527775
    28  H   -0.393959   0.591325
    29  H   -0.159702   0.303175
    30  H    0.151571   0.010573
    31  H   -0.192998   0.368530
    32  H    0.173267   0.008100
    33  H    0.009828   0.135354
    34  H    0.048887   0.079365
    35  H    0.045243   0.066986
    36  H    0.025244   0.111770
    37  H    0.184688   0.004255
 Sum of Mulliken charges =  -1.00000   1.00000

 Dipole moment (field-independent basis, Debye):
    X=             -2.2787    Y=             -6.1663    Z=             -0.3733  Tot=              6.5845
 Quadrupole moment (field-independent basis, Debye-Ang):
   XX=           -184.4039   YY=           -164.7098   ZZ=           -132.9674
   XY=             -9.9581   XZ=              0.5476   YZ=             -5.2853

 Summary of Natural Population Analysis:

                                       Natural Population
                Natural  -----------------------------------------------
    Atom  No    Charge         Core      Valence    Rydberg      Total
 -----------------------------------------------------------------------
      C    1   -0.30171      0.99966     2.29726    0.00478     3.30171
      C    2   -0.01261      0.99958     2.00108    0.01195     3.01261
      O    3   -0.27707      0.99986     3.26820    0.00902     4.27707
      C    4    0.16999      0.99939     1.81675    0.01388     2.83001
      C    5   -0.12556      0.99948     2.11733    0.00876     3.12556
      C    6   -0.04908      0.99948     2.03862    0.01098     3.04908
      C    7   -0.13412      0.99948     2.12479    0.00985     3.13412
      C    8    0.09711      0.99950     1.89147    0.01192     2.90289
      C    9   -0.16373      0.99947     2.15528    0.00898     3.16373
      N   10   -0.39280      0.99971     2.88290    0.01018     3.89280
      C   11    0.34315      0.99958     1.63341    0.02386     2.65685
      O   12   -0.32494      0.99988     3.32039    0.00467     4.32494
      N   13   -0.25807      0.99964     2.74657    0.01185     3.75807
      C   14   -0.17517      0.99963     2.16771    0.00784     3.17517
      C   15   -0.00265      0.99960     1.99058    0.01247     3.00265
      C   16   -0.29218      0.99964     2.28617    0.00637     3.29218
      C   17   -0.29454      0.99964     2.28874    0.00617     3.29454
      H   18    0.09980      0.00000     0.39938    0.00082     0.40020
      H   19    0.10151      0.00000     0.39748    0.00101     0.39849
      H   20    0.10505      0.00000     0.39398    0.00097     0.39495
      H   21    0.08945      0.00000     0.40947    0.00107     0.41055
      H   22    0.08610      0.00000     0.41228    0.00163     0.41390
      H   23    0.11137      0.00000     0.38733    0.00131     0.38863
      H   24    0.10474      0.00000     0.39341    0.00185     0.39526
      H   25    0.10514      0.00000     0.39288    0.00198     0.39486
      H   26    0.18954      0.00000     0.30377    0.00669     0.31046
      H   27    0.18935      0.00000     0.30574    0.00491     0.31065
      H   28    0.09666      0.00000     0.40142    0.00192     0.40334
      H   29    0.09167      0.00000     0.40720    0.00113     0.40833
      H   30    0.11036      0.00000     0.38849    0.00115     0.38964
      H   31    0.09533      0.00000     0.40328    0.00139     0.40467
      H   32    0.11293      0.00000     0.38620    0.00087     0.38707
      H   33    0.09623      0.00000     0.40315    0.00062     0.40377
      H   34    0.10182      0.00000     0.39729    0.00089     0.39818
      H   35    0.09858      0.00000     0.40074    0.00069     0.40142
      H   36    0.09660      0.00000     0.40274    0.00066     0.40340
      H   37    0.11176      0.00000     0.38737    0.00087     0.38824
 =======================================================================
   * Total *   -0.00000     16.99322    46.80083    0.20596    64.00000

 Normal termination of Gaussian 16 at Fri Dec 11 14:15:48 2020.
