 Gaussian 16, Revision A.03,

 -----------------------------------------------------------
 # opt freq B3LYP/6-31G(d) empiricaldispersion=gd3bj scf=xqc
 -----------------------------------------------------------

 ------------------------------
 CID_84140167_JID_7355_neutraal
 ------------------------------
 Symbolic Z-matrix:
 Charge =  0 Multiplicity = 1

 SCF Done:  E(RB3LYP) =  -745.117470174     A.U. after   14 cycles
 SCF Done:  E(RB3LYP) =  -745.124693283     A.U. after   12 cycles
 SCF Done:  E(RB3LYP) =  -745.125181034     A.U. after   11 cycles
 SCF Done:  E(RB3LYP) =  -745.125314454     A.U. after   11 cycles
 SCF Done:  E(RB3LYP) =  -745.125392142     A.U. after   11 cycles
 SCF Done:  E(RB3LYP) =  -745.125435126     A.U. after   10 cycles
 SCF Done:  E(RB3LYP) =  -745.125467509     A.U. after   10 cycles
 SCF Done:  E(RB3LYP) =  -745.125479669     A.U. after   10 cycles
 SCF Done:  E(RB3LYP) =  -745.125484761     A.U. after    9 cycles
 SCF Done:  E(RB3LYP) =  -745.125488003     A.U. after    9 cycles
 SCF Done:  E(RB3LYP) =  -745.125509030     A.U. after    9 cycles
 SCF Done:  E(RB3LYP) =  -745.125510181     A.U. after    9 cycles
 SCF Done:  E(RB3LYP) =  -745.125510657     A.U. after    8 cycles
 SCF Done:  E(RB3LYP) =  -745.125510754     A.U. after    8 cycles
 SCF Done:  E(RB3LYP) =  -745.125510773     A.U. after    6 cycles
 Optimization completed.
    -- Stationary point found.
 Normal termination of Gaussian 16 at Fri Dec 11 12:15:06 2020.

 --------------------------------------------------------------------
 #N Geom=AllCheck Guess=TCheck SCRF=Check GenChk RB3LYP/6-31G(d) Freq
 --------------------------------------------------------------------

 Structure from the checkpoint file:  "JID_7355.chk"
 ------------------------------
 CID_84140167_JID_7355_neutraal
 ------------------------------
 Charge =  0 Multiplicity = 1

 SCF Done:  E(RB3LYP) =  -745.125510773     A.U. after    1 cycles

  Exact polarizability: 237.953  -5.617 150.380   0.911   0.999  92.171
 Approx polarizability: 292.340 -14.802 264.541  -0.769   5.061 140.211

                      1                      2                      3
                      A                      A                      A
 Frequencies --     14.5715                54.5329                63.6713
 Red. masses --      3.5680                 3.5297                 3.6201
 Frc consts  --      0.0004                 0.0062                 0.0086
 IR Inten    --      0.0942                 0.1474                 0.4110

                      4                      5                      6
                      A                      A                      A
 Frequencies --     71.1584               113.1874               123.1477
 Red. masses --      3.4291                 3.1579                 1.3536
 Frc consts  --      0.0102                 0.0238                 0.0121
 IR Inten    --      0.2212                 1.7967                 0.7098

                      7                      8                      9
                      A                      A                      A
 Frequencies --    138.0092               175.1687               191.8204
 Red. masses --      2.4251                 2.5843                 1.4056
 Frc consts  --      0.0272                 0.0467                 0.0305
 IR Inten    --      2.3732                 2.5801                 0.0246

                     10                     11                     12
                      A                      A                      A
 Frequencies --    214.7031               237.5474               257.7874
 Red. masses --      2.7709                 2.9167                 3.2876
 Frc consts  --      0.0753                 0.0970                 0.1287
 IR Inten    --      0.9064                 0.5320                 0.1804

                     13                     14                     15
                      A                      A                      A
 Frequencies --    271.6191               301.0194               345.8431
 Red. masses --      1.8490                 4.6167                 4.6124
 Frc consts  --      0.0804                 0.2465                 0.3250
 IR Inten    --      0.2978                 0.7028                 1.1390

                     16                     17                     18
                      A                      A                      A
 Frequencies --    366.0558               414.7178               427.3451
 Red. masses --      3.0506                 5.8875                 5.0355
 Frc consts  --      0.2408                 0.5966                 0.5418
 IR Inten    --      2.8713                 6.5116                 5.2821

                     19                     20                     21
                      A                      A                      A
 Frequencies --    500.2837               511.1859               559.6275
 Red. masses --      2.7078                 1.5484                 2.0863
 Frc consts  --      0.3993                 0.2384                 0.3850
 IR Inten    --     17.2306                33.3311                61.4727

                     22                     23                     24
                      A                      A                      A
 Frequencies --    585.0842               630.4830               670.6267
 Red. masses --      2.2160                 3.7537                 5.4320
 Frc consts  --      0.4469                 0.8791                 1.4394
 IR Inten    --     12.6816                 0.0445                10.1836

                     25                     26                     27
                      A                      A                      A
 Frequencies --    673.7789               691.0151               698.4093
 Red. masses --      4.1241                 4.4722                 3.9891
 Frc consts  --      1.1031                 1.2582                 1.1464
 IR Inten    --      4.6149                 4.1076                 9.2411

                     28                     29                     30
                      A                      A                      A
 Frequencies --    715.4475               745.9154               790.1809
 Red. masses --      2.3720                 5.3410                 1.2498
 Frc consts  --      0.7154                 1.7509                 0.4598
 IR Inten    --     19.8993                 5.4101                34.0224

                     31                     32                     33
                      A                      A                      A
 Frequencies --    835.8205               838.4301               886.0859
 Red. masses --      2.8731                 1.3555                 1.9927
 Frc consts  --      1.1826                 0.5614                 0.9218
 IR Inten    --     43.6868                 0.1319                 3.9847

                     34                     35                     36
                      A                      A                      A
 Frequencies --    905.0857               934.7489               942.4070
 Red. masses --      1.6910                 2.1782                 3.6798
 Frc consts  --      0.8162                 1.1213                 1.9255
 IR Inten    --      0.5627                 1.1648                 4.6356

                     37                     38                     39
                      A                      A                      A
 Frequencies --    945.0014               971.0958               987.2763
 Red. masses --      3.5660                 2.2191                 2.6271
 Frc consts  --      1.8763                 1.2330                 1.5087
 IR Inten    --     11.0946                17.0330                 6.7653

                     40                     41                     42
                      A                      A                      A
 Frequencies --    992.0269              1014.8258              1057.8716
 Red. masses --      2.1839                 1.9200                 1.3389
 Frc consts  --      1.2663                 1.1650                 0.8828
 IR Inten    --      4.9954                 1.4486                27.4499

                     43                     44                     45
                      A                      A                      A
 Frequencies --   1059.9397              1078.1360              1080.8017
 Red. masses --      1.8262                 1.4394                 1.4596
 Frc consts  --      1.2088                 0.9857                 1.0045
 IR Inten    --     13.0133                 1.2201                 2.7819

                     46                     47                     48
                      A                      A                      A
 Frequencies --   1094.4477              1128.4877              1145.4521
 Red. masses --      2.6745                 3.4090                 2.5952
 Frc consts  --      1.8875                 2.5578                 2.0062
 IR Inten    --     39.5130                20.2874                22.7455

                     49                     50                     51
                      A                      A                      A
 Frequencies --   1180.5565              1186.2302              1198.6744
 Red. masses --      2.5819                 1.3927                 2.0386
 Frc consts  --      2.1201                 1.1546                 1.7258
 IR Inten    --     10.1949                 5.0978                 5.6467

                     52                     53                     54
                      A                      A                      A
 Frequencies --   1220.8450              1246.6400              1260.5662
 Red. masses --      1.8918                 1.8944                 1.6875
 Frc consts  --      1.6613                 1.7347                 1.5799
 IR Inten    --     16.9607                16.5208                 1.2815

                     55                     56                     57
                      A                      A                      A
 Frequencies --   1266.5774              1275.4216              1292.6116
 Red. masses --      5.4687                 1.5936                 5.3608
 Frc consts  --      5.1689                 1.5274                 5.2774
 IR Inten    --      1.5815                 4.3414                 7.6242

                     58                     59                     60
                      A                      A                      A
 Frequencies --   1323.0943              1347.9289              1360.3506
 Red. masses --      1.2952                 1.1896                 1.3481
 Frc consts  --      1.3359                 1.2735                 1.4698
 IR Inten    --      1.7413                12.8592                 0.2179

                     61                     62                     63
                      A                      A                      A
 Frequencies --   1369.4740              1384.0306              1413.7346
 Red. masses --      1.4183                 2.5216                 1.7395
 Frc consts  --      1.5672                 2.8459                 2.0484
 IR Inten    --      2.3192                20.1101                18.4626

                     64                     65                     66
                      A                      A                      A
 Frequencies --   1434.0018              1444.4281              1447.6418
 Red. masses --      2.5736                 1.2900                 1.3551
 Frc consts  --      3.1181                 1.5858                 1.6732
 IR Inten    --      0.2311                 4.8945                 0.7790

                     67                     68                     69
                      A                      A                      A
 Frequencies --   1471.2189              1474.6125              1502.0508
 Red. masses --      5.5285                 1.4480                 1.0429
 Frc consts  --      7.0504                 1.8551                 1.3864
 IR Inten    --     23.3579                38.2637                 6.0202

                     70                     71                     72
                      A                      A                      A
 Frequencies --   1514.5246              1520.0792              1521.4810
 Red. masses --      1.0694                 1.0764                 1.1447
 Frc consts  --      1.4453                 1.4654                 1.5613
 IR Inten    --      2.3714                 4.6326                 4.0165

                     73                     74                     75
                      A                      A                      A
 Frequencies --   1525.6307              1531.5371              1535.9459
 Red. masses --      1.5053                 1.1054                 1.7589
 Frc consts  --      2.0643                 1.5277                 2.4448
 IR Inten    --      1.3767                10.2038                 2.7632

                     76                     77                     78
                      A                      A                      A
 Frequencies --   1560.8912              1616.1944              1633.2097
 Red. masses --      1.0995                 6.1623                 6.0332
 Frc consts  --      1.5783                 9.4837                 9.4816
 IR Inten    --      2.1256                 5.5269                38.4423

                     79                     80                     81
                      A                      A                      A
 Frequencies --   1667.7850              2964.5888              2971.2743
 Red. masses --      6.6213                 1.0749                 1.0837
 Frc consts  --     10.8511                 5.5661                 5.6369
 IR Inten    --      3.9003               106.0998                24.2537

                     82                     83                     84
                      A                      A                      A
 Frequencies --   3037.5833              3044.8210              3061.3020
 Red. masses --      1.0422                 1.0379                 1.0711
 Frc consts  --      5.6656                 5.6691                 5.9143
 IR Inten    --     23.9709                43.5448                15.7757

                     85                     86                     87
                      A                      A                      A
 Frequencies --   3073.5783              3075.0508              3084.1562
 Red. masses --      1.0644                 1.0799                 1.0992
 Frc consts  --      5.9243                 6.0166                 6.1605
 IR Inten    --      7.4625                98.7862                15.5931

                     88                     89                     90
                      A                      A                      A
 Frequencies --   3094.4830              3116.6711              3126.0063
 Red. masses --      1.1014                 1.1001                 1.1061
 Frc consts  --      6.2143                 6.2958                 6.3685
 IR Inten    --     16.9977                28.5836                41.7133

                     91                     92                     93
                      A                      A                      A
 Frequencies --   3140.9457              3143.7673              3264.6977
 Red. masses --      1.0996                 1.0958                 1.0952
 Frc consts  --      6.3918                 6.3810                 6.8773
 IR Inten    --     12.3536                20.1724                11.5783

                     94                     95                     96
                      A                      A                      A
 Frequencies --   3293.6516              3561.3234              3656.0762
 Red. masses --      1.0976                 1.0757                 1.0808
 Frc consts  --      7.0154                 8.0385                 8.5118
 IR Inten    --      2.9390                 1.0455                77.4995

 - Thermochemistry -
 -------------------
 Temperature   298.150 Kelvin.  Pressure   1.00000 Atm.
 Atom     1 has atomic number  6 and mass  12.00000

 Molecular mass:   231.13716 amu.
 Principal axes and moments of inertia in atomic units:
                           1         2         3
     Eigenvalues --  1210.083958697.180119425.10100
           X            0.99998   0.00469   0.00312
           Y           -0.00468   0.99998  -0.00383
           Z           -0.00314   0.00382   0.99999
 This molecule is an asymmetric top.
 Rotational symmetry number  1.
 Warning -- assumption of classical behavior for rotation
           may cause significant error
 Rotational temperatures (Kelvin)      0.07158     0.00996     0.00919
 Rotational constants (GHZ):           1.49142     0.20751     0.19148
 Zero-point vibrational energy     758969.7 (Joules/Mol)
                                  181.39812 (Kcal/Mol)
 Warning -- explicit consideration of  22 degrees of freedom as
           vibrations may cause significant error
 Vibrational temperatures:     20.97    78.46    91.61   102.38   162.85
          (Kelvin)            177.18   198.56   252.03   275.99   308.91
                              341.78   370.90   390.80   433.10   497.59
                              526.67   596.69   614.85   719.80   735.48
                              805.18   841.81   907.12   964.88   969.42
                              994.22  1004.86  1029.37  1073.21  1136.89
                             1202.56  1206.31  1274.88  1302.22  1344.90
                             1355.91  1359.65  1397.19  1420.47  1427.31
                             1460.11  1522.04  1525.02  1551.20  1555.03
                             1574.67  1623.64  1648.05  1698.56  1706.72
                             1724.63  1756.52  1793.64  1813.67  1822.32
                             1835.05  1859.78  1903.64  1939.37  1957.24
                             1970.37  1991.31  2034.05  2063.21  2078.21
                             2082.83  2116.76  2121.64  2161.12  2179.06
                             2187.05  2189.07  2195.04  2203.54  2209.88
                             2245.77  2325.34  2349.82  2399.57  4265.38
                             4275.00  4370.40  4380.82  4404.53  4422.19
                             4424.31  4437.41  4452.27  4484.19  4497.63
                             4519.12  4523.18  4697.17  4738.83  5123.95
                             5260.28

 Zero-point correction=                           0.289076 (Hartree/Particle)
 Thermal correction to Energy=                    0.304839
 Thermal correction to Enthalpy=                  0.305783
 Thermal correction to Gibbs Free Energy=         0.244487
 Sum of electronic and zero-point Energies=           -744.836434
 Sum of electronic and thermal Energies=              -744.820672
 Sum of electronic and thermal Enthalpies=            -744.819728
 Sum of electronic and thermal Free Energies=         -744.881024

                     E (Thermal)             CV                S
                      KCal/Mol        Cal/Mol-Kelvin    Cal/Mol-Kelvin
 Total                  191.289             59.967            129.009
 Electronic               0.000              0.000              0.000
 Translational            0.889              2.981             42.215
 Rotational               0.889              2.981             32.961
 Vibrational            189.512             54.005             53.833
 Vibration     1          0.593              1.986              7.263
 Vibration     2          0.596              1.976              4.646
 Vibration     3          0.597              1.972              4.340
 Vibration     4          0.598              1.968              4.121
 Vibration     5          0.607              1.939              3.214
 Vibration     6          0.610              1.930              3.050
 Vibration     7          0.614              1.915              2.831
 Vibration     8          0.627              1.873              2.379
 Vibration     9          0.634              1.851              2.210
 Vibration    10          0.645              1.819              2.003
 Vibration    11          0.656              1.783              1.821
 Vibration    12          0.667              1.750              1.677
 Vibration    13          0.675              1.726              1.586
 Vibration    14          0.693              1.672              1.411
 Vibration    15          0.724              1.584              1.185
 Vibration    16          0.739              1.542              1.096
 Vibration    17          0.778              1.438              0.910
 Vibration    18          0.789              1.411              0.867
 Vibration    19          0.856              1.249              0.657
 Vibration    20          0.866              1.225              0.631
 Vibration    21          0.915              1.119              0.525
 Vibration    22          0.942              1.064              0.476

 Optimization completed.
    -- Stationary point found.
 Normal termination of Gaussian 16 at Fri Dec 11 12:27:36 2020.

 ----------------------------------------------------------------------
 # B3LYP/6-311++G(d,p) empiricaldispersion=gd3bj scf=xqc pop=npa geom=c
 heck
 ----------------------------------------------------------------------

 --------------------------------------
 CID_84140167_JID_7355_Energie_neutraal
 --------------------------------------
 Structure from the checkpoint file:  "JID_7355.chk"
 Charge =  0 Multiplicity = 1

 SCF Done:  E(RB3LYP) =  -745.327059720     A.U. after   15 cycles
 Normal termination of Gaussian 16 at Fri Dec 11 12:34:06 2020.

 ----------------------------------------------------------------------
 # B3LYP/6-311++G(d,p) empiricaldispersion=gd3bj scf=xqc pop=npa geom=c
 heck
 ----------------------------------------------------------------------

 ------------------------------------
 CID_84140167_JID_7355_Energie_kation
 ------------------------------------
 Structure from the checkpoint file:  "JID_7355.chk"
 Charge =  1 Multiplicity = 2

 SCF Done:  E(UB3LYP) =  -745.063869698     A.U. after   24 cycles
 Normal termination of Gaussian 16 at Fri Dec 11 12:52:53 2020.
 Gaussian 16:  ES64L-G16RevA.03 25-Dec-2016

 ----------------------------------------------------------------------
 # B3LYP/6-311++G(d,p) empiricaldispersion=gd3bj scf=xqc pop=npa geom=c
 heck
 ----------------------------------------------------------------------

 -----------------------------------
 CID_84140167_JID_7355_Energie_anion
 -----------------------------------
 Structure from the checkpoint file:  "JID_7355.chk"
 Charge = -1 Multiplicity = 2

                         Standard orientation:
 ---------------------------------------------------------------------
 Center     Atomic      Atomic             Coordinates (Angstroms)
 Number     Number       Type             X           Y           Z
 ---------------------------------------------------------------------
      1          6           0       -5.660850   -0.559219   -0.138064
      2          6           0       -4.360483    0.150190   -0.013787
      3          6           0       -4.010107    1.458637    0.152786
      4          6           0       -2.580244    1.498585    0.201046
      5          6           0       -2.147208    0.204805    0.059282
      6          8           0       -3.233964   -0.622517   -0.072826
      7          6           0       -0.835894   -0.409139    0.028531
      8          7           0       -0.697194   -1.744132    0.021152
      9          7           0        0.634672   -1.931004   -0.011415
     10          6           0        1.361420   -0.778198   -0.021333
     11          6           0        0.430008    0.252778    0.000359
     12          6           0        0.689133    1.727977   -0.016178
     13          6           0        2.859752   -0.802736   -0.052908
     14          6           0        3.535487   -0.173631    1.191426
     15          6           0        4.840857    0.399613    0.626708
     16          6           0        4.393135    0.936182   -0.737418
     17          7           0        3.445644   -0.082449   -1.209589
     18          1           0       -5.738565   -1.089500   -1.095214
     19          1           0       -5.789544   -1.302044    0.658740
     20          1           0       -6.482997    0.158819   -0.075072
     21          1           0       -4.689826    2.295499    0.233557
     22          1           0       -1.961903    2.372318    0.336973
     23          1           0        0.993727   -2.873678   -0.038047
     24          1           0        0.114825    2.222121   -0.809306
     25          1           0        0.402462    2.203821    0.930870
     26          1           0        1.745809    1.946996   -0.186317
     27          1           0        3.162572   -1.860897   -0.114780
     28          1           0        2.907754    0.632590    1.585956
     29          1           0        3.679884   -0.903669    1.993231
     30          1           0        5.284632    1.172613    1.260992
     31          1           0        5.581532   -0.397105    0.490427
     32          1           0        3.934932    1.932704   -0.611211
     33          1           0        5.226151    1.045358   -1.441641
     34          1           0        2.728365    0.292210   -1.820281
 ---------------------------------------------------------------------

 SCF Done:  E(UB3LYP) =  -745.314385440     A.U. after   33 cycles
 SCF Done:  E(UB3LYP) =  -745.314385440     a.u. after    1 cycles

 The electronic state is 2-A.
 Alpha  occ. eigenvalues --  -19.09211 -14.29428 -14.23690 -14.20663 -10.13925
 Alpha  occ. eigenvalues --  -10.13835 -10.12258 -10.11919 -10.11049 -10.10091
 Alpha  occ. eigenvalues --  -10.09310 -10.08510 -10.08270 -10.08093 -10.07922
 Alpha  occ. eigenvalues --  -10.07922 -10.07676  -1.01900  -0.95716  -0.83078
 Alpha  occ. eigenvalues --   -0.74644  -0.72005  -0.71050  -0.68949  -0.67606
 Alpha  occ. eigenvalues --   -0.64413  -0.61474  -0.60938  -0.52978  -0.52156
 Alpha  occ. eigenvalues --   -0.50585  -0.49589  -0.47293  -0.46158  -0.44893
 Alpha  occ. eigenvalues --   -0.41060  -0.40525  -0.38637  -0.37807  -0.36143
 Alpha  occ. eigenvalues --   -0.35724  -0.33988  -0.32741  -0.32541  -0.32052
 Alpha  occ. eigenvalues --   -0.31933  -0.31661  -0.31444  -0.30406  -0.29786
 Alpha  occ. eigenvalues --   -0.29262  -0.28142  -0.27651  -0.26770  -0.25532
 Alpha  occ. eigenvalues --   -0.24073  -0.20335  -0.19979  -0.18849  -0.15657
 Alpha  occ. eigenvalues --   -0.12909  -0.11504   0.03941
 Alpha virt. eigenvalues --    0.05098   0.06024   0.06642   0.07048   0.07554
 Alpha virt. eigenvalues --    0.07770   0.08921   0.09324   0.09689   0.09900
 Alpha virt. eigenvalues --    0.10012   0.10573   0.11253   0.11447   0.12187

  Beta  occ. eigenvalues --  -19.09207 -14.29412 -14.23687 -14.20659 -10.13925
  Beta  occ. eigenvalues --  -10.13835 -10.12243 -10.11918 -10.11049 -10.10068
  Beta  occ. eigenvalues --  -10.09285 -10.08506 -10.08245 -10.08087 -10.07909
  Beta  occ. eigenvalues --  -10.07900 -10.07649  -1.01892  -0.95702  -0.83057
  Beta  occ. eigenvalues --   -0.74629  -0.71991  -0.71036  -0.68929  -0.67568
  Beta  occ. eigenvalues --   -0.64372  -0.61442  -0.60899  -0.52951  -0.52120
  Beta  occ. eigenvalues --   -0.50555  -0.49510  -0.47264  -0.46135  -0.44862
  Beta  occ. eigenvalues --   -0.41026  -0.40477  -0.38611  -0.37794  -0.36122
  Beta  occ. eigenvalues --   -0.35706  -0.33955  -0.32712  -0.32506  -0.32030
  Beta  occ. eigenvalues --   -0.31903  -0.31640  -0.31419  -0.30383  -0.29751
  Beta  occ. eigenvalues --   -0.29238  -0.28121  -0.27620  -0.26735  -0.25484
  Beta  occ. eigenvalues --   -0.24033  -0.20324  -0.19969  -0.18838  -0.15646
  Beta  occ. eigenvalues --   -0.12896  -0.11495
  Beta virt. eigenvalues --    0.05817   0.06210   0.06624   0.06839   0.07560
  Beta virt. eigenvalues --    0.08039   0.08236   0.09462   0.09714   0.09798
  Beta virt. eigenvalues --    0.10229   0.10270   0.10948   0.11399   0.11739

 Mulliken charges and spin densities:
               1          2
     1  C    1.194020  -1.685940
     2  C   -0.532281   0.795182
     3  C   -0.247279  -0.118326
     4  C   -0.530804   0.169489
     5  C    0.358974  -0.343416
     6  O    0.005544   0.027591
     7  C    0.346242  -0.360853
     8  N   -0.167195   0.009037
     9  N   -0.088887  -0.086609
    10  C    0.345950   0.362616
    11  C   -0.401577   0.703453
    12  C    0.426581  -1.589193
    13  C    0.044635  -0.181159
    14  C   -0.333903  -0.084520
    15  C    0.480969  -0.973350
    16  C    0.352242  -0.639107
    17  N   -0.223550   0.052942
    18  H    0.013587   0.139630
    19  H    0.041738   0.111761
    20  H   -0.321908   0.490372
    21  H   -0.580125   0.753250
    22  H    0.009793   0.111111
    23  H    0.125813   0.185752
    24  H    0.014028   0.147396
    25  H   -0.225878   0.412007
    26  H    0.197843  -0.121684
    27  H   -0.376176   0.602856
    28  H    0.108178   0.059380
    29  H   -0.389401   0.561438
    30  H   -0.521578   0.682433
    31  H    0.087823   0.068060
    32  H   -0.064177   0.188778
    33  H   -0.242736   0.406147
    34  H    0.093496   0.143474
 Sum of Mulliken charges =  -1.00000   1.00000

 Dipole moment (field-independent basis, Debye):
    X=             -1.7160    Y=             -0.7523    Z=             -1.2332  Tot=              2.2430
 Quadrupole moment (field-independent basis, Debye-Ang):
   XX=           -225.0535   YY=           -142.9388   ZZ=           -133.5320
   XY=              4.0263   XZ=             -4.1542   YZ=             -0.9249

 Summary of Natural Population Analysis:

                                       Natural Population
                Natural  -----------------------------------------------
    Atom  No    Charge         Core      Valence    Rydberg      Total
 -----------------------------------------------------------------------
      C    1   -0.30688      0.99963     2.30147    0.00578     3.30688
      C    2    0.15328      0.99949     1.83320    0.01404     2.84672
      C    3   -0.15228      0.99950     2.14381    0.00897     3.15228
      C    4   -0.14127      0.99953     2.13324    0.00851     3.14127
      C    5    0.11880      0.99948     1.86110    0.02062     2.88120
      O    6   -0.23133      0.99985     3.22333    0.00816     4.23133
      C    7    0.10603      0.99951     1.88009    0.01437     2.89397
      N    8   -0.16079      0.99974     2.64293    0.01812     3.66079
      N    9   -0.16202      0.99965     2.64810    0.01427     3.66202
      C   10    0.07610      0.99947     1.91071    0.01372     2.92390
      C   11   -0.07111      0.99949     2.05925    0.01237     3.07111
      C   12   -0.29845      0.99964     2.29239    0.00642     3.29845
      C   13   -0.02370      0.99957     2.00924    0.01489     3.02370
      C   14   -0.18766      0.99962     2.17988    0.00816     3.18766
      C   15   -0.19459      0.99963     2.18737    0.00758     3.19459
      C   16   -0.08635      0.99963     2.07613    0.01058     3.08635
      N   17   -0.34361      0.99975     2.83294    0.01091     3.84361
      H   18    0.10669      0.00000     0.39213    0.00118     0.39331
      H   19    0.10671      0.00000     0.39215    0.00115     0.39329
      H   20    0.10931      0.00000     0.38961    0.00108     0.39069
      H   21    0.10868      0.00000     0.39024    0.00108     0.39132
      H   22    0.11009      0.00000     0.38886    0.00105     0.38991
      H   23    0.19898      0.00000     0.29838    0.00264     0.30102
      H   24    0.10505      0.00000     0.39365    0.00130     0.39495
      H   25    0.10490      0.00000     0.39379    0.00131     0.39510
      H   26    0.10610      0.00000     0.39231    0.00159     0.39390
      H   27    0.09335      0.00000     0.40414    0.00250     0.40665
      H   28    0.09902      0.00000     0.39937    0.00161     0.40098
      H   29    0.10527      0.00000     0.39319    0.00154     0.39473
      H   30    0.10444      0.00000     0.39408    0.00148     0.39556
      H   31    0.09778      0.00000     0.40076    0.00145     0.40222
      H   32    0.08017      0.00000     0.41797    0.00186     0.41983
      H   33    0.09350      0.00000     0.40517    0.00133     0.40650
      H   34    0.17991      0.00000     0.31744    0.00265     0.32009
 =======================================================================
   * Total *    0.00412     16.99317    44.77842    0.22429    61.99588

 Normal termination of Gaussian 16 at Fri Dec 11 13:13:27 2020.
