 Gaussian 16, Revision A.03,

 -----------------------------------------------------------
 # opt freq B3LYP/6-31G(d) empiricaldispersion=gd3bj scf=xqc
 -----------------------------------------------------------

 -------------------------------
 CID_71874281_JID_10214_neutraal
 -------------------------------
 Symbolic Z-matrix:
 Charge =  0 Multiplicity = 1

 SCF Done:  E(RB3LYP) =  -862.055067074     A.U. after   16 cycles
 SCF Done:  E(RB3LYP) =  -862.028804719     A.U. after   16 cycles
 SCF Done:  E(RB3LYP) =  -862.058311202     A.U. after   13 cycles
 SCF Done:  E(RB3LYP) =  -862.059524706     A.U. after   12 cycles
 SCF Done:  E(RB3LYP) =  -862.059925311     A.U. after   15 cycles
 SCF Done:  E(RB3LYP) =  -862.060405959     A.U. after   13 cycles
 SCF Done:  E(RB3LYP) =  -862.061029650     A.U. after   12 cycles
 SCF Done:  E(RB3LYP) =  -862.061809175     A.U. after   15 cycles
 SCF Done:  E(RB3LYP) =  -862.062074691     A.U. after   15 cycles
 SCF Done:  E(RB3LYP) =  -862.062524435     A.U. after   13 cycles
 SCF Done:  E(RB3LYP) =  -862.064405781     A.U. after    7 cycles
 SCF Done:  E(RB3LYP) =  -862.064405976     A.U. after    7 cycles
 SCF Done:  E(RB3LYP) =  -862.064406158     A.U. after    7 cycles
 SCF Done:  E(RB3LYP) =  -862.064406275     A.U. after    7 cycles
 SCF Done:  E(RB3LYP) =  -862.064406343     A.U. after    7 cycles
 Optimization completed.
    -- Stationary point found.
 Normal termination of Gaussian 16 at Sun Dec 13 13:19:44 2020.

 --------------------------------------------------------------------
 #N Geom=AllCheck Guess=TCheck SCRF=Check GenChk RB3LYP/6-31G(d) Freq
 --------------------------------------------------------------------

 Structure from the checkpoint file:  "JID_10214.chk"
 -------------------------------
 CID_71874281_JID_10214_neutraal
 -------------------------------
 Charge =  0 Multiplicity = 1

 SCF Done:  E(RB3LYP) =  -862.064406343     A.U. after    1 cycles

  Exact polarizability: 221.709 -23.544 199.985  41.032   5.132 122.191
 Approx polarizability: 342.340 -60.076 338.797  84.968   6.451 209.257

                      1                      2                      3
                      A                      A                      A
 Frequencies --     18.1601                25.8950                43.9401
 Red. masses --      4.6049                 5.2225                 6.3902
 Frc consts  --      0.0009                 0.0021                 0.0073
 IR Inten    --      0.0502                 0.0319                 1.6579

                      4                      5                      6
                      A                      A                      A
 Frequencies --     48.2558                63.4552                74.8784
 Red. masses --      1.0250                 4.8026                 5.3078
 Frc consts  --      0.0014                 0.0114                 0.0175
 IR Inten    --      0.3091                 0.0355                 0.7408

                      7                      8                      9
                      A                      A                      A
 Frequencies --    105.9757               124.0076               154.0266
 Red. masses --      5.8751                 4.5194                 5.2039
 Frc consts  --      0.0389                 0.0409                 0.0727
 IR Inten    --      2.7240                 1.7433                 0.3713

                     10                     11                     12
                      A                      A                      A
 Frequencies --    188.8908               206.1398               236.1789
 Red. masses --      5.0554                 3.3605                 4.7767
 Frc consts  --      0.1063                 0.0841                 0.1570
 IR Inten    --      1.0040                 8.2306                 3.2624

                     13                     14                     15
                      A                      A                      A
 Frequencies --    249.4994               277.6677               294.6251
 Red. masses --      4.3619                 3.1540                 2.7873
 Frc consts  --      0.1600                 0.1433                 0.1426
 IR Inten    --      3.5053                 1.0562                 4.1771

                     16                     17                     18
                      A                      A                      A
 Frequencies --    341.7816               349.6881               376.3463
 Red. masses --      4.4842                 1.2160                 6.1041
 Frc consts  --      0.3086                 0.0876                 0.5094
 IR Inten    --     12.1462               158.9764                 5.0478

                     19                     20                     21
                      A                      A                      A
 Frequencies --    399.8445               416.1128               419.9532
 Red. masses --      5.5432                 3.2135                 4.1178
 Frc consts  --      0.5221                 0.3278                 0.4279
 IR Inten    --      1.5062                 0.2915                 3.9583

                     22                     23                     24
                      A                      A                      A
 Frequencies --    468.8544               516.5442               517.8644
 Red. masses --      3.8803                 7.3895                 5.1358
 Frc consts  --      0.5026                 1.1617                 0.8115
 IR Inten    --     10.9539                 2.0776                 0.2462

                     25                     26                     27
                      A                      A                      A
 Frequencies --    538.1832               551.5401               564.9357
 Red. masses --      4.5040                 4.5607                 3.9945
 Frc consts  --      0.7686                 0.8174                 0.7511
 IR Inten    --      5.8401                 2.3953                 0.8242

                     28                     29                     30
                      A                      A                      A
 Frequencies --    584.5323               606.4820               630.8200
 Red. masses --      6.2065                 2.6501                 4.9439
 Frc consts  --      1.2494                 0.5743                 1.1591
 IR Inten    --      3.6778                53.0864                31.8950

                     31                     32                     33
                      A                      A                      A
 Frequencies --    638.1041               689.4308               707.2394
 Red. masses --      6.5018                 2.7238                 2.1841
 Frc consts  --      1.5598                 0.7628                 0.6437
 IR Inten    --      0.3418                 6.0504                21.9596

                     34                     35                     36
                      A                      A                      A
 Frequencies --    730.9501               745.0405               773.3167
 Red. masses --      3.2083                 2.5208                 1.6668
 Frc consts  --      1.0099                 0.8244                 0.5873
 IR Inten    --     13.4029                17.3353                39.4188

                     37                     38                     39
                      A                      A                      A
 Frequencies --    792.9022               861.3984               863.2689
 Red. masses --      3.9964                 1.7031                 1.2447
 Frc consts  --      1.4803                 0.7446                 0.5465
 IR Inten    --     74.8103                26.3186                 1.5217

                     40                     41                     42
                      A                      A                      A
 Frequencies --    872.4717               896.5122               902.6484
 Red. masses --      1.3078                 2.5263                 1.7762
 Frc consts  --      0.5865                 1.1963                 0.8527
 IR Inten    --     18.1560                 4.9788                 0.8132

                     43                     44                     45
                      A                      A                      A
 Frequencies --    935.6953               975.2565               979.0768
 Red. masses --      1.3762                 1.3363                 2.6102
 Frc consts  --      0.7099                 0.7489                 1.4742
 IR Inten    --      5.2473                 1.1473                 6.0387

                     46                     47                     48
                      A                      A                      A
 Frequencies --    988.4306               997.4526               999.1542
 Red. masses --      3.8178                 1.2476                 2.5038
 Frc consts  --      2.1976                 0.7313                 1.4727
 IR Inten    --     16.2893                 0.4092                 6.9849

                     49                     50                     51
                      A                      A                      A
 Frequencies --   1020.2707              1020.9592              1048.4105
 Red. masses --      6.0595                 6.1964                 1.6998
 Frc consts  --      3.7163                 3.8054                 1.1008
 IR Inten    --      2.1481                 0.2463                11.9832

                     52                     53                     54
                      A                      A                      A
 Frequencies --   1058.7677              1073.9036              1098.7800
 Red. masses --      2.0494                 1.5104                 2.8759
 Frc consts  --      1.3536                 1.0263                 2.0457
 IR Inten    --      4.9054                11.5460                16.6877

                     55                     56                     57
                      A                      A                      A
 Frequencies --   1110.5791              1161.9006              1191.4463
 Red. masses --      1.5799                 1.6972                 1.5001
 Frc consts  --      1.1481                 1.3500                 1.2546
 IR Inten    --      3.5231                25.1669                38.7120

                     58                     59                     60
                      A                      A                      A
 Frequencies --   1193.9591              1211.6287              1227.5015
 Red. masses --      1.1031                 1.1349                 1.3608
 Frc consts  --      0.9265                 0.9816                 1.2081
 IR Inten    --      0.4574                 0.1997                63.2849

                     61                     62                     63
                      A                      A                      A
 Frequencies --   1268.4034              1299.6393              1319.2256
 Red. masses --      1.5817                 3.9928                 1.9305
 Frc consts  --      1.4993                 3.9735                 1.9796
 IR Inten    --     70.8060                 9.2030                70.8403

                     64                     65                     66
                      A                      A                      A
 Frequencies --   1331.1854              1333.8856              1365.4599
 Red. masses --      1.3149                 2.6625                 1.9017
 Frc consts  --      1.3728                 2.7911                 2.0891
 IR Inten    --     27.4211                 1.3440                 1.6849

                     67                     68                     69
                      A                      A                      A
 Frequencies --   1371.4921              1377.9113              1422.8100
 Red. masses --      2.7842                 3.9601                 1.9809
 Frc consts  --      3.0856                 4.4299                 2.3627
 IR Inten    --     55.0750                25.2780               120.9991

                     70                     71                     72
                      A                      A                      A
 Frequencies --   1443.4074              1463.1042              1485.1674
 Red. masses --      1.2995                 1.3883                 2.5701
 Frc consts  --      1.5951                 1.7510                 3.3400
 IR Inten    --      5.3793                11.0574                19.1075

                     73                     74                     75
                      A                      A                      A
 Frequencies --   1489.7984              1507.0212              1518.0801
 Red. masses --      2.2335                 1.1040                 1.0609
 Frc consts  --      2.9208                 1.4773                 1.4405
 IR Inten    --      4.0730                17.4631                 6.9176

                     76                     77                     78
                      A                      A                      A
 Frequencies --   1521.2865              1543.1440              1546.6527
 Red. masses --      1.4262                 2.2935                 2.1194
 Frc consts  --      1.9447                 3.2178                 2.9871
 IR Inten    --     64.3429                22.7356                 5.7051

                     79                     80                     81
                      A                      A                      A
 Frequencies --   1629.3305              1659.3732              1661.3956
 Red. masses --      5.1909                 5.8565                 5.5793
 Frc consts  --      8.1192                 9.5011                 9.0736
 IR Inten    --      1.2396                36.4972                23.1361

                     82                     83                     84
                      A                      A                      A
 Frequencies --   1670.5994              1782.7916              2347.7935
 Red. masses --      5.9576                 8.8839                11.9030
 Frc consts  --      9.7965                16.6363                38.6569
 IR Inten    --     41.0494               285.0983                 7.6572

                     85                     86                     87
                      A                      A                      A
 Frequencies --   3045.8915              3071.5174              3103.6266
 Red. masses --      1.0394                 1.0590                 1.0968
 Frc consts  --      5.6817                 5.8863                 6.2247
 IR Inten    --     30.2782                33.5157                18.1572

                     88                     89                     90
                      A                      A                      A
 Frequencies --   3104.8470              3128.7814              3187.6180
 Red. masses --      1.1048                 1.1029                 1.0854
 Frc consts  --      6.2748                 6.3614                 6.4981
 IR Inten    --     13.2570                15.3363                 0.1992

                     91                     92                     93
                      A                      A                      A
 Frequencies --   3193.7571              3198.0641              3201.1891
 Red. masses --      1.0901                 1.0892                 1.0909
 Frc consts  --      6.5511                 6.5635                 6.5866
 IR Inten    --      6.5758                 9.5012                 4.1987

                     94                     95                     96
                      A                      A                      A
 Frequencies --   3202.9896              3208.6457              3217.1143
 Red. masses --      1.0908                 1.0934                 1.0962
 Frc consts  --      6.5934                 6.6323                 6.6844
 IR Inten    --      5.5077                23.7151                17.1609

                     97                     98                     99
                      A                      A                      A
 Frequencies --   3235.6420              3568.3610              3748.6423
 Red. masses --      1.0933                 1.0756                 1.0659
 Frc consts  --      6.7439                 8.0694                 8.8248
 IR Inten    --      2.7318                21.5490                38.3893

 - Thermochemistry -
 -------------------
 Temperature   298.150 Kelvin.  Pressure   1.00000 Atm.
 Atom     1 has atomic number  6 and mass  12.00000

 Molecular mass:   265.11028 amu.
 Principal axes and moments of inertia in atomic units:
                           1         2         3
     Eigenvalues --  3914.058196761.010398664.83445
           X            0.99966   0.01213   0.02319
           Y           -0.01228   0.99991   0.00623
           Z           -0.02311  -0.00652   0.99971
 This molecule is an asymmetric top.
 Rotational symmetry number  1.
 Warning -- assumption of classical behavior for rotation
           may cause significant error
 Rotational temperatures (Kelvin)      0.02213     0.01281     0.01000
 Rotational constants (GHZ):           0.46109     0.26693     0.20828
 Zero-point vibrational energy     735327.6 (Joules/Mol)
                                  175.74752 (Kcal/Mol)
 Warning -- explicit consideration of  29 degrees of freedom as
           vibrations may cause significant error
 Vibrational temperatures:     26.13    37.26    63.22    69.43    91.30
          (Kelvin)            107.73   152.48   178.42   221.61   271.77
                              296.59   339.81   358.97   399.50   423.90
                              491.75   503.12   541.48   575.29   598.69
                              604.22   674.58   743.19   745.09   774.33
                              793.54   812.82   841.01   872.59   907.61
                              918.09   991.94  1017.56  1051.67  1071.95
                             1112.63  1140.81  1239.36  1242.05  1255.29
                             1289.88  1298.71  1346.26  1403.18  1408.67
                             1422.13  1435.11  1437.56  1467.94  1468.93
                             1508.43  1523.33  1545.11  1580.90  1597.88
                             1671.72  1714.23  1717.84  1743.26  1766.10
                             1824.95  1869.89  1898.07  1915.28  1919.16
                             1964.59  1973.27  1982.51  2047.11  2076.74
                             2105.08  2136.82  2143.49  2168.27  2184.18
                             2188.79  2220.24  2225.29  2344.24  2387.47
                             2390.38  2403.62  2565.04  3377.95  4382.36
                             4419.23  4465.43  4467.18  4501.62  4586.27
                             4595.10  4601.30  4605.80  4608.39  4616.53
                             4628.71  4655.37  5134.08  5393.46

 Zero-point correction=                           0.280072 (Hartree/Particle)
 Thermal correction to Energy=                    0.298379
 Thermal correction to Enthalpy=                  0.299324
 Thermal correction to Gibbs Free Energy=         0.231339
 Sum of electronic and zero-point Energies=           -861.784335
 Sum of electronic and thermal Energies=              -861.766027
 Sum of electronic and thermal Enthalpies=            -861.765083
 Sum of electronic and thermal Free Energies=         -861.833068

                     E (Thermal)             CV                S
                      KCal/Mol        Cal/Mol-Kelvin    Cal/Mol-Kelvin
 Total                  187.236             69.290            143.086
 Electronic               0.000              0.000              0.000
 Translational            0.889              2.981             42.624
 Rotational               0.889              2.981             33.794
 Vibrational            185.458             63.328             66.668
 Vibration     1          0.593              1.986              6.826
 Vibration     2          0.593              1.985              6.121
 Vibration     3          0.595              1.980              5.073
 Vibration     4          0.595              1.978              4.888
 Vibration     5          0.597              1.972              4.347
 Vibration     6          0.599              1.966              4.021
 Vibration     7          0.605              1.944              3.341
 Vibration     8          0.610              1.929              3.037
 Vibration     9          0.620              1.898              2.622
 Vibration    10          0.633              1.855              2.239
 Vibration    11          0.641              1.831              2.078
 Vibration    12          0.655              1.785              1.831
 Vibration    13          0.662              1.764              1.734
 Vibration    14          0.679              1.715              1.548
 Vibration    15          0.689              1.684              1.447
 Vibration    16          0.721              1.592              1.204
 Vibration    17          0.727              1.576              1.168
 Vibration    18          0.747              1.521              1.054
 Vibration    19          0.766              1.470              0.963
 Vibration    20          0.779              1.435              0.905
 Vibration    21          0.783              1.427              0.892
 Vibration    22          0.826              1.319              0.741
 Vibration    23          0.872              1.213              0.618
 Vibration    24          0.873              1.210              0.615
 Vibration    25          0.893              1.166              0.569
 Vibration    26          0.907              1.136              0.541
 Vibration    27          0.921              1.107              0.514
 Vibration    28          0.941              1.065              0.477
 Vibration    29          0.965              1.018              0.439

 Optimization completed.
    -- Stationary point found.
 Normal termination of Gaussian 16 at Sun Dec 13 13:40:44 2020.

 ----------------------------------------------------------------------
 # B3LYP/6-311++G(d,p) empiricaldispersion=gd3bj scf=xqc pop=npa geom=c
 heck
 ----------------------------------------------------------------------

 ---------------------------------------
 CID_71874281_JID_10214_Energie_neutraal
 ---------------------------------------
 Structure from the checkpoint file:  "JID_10214.chk"
 Charge =  0 Multiplicity = 1

 SCF Done:  E(RB3LYP) =  -862.305887590     A.U. after   16 cycles
 Normal termination of Gaussian 16 at Sun Dec 13 13:50:04 2020.

 ----------------------------------------------------------------------
 # B3LYP/6-311++G(d,p) empiricaldispersion=gd3bj scf=xqc pop=npa geom=c
 heck
 ----------------------------------------------------------------------

 -------------------------------------
 CID_71874281_JID_10214_Energie_kation
 -------------------------------------
 Structure from the checkpoint file:  "JID_10214.chk"
 Charge =  1 Multiplicity = 2

 SCF Done:  E(UB3LYP) =  -862.011410852     A.U. after   28 cycles
 Normal termination of Gaussian 16 at Sun Dec 13 14:13:50 2020.
 Gaussian 16:  ES64L-G16RevA.03 25-Dec-2016

 ----------------------------------------------------------------------
 # B3LYP/6-311++G(d,p) empiricaldispersion=gd3bj scf=xqc pop=npa geom=c
 heck
 ----------------------------------------------------------------------

 ------------------------------------
 CID_71874281_JID_10214_Energie_anion
 ------------------------------------
 Structure from the checkpoint file:  "JID_10214.chk"
 Charge = -1 Multiplicity = 2

                         Standard orientation:
 ---------------------------------------------------------------------
 Center     Atomic      Atomic             Coordinates (Angstroms)
 Number     Number       Type             X           Y           Z
 ---------------------------------------------------------------------
      1          6           0        3.526591    2.231293    1.595629
      2          6           0        2.549128    1.614974    0.624761
      3          6           0        2.654502    0.265605    0.265176
      4          6           0        1.778226   -0.285734   -0.672001
      5          6           0        0.790959    0.502630   -1.265857
      6          6           0        0.651929    1.832929   -0.873956
      7          6           0        1.531219    2.387632    0.061161
      8          8           0       -0.342691    2.639428   -1.354579
      9          6           0        1.855375   -1.724258   -1.083433
     10          8           0        1.823798   -2.067413   -2.257028
     11          7           0        1.978832   -2.660296   -0.067279
     12          6           0        1.362054   -2.484440    1.261668
     13          6           0       -0.005578   -1.960552    1.192989
     14          6           0       -1.060787   -1.408840    0.968671
     15          6           0       -2.240260   -0.671401    0.653581
     16          6           0       -2.192790    0.736312    0.657950
     17          6           0       -3.310336    1.477403    0.284862
     18          6           0       -4.491356    0.829072   -0.085688
     19          6           0       -4.549779   -0.566454   -0.081077
     20          6           0       -3.433602   -1.315641    0.282421
     21          1           0        4.366462    2.697817    1.064761
     22          1           0        3.051640    3.009669    2.201692
     23          1           0        3.944944    1.479173    2.272128
     24          1           0        3.434810   -0.351311    0.701446
     25          1           0        0.119434    0.058076   -1.994542
     26          1           0        1.401367    3.428364    0.342942
     27          1           0       -0.952025    2.099176   -1.881940
     28          1           0        1.898816   -3.597185   -0.448718
     29          1           0        1.975470   -1.808110    1.865264
     30          1           0        1.394153   -3.461033    1.755673
     31          1           0       -1.273165    1.230640    0.947936
     32          1           0       -3.255439    2.562186    0.283448
     33          1           0       -5.363062    1.408637   -0.375839
     34          1           0       -5.467076   -1.073041   -0.367172
     35          1           0       -3.469973   -2.400291    0.275597
 ---------------------------------------------------------------------

 SCF Done:  E(UB3LYP) =  -862.306874157     A.U. after   33 cycles
 SCF Done:  E(UB3LYP) =  -862.306874157     a.u. after    1 cycles

 The electronic state is 2-A.
 Alpha  occ. eigenvalues --  -19.04704 -18.97274 -14.21494 -10.15181 -10.12187
 Alpha  occ. eigenvalues --  -10.11754 -10.07486 -10.07416 -10.06504 -10.06236
 Alpha  occ. eigenvalues --  -10.05923 -10.05568 -10.05421 -10.05297 -10.05255
 Alpha  occ. eigenvalues --  -10.05252 -10.05197 -10.04849 -10.04052 -10.03617
 Alpha  occ. eigenvalues --   -0.95618  -0.92247  -0.80592  -0.74597  -0.74025
 Alpha  occ. eigenvalues --   -0.66965  -0.66312  -0.63899  -0.63104  -0.62948
 Alpha  occ. eigenvalues --   -0.58618  -0.57698  -0.53023  -0.50501  -0.49759
 Alpha  occ. eigenvalues --   -0.48834  -0.45168  -0.42492  -0.42079  -0.39485
 Alpha  occ. eigenvalues --   -0.38343  -0.37116  -0.36851  -0.36059  -0.35248
 Alpha  occ. eigenvalues --   -0.33579  -0.32812  -0.31733  -0.31059  -0.30889
 Alpha  occ. eigenvalues --   -0.30690  -0.30234  -0.30013  -0.29633  -0.28084
 Alpha  occ. eigenvalues --   -0.27056  -0.26165  -0.24978  -0.24085  -0.23959
 Alpha  occ. eigenvalues --   -0.23112  -0.22056  -0.19109  -0.16150  -0.14803
 Alpha  occ. eigenvalues --   -0.14235  -0.14084  -0.13097  -0.11850  -0.11284
 Alpha  occ. eigenvalues --    0.04438
 Alpha virt. eigenvalues --    0.06800   0.07069   0.07586   0.07806   0.09245
 Alpha virt. eigenvalues --    0.09638   0.09742   0.09940   0.10245   0.10735
 Alpha virt. eigenvalues --    0.11111   0.11271   0.11701   0.12572   0.13148

  Beta  occ. eigenvalues --  -19.04708 -18.97205 -14.21415 -10.15128 -10.12214
  Beta  occ. eigenvalues --  -10.11762 -10.07488 -10.07393 -10.06359 -10.06119
  Beta  occ. eigenvalues --  -10.05977 -10.05554 -10.05405 -10.05212 -10.05205
  Beta  occ. eigenvalues --  -10.05123 -10.05061 -10.04604 -10.04027 -10.03492
  Beta  occ. eigenvalues --   -0.95621  -0.92107  -0.80409  -0.74440  -0.73761
  Beta  occ. eigenvalues --   -0.66808  -0.66012  -0.63710  -0.62848  -0.62739
  Beta  occ. eigenvalues --   -0.58509  -0.57560  -0.52746  -0.50453  -0.49325
  Beta  occ. eigenvalues --   -0.48756  -0.45018  -0.42424  -0.41967  -0.39381
  Beta  occ. eigenvalues --   -0.38215  -0.36969  -0.36702  -0.35896  -0.35090
  Beta  occ. eigenvalues --   -0.33443  -0.32718  -0.31635  -0.30998  -0.30815
  Beta  occ. eigenvalues --   -0.30592  -0.30190  -0.29911  -0.29542  -0.27856
  Beta  occ. eigenvalues --   -0.26930  -0.25481  -0.24884  -0.23980  -0.23856
  Beta  occ. eigenvalues --   -0.23029  -0.21746  -0.18349  -0.15862  -0.14451
  Beta  occ. eigenvalues --   -0.13911  -0.13683  -0.12501  -0.11477  -0.10324
  Beta virt. eigenvalues --    0.07043   0.07667   0.07806   0.08182   0.08665
  Beta virt. eigenvalues --    0.09239   0.09669   0.09693   0.10010   0.10411
  Beta virt. eigenvalues --    0.10917   0.11186   0.11296   0.11705   0.12544

 Mulliken charges and spin densities:
               1          2
     1  C   -0.489274  -0.039645
     2  C    0.312006   0.022725
     3  C   -0.902020  -0.122212
     4  C    0.961574  -0.061856
     5  C    0.545658   0.053110
     6  C   -0.724262  -0.082980
     7  C   -0.021909   0.159739
     8  O   -0.171068   0.010380
     9  C   -0.665057   0.169729
    10  O   -0.333514   0.029581
    11  N   -0.162602   0.040431
    12  C   -0.067543  -0.773695
    13  C   -0.047739   0.492030
    14  C    0.328208   0.019587
    15  C    0.624396   0.117373
    16  C   -0.625571   0.036490
    17  C   -0.340928   0.014665
    18  C   -0.401800   0.176505
    19  C   -0.243153  -0.040624
    20  C   -0.396773   0.107112
    21  H    0.152561  -0.000889
    22  H    0.131921   0.008308
    23  H    0.126000   0.011690
    24  H    0.106938   0.060825
    25  H    0.171070  -0.006654
    26  H    0.150092  -0.009182
    27  H    0.265011   0.005708
    28  H    0.048051   0.250397
    29  H    0.166907  -0.026934
    30  H   -0.194402   0.388258
    31  H    0.179089  -0.004363
    32  H    0.146990   0.006990
    33  H    0.115120  -0.015091
    34  H    0.120600   0.005490
    35  H    0.135424  -0.002999
 Sum of Mulliken charges =  -1.00000   1.00000

 Dipole moment (field-independent basis, Debye):
    X=             -0.1030    Y=              3.4674    Z=              1.7926  Tot=              3.9047
 Quadrupole moment (field-independent basis, Debye-Ang):
   XX=           -158.3942   YY=           -150.2859   ZZ=           -140.0066
   XY=              8.9489   XZ=             13.5065   YZ=             -1.9041

 Summary of Natural Population Analysis:

                                       Natural Population
                Natural  -----------------------------------------------
    Atom  No    Charge         Core      Valence    Rydberg      Total
 -----------------------------------------------------------------------
      C    1   -0.28916      0.99964     2.28488    0.00464     3.28916
      C    2   -0.01111      0.99953     2.00402    0.00757     3.01111
      C    3   -0.11083      0.99948     2.10229    0.00906     3.11083
      C    4   -0.03292      0.99947     2.02171    0.01175     3.03292
      C    5   -0.10648      0.99947     2.09731    0.00969     3.10648
      C    6    0.15345      0.99938     1.83382    0.01335     2.84655
      C    7   -0.10568      0.99947     2.09785    0.00835     3.10568
      O    8   -0.34413      0.99987     3.33738    0.00687     4.34413
      C    9    0.35353      0.99961     1.62282    0.02403     2.64647
      O   10   -0.31162      0.99988     3.30638    0.00536     4.31162
      N   11   -0.31612      0.99968     2.80491    0.01152     3.81612
      C   12   -0.13448      0.99958     2.11902    0.01588     3.13448
      C   13    0.04108      0.99922     1.95180    0.00789     2.95892
      C   14   -0.03689      0.99939     2.02343    0.01407     3.03689
      C   15    0.01465      0.99947     1.97558    0.01031     2.98535
      C   16   -0.09543      0.99959     2.07948    0.01636     3.09543
      C   17   -0.11209      0.99957     2.10294    0.00958     3.11209
      C   18   -0.06560      0.99957     2.05585    0.01018     3.06560
      C   19   -0.12218      0.99957     2.11302    0.00959     3.12218
      C   20   -0.07985      0.99960     2.06511    0.01515     3.07985
      H   21    0.09986      0.00000     0.39910    0.00104     0.40014
      H   22    0.09903      0.00000     0.40006    0.00091     0.40097
      H   23    0.09907      0.00000     0.40005    0.00088     0.40093
      H   24    0.09845      0.00000     0.40020    0.00135     0.40155
      H   25    0.10559      0.00000     0.39296    0.00145     0.39441
      H   26    0.09733      0.00000     0.40146    0.00120     0.40267
      H   27    0.23563      0.00000     0.26163    0.00274     0.26437
      H   28    0.18923      0.00000     0.30764    0.00314     0.31077
      H   29    0.10562      0.00000     0.39285    0.00153     0.39438
      H   30    0.10825      0.00000     0.38984    0.00191     0.39175
      H   31    0.10531      0.00000     0.39282    0.00187     0.39469
      H   32    0.09620      0.00000     0.40277    0.00104     0.40380
      H   33    0.08935      0.00000     0.40959    0.00106     0.41065
      H   34    0.09304      0.00000     0.40594    0.00103     0.40696
      H   35    0.09594      0.00000     0.40265    0.00141     0.40406
 =======================================================================
   * Total *    0.00603     19.99106    49.75916    0.24375    69.99397

 Normal termination of Gaussian 16 at Sun Dec 13 14:41:43 2020.
