 Gaussian 16, Revision A.03,

 -----------------------------------------------------------
 # opt freq B3LYP/6-31G(d) empiricaldispersion=gd3bj scf=xqc
 -----------------------------------------------------------

 -------------------------------
 CID_147372278_JID_2756_neutraal
 -------------------------------
 Symbolic Z-matrix:
 Charge =  0 Multiplicity = 1

 SCF Done:  E(RB3LYP) =  -539.903429494     A.U. after   14 cycles
 SCF Done:  E(RB3LYP) =  -539.907322017     A.U. after   11 cycles
 SCF Done:  E(RB3LYP) =  -539.907922251     A.U. after   11 cycles
 SCF Done:  E(RB3LYP) =  -539.908060881     A.U. after   11 cycles
 SCF Done:  E(RB3LYP) =  -539.908103401     A.U. after   10 cycles
 SCF Done:  E(RB3LYP) =  -539.908112728     A.U. after    9 cycles
 SCF Done:  E(RB3LYP) =  -539.908113457     A.U. after    8 cycles
 SCF Done:  E(RB3LYP) =  -539.908113564     A.U. after    7 cycles
 Optimization completed.
    -- Stationary point found.
 Normal termination of Gaussian 16 at Wed Dec  9 17:51:26 2020.

 --------------------------------------------------------------------
 #N Geom=AllCheck Guess=TCheck SCRF=Check GenChk RB3LYP/6-31G(d) Freq
 --------------------------------------------------------------------

 Structure from the checkpoint file:  "JID_2756.chk"
 -------------------------------
 CID_147372278_JID_2756_neutraal
 -------------------------------
 Charge =  0 Multiplicity = 1

 SCF Done:  E(RB3LYP) =  -539.908113564     A.U. after    1 cycles

  Exact polarizability: 136.881   2.472  80.914   0.405  -3.350  94.069
 Approx polarizability: 183.810   4.134 113.220   0.243  -1.984 153.687

                      1                      2                      3
                      A                      A                      A
 Frequencies --     96.4106               110.3786               143.4619
 Red. masses --      3.2973                 4.0286                 2.5415
 Frc consts  --      0.0181                 0.0289                 0.0308
 IR Inten    --      0.7519                 1.6718                 1.4687

                      4                      5                      6
                      A                      A                      A
 Frequencies --    213.4281               220.1232               242.2247
 Red. masses --      2.4684                 4.2970                 4.6161
 Frc consts  --      0.0662                 0.1227                 0.1596
 IR Inten    --      0.4386                 2.7123                 1.1987

                      7                      8                      9
                      A                      A                      A
 Frequencies --    295.8352               335.8564               347.5974
 Red. masses --      3.1889                 2.2824                 2.8794
 Frc consts  --      0.1644                 0.1517                 0.2050
 IR Inten    --      4.2104                 1.7055                 1.2970

                     10                     11                     12
                      A                      A                      A
 Frequencies --    424.7502               452.5437               464.9115
 Red. masses --      2.8574                 2.7475                 2.7249
 Frc consts  --      0.3037                 0.3315                 0.3470
 IR Inten    --      2.7746                 1.3165                 0.4977

                     13                     14                     15
                      A                      A                      A
 Frequencies --    545.8539               573.1094               592.1811
 Red. masses --      2.3595                 2.3053                 2.6204
 Frc consts  --      0.4142                 0.4461                 0.5414
 IR Inten    --      9.7062                 2.5200                 1.2963

                     16                     17                     18
                      A                      A                      A
 Frequencies --    696.7721               729.9286               761.2657
 Red. masses --      3.1673                 1.4758                 1.5541
 Frc consts  --      0.9060                 0.4633                 0.5307
 IR Inten    --      2.4185                 0.6579                83.3631

                     19                     20                     21
                      A                      A                      A
 Frequencies --    795.5817               807.9507               816.7731
 Red. masses --      1.8203                 3.7444                 2.8513
 Frc consts  --      0.6788                 1.4401                 1.1207
 IR Inten    --      3.8542                 0.7142                 2.1558

                     22                     23                     24
                      A                      A                      A
 Frequencies --    851.8594               884.2177               911.0646
 Red. masses --      3.6026                 2.1568                 2.2904
 Frc consts  --      1.5403                 0.9935                 1.1201
 IR Inten    --      3.4685                 5.1777                 7.5326

                     25                     26                     27
                      A                      A                      A
 Frequencies --    945.3059               952.5223               956.3717
 Red. masses --      1.8677                 1.3483                 1.3868
 Frc consts  --      0.9833                 0.7208                 0.7474
 IR Inten    --      4.4011                 0.8695                 0.0085

                     28                     29                     30
                      A                      A                      A
 Frequencies --    990.6578              1000.6496              1018.6832
 Red. masses --      2.6101                 2.3973                 2.2712
 Frc consts  --      1.5092                 1.4143                 1.3886
 IR Inten    --     11.6258                 0.1243                28.1835

                     31                     32                     33
                      A                      A                      A
 Frequencies --   1050.4412              1084.3096              1094.9809
 Red. masses --      2.6166                 1.4667                 2.3023
 Frc consts  --      1.7011                 1.0160                 1.6264
 IR Inten    --     14.9643                 1.7356                17.7890

                     34                     35                     36
                      A                      A                      A
 Frequencies --   1117.7201              1131.3838              1145.6767
 Red. masses --      1.3514                 2.4469                 2.3938
 Frc consts  --      0.9947                 1.8454                 1.8512
 IR Inten    --     13.9445                44.3860               135.6400

                     37                     38                     39
                      A                      A                      A
 Frequencies --   1164.0514              1195.0004              1220.8677
 Red. masses --      3.0952                 2.6116                 2.7376
 Frc consts  --      2.4710                 2.1973                 2.4041
 IR Inten    --    133.2757                33.7849                10.5744

                     40                     41                     42
                      A                      A                      A
 Frequencies --   1260.7146              1271.9388              1316.7834
 Red. masses --      1.4666                 1.2306                 1.2641
 Frc consts  --      1.3734                 1.1730                 1.2914
 IR Inten    --     25.7773                 2.1763                23.2937

                     43                     44                     45
                      A                      A                      A
 Frequencies --   1329.4546              1333.9744              1339.5202
 Red. masses --      1.1983                 1.2530                 1.3335
 Frc consts  --      1.2479                 1.3137                 1.4097
 IR Inten    --     10.2657                 0.8898                 6.2947

                     46                     47                     48
                      A                      A                      A
 Frequencies --   1395.0242              1410.8094              1412.7629
 Red. masses --      1.2959                 1.3738                 1.7468
 Frc consts  --      1.4858                 1.6111                 2.0541
 IR Inten    --      3.1599                 5.7311                13.8747

                     49                     50                     51
                      A                      A                      A
 Frequencies --   1421.0698              1434.6568              1447.1706
 Red. masses --      1.4180                 1.2974                 1.2742
 Frc consts  --      1.6872                 1.5734                 1.5723
 IR Inten    --     26.7375                 7.8603                20.0336

                     52                     53                     54
                      A                      A                      A
 Frequencies --   1503.3296              1513.1106              1524.2786
 Red. masses --      1.0837                 1.0934                 1.0809
 Frc consts  --      1.4430                 1.4749                 1.4797
 IR Inten    --      2.4861                 4.1280                 3.1881

                     55                     56                     57
                      A                      A                      A
 Frequencies --   1530.8724              1534.4939              1604.8608
 Red. masses --      1.0919                 1.0924                 6.9312
 Frc consts  --      1.5077                 1.5155                10.5179
 IR Inten    --      0.6093                 8.7590                 1.1455

                     58                     59                     60
                      A                      A                      A
 Frequencies --   1676.1022              2992.5930              3029.6143
 Red. masses --      5.6432                 1.0707                 1.0633
 Frc consts  --      9.3407                 5.6493                 5.7503
 IR Inten    --      0.4653                79.9147                10.5136

                     61                     62                     63
                      A                      A                      A
 Frequencies --   3040.8560              3044.8730              3052.7750
 Red. masses --      1.0571                 1.0708                 1.0684
 Frc consts  --      5.7589                 5.8491                 5.8667
 IR Inten    --     39.5000                92.8561                37.4479

                     64                     65                     66
                      A                      A                      A
 Frequencies --   3072.8797              3083.4060              3091.0436
 Red. masses --      1.0983                 1.0937                 1.1074
 Frc consts  --      6.1103                 6.1262                 6.2342
 IR Inten    --     31.1980                 4.4563                43.9993

                     67                     68                     69
                      A                      A                      A
 Frequencies --   3105.8634              3146.9804              3211.2590
 Red. masses --      1.0969                 1.0944                 1.0881
 Frc consts  --      6.2344                 6.3856                 6.6107
 IR Inten    --     56.0594                21.2739                 9.7628

                     70                     71                     72
                      A                      A                      A
 Frequencies --   3223.0800              3247.4158              3259.2430
 Red. masses --      1.0902                 1.1021                 1.1001
 Frc consts  --      6.6724                 6.8475                 6.8854
 IR Inten    --     23.0569                10.8259                 3.0066

 - Thermochemistry -
 -------------------
 Temperature   298.150 Kelvin.  Pressure   1.00000 Atm.
 Atom     1 has atomic number  6 and mass  12.00000

 Molecular mass:   166.09938 amu.
 Principal axes and moments of inertia in atomic units:
                           1         2         3
     Eigenvalues --   918.583992597.041032862.19062
           X            0.99996   0.00799   0.00350
           Y           -0.00773   0.99760  -0.06887
           Z           -0.00404   0.06884   0.99762
 This molecule is an asymmetric top.
 Rotational symmetry number  1.
 Warning -- assumption of classical behavior for rotation
           may cause significant error
 Rotational temperatures (Kelvin)      0.09429     0.03335     0.03026
 Rotational constants (GHZ):           1.96470     0.69492     0.63055
 Zero-point vibrational energy     593620.0 (Joules/Mol)
                                  141.87858 (Kcal/Mol)
 Warning -- explicit consideration of  15 degrees of freedom as
           vibrations may cause significant error
 Vibrational temperatures:    138.71   158.81   206.41   307.08   316.71
          (Kelvin)            348.51   425.64   483.22   500.12   611.12
                              651.11   668.90   785.36   824.58   852.02
                             1002.50  1050.20  1095.29  1144.66  1162.46
                             1175.15  1225.64  1272.19  1310.82  1360.08
                             1370.47  1376.01  1425.34  1439.71  1465.66
                             1511.35  1560.08  1575.43  1608.15  1627.81
                             1648.37  1674.81  1719.34  1756.56  1813.89
                             1830.04  1894.56  1912.79  1919.29  1927.27
                             2007.13  2029.84  2032.65  2044.60  2064.15
                             2082.16  2162.96  2177.03  2193.10  2202.58
                             2207.79  2309.04  2411.54  4305.67  4358.94
                             4375.11  4380.89  4392.26  4421.19  4436.33
                             4447.32  4468.64  4527.80  4620.29  4637.29
                             4672.31  4689.32

 Zero-point correction=                           0.226098 (Hartree/Particle)
 Thermal correction to Energy=                    0.236393
 Thermal correction to Enthalpy=                  0.237337
 Thermal correction to Gibbs Free Energy=         0.190802
 Sum of electronic and zero-point Energies=           -539.682016
 Sum of electronic and thermal Energies=              -539.671721
 Sum of electronic and thermal Enthalpies=            -539.670777
 Sum of electronic and thermal Free Energies=         -539.717311

                     E (Thermal)             CV                S
                      KCal/Mol        Cal/Mol-Kelvin    Cal/Mol-Kelvin
 Total                  148.339             41.862             97.940
 Electronic               0.000              0.000              0.000
 Translational            0.889              2.981             41.231
 Rotational               0.889              2.981             30.302
 Vibrational            146.561             35.900             26.407
 Vibration     1          0.603              1.952              3.526
 Vibration     2          0.606              1.941              3.262
 Vibration     3          0.616              1.910              2.757
 Vibration     4          0.644              1.820              2.014
 Vibration     5          0.647              1.810              1.958
 Vibration     6          0.658              1.776              1.786
 Vibration     7          0.690              1.681              1.440
 Vibration     8          0.717              1.604              1.232
 Vibration     9          0.725              1.580              1.177
 Vibration    10          0.787              1.416              0.876
 Vibration    11          0.811              1.355              0.788
 Vibration    12          0.822              1.328              0.752
 Vibration    13          0.901              1.149              0.553
 Vibration    14          0.929              1.089              0.498
 Vibration    15          0.950              1.048              0.463

 Optimization completed.
    -- Stationary point found.
 Normal termination of Gaussian 16 at Wed Dec  9 17:58:15 2020.

 ----------------------------------------------------------------------
 # B3LYP/6-311++G(d,p) empiricaldispersion=gd3bj scf=xqc pop=npa geom=c
 heck
 ----------------------------------------------------------------------

 ---------------------------------------
 CID_147372278_JID_2756_Energie_neutraal
 ---------------------------------------
 Structure from the checkpoint file:  "JID_2756.chk"
 Charge =  0 Multiplicity = 1

 SCF Done:  E(RB3LYP) =  -540.059575819     A.U. after   14 cycles
 Normal termination of Gaussian 16 at Wed Dec  9 18:01:41 2020.

 ----------------------------------------------------------------------
 # B3LYP/6-311++G(d,p) empiricaldispersion=gd3bj scf=xqc pop=npa geom=c
 heck
 ----------------------------------------------------------------------

 -------------------------------------
 CID_147372278_JID_2756_Energie_kation
 -------------------------------------
 Structure from the checkpoint file:  "JID_2756.chk"
 Charge =  1 Multiplicity = 2

 SCF Done:  E(UB3LYP) =  -539.759099828     A.U. after   23 cycles
 Normal termination of Gaussian 16 at Wed Dec  9 18:08:34 2020.
 Gaussian 16:  ES64L-G16RevA.03 25-Dec-2016

 ----------------------------------------------------------------------
 # B3LYP/6-311++G(d,p) empiricaldispersion=gd3bj scf=xqc pop=npa geom=c
 heck
 ----------------------------------------------------------------------

 ------------------------------------
 CID_147372278_JID_2756_Energie_anion
 ------------------------------------
 Structure from the checkpoint file:  "JID_2756.chk"
 Charge = -1 Multiplicity = 2

                         Standard orientation:
 ---------------------------------------------------------------------
 Center     Atomic      Atomic             Coordinates (Angstroms)
 Number     Number       Type             X           Y           Z
 ---------------------------------------------------------------------
      1          6           0        2.600379   -0.071746    0.663712
      2          6           0        2.388945    1.280664   -0.025588
      3          6           0        0.960557    1.501557   -0.535926
      4          8           0       -0.003566    1.152041    0.463005
      5          6           0       -0.857032    0.041694    0.189862
      6          6           0       -0.091295   -1.304889    0.256510
      7          8           0        0.950561   -1.350660   -0.706773
      8          6           0        2.276094   -1.302843   -0.184610
      9          6           0       -1.963665    0.020004    1.227256
     10          6           0       -3.157287   -0.012300    0.613668
     11          6           0       -2.955035    0.045473   -0.848779
     12          6           0       -1.640921    0.116775   -1.117801
     13          1           0        2.001424   -0.088405    1.580412
     14          1           0        3.648075   -0.160852    0.980653
     15          1           0        2.643194    2.072011    0.690388
     16          1           0        3.077283    1.391216   -0.875743
     17          1           0        0.798989    0.927983   -1.448729
     18          1           0        0.810249    2.563289   -0.771298
     19          1           0       -0.794251   -2.119287    0.045389
     20          1           0        0.303988   -1.447866    1.269709
     21          1           0        2.920796   -1.334299   -1.070025
     22          1           0        2.476076   -2.212616    0.404930
     23          1           0       -1.760172    0.014996    2.291205
     24          1           0       -4.128241   -0.061913    1.095302
     25          1           0       -3.759796    0.022887   -1.576431
     26          1           0       -1.178012    0.135475   -2.095436
 ---------------------------------------------------------------------

 SCF Done:  E(UB3LYP) =  -540.046598263     A.U. after   33 cycles
 SCF Done:  E(UB3LYP) =  -540.046598263     a.u. after    1 cycles

 The electronic state is 2-A.
 Alpha  occ. eigenvalues --  -19.00229 -18.99281 -10.09824 -10.09689 -10.09143
 Alpha  occ. eigenvalues --  -10.08945 -10.05289 -10.04961 -10.03291 -10.03246
 Alpha  occ. eigenvalues --  -10.02040 -10.01954  -0.92054  -0.89794  -0.72160
 Alpha  occ. eigenvalues --   -0.67666  -0.61058  -0.60404  -0.57355  -0.51554
 Alpha  occ. eigenvalues --   -0.50297  -0.45494  -0.41890  -0.40395  -0.38909
 Alpha  occ. eigenvalues --   -0.37584  -0.36805  -0.34678  -0.33662  -0.31165
 Alpha  occ. eigenvalues --   -0.30208  -0.28656  -0.27368  -0.26844  -0.25398
 Alpha  occ. eigenvalues --   -0.23917  -0.23107  -0.22861  -0.21685  -0.19676
 Alpha  occ. eigenvalues --   -0.18661  -0.18253  -0.14831  -0.11731  -0.09288
 Alpha  occ. eigenvalues --    0.05430
 Alpha virt. eigenvalues --    0.07009   0.08731   0.08827   0.09452   0.10059
 Alpha virt. eigenvalues --    0.10491   0.11400   0.12045   0.12278   0.12731
 Alpha virt. eigenvalues --    0.13528   0.13862   0.15611   0.15995   0.16585

  Beta  occ. eigenvalues --  -19.00221 -18.99193 -10.09800 -10.09716 -10.09139
  Beta  occ. eigenvalues --  -10.08881 -10.05278 -10.04940 -10.03222 -10.03184
  Beta  occ. eigenvalues --  -10.01806 -10.01709  -0.91987  -0.89661  -0.71846
  Beta  occ. eigenvalues --   -0.67584  -0.60971  -0.60270  -0.56931  -0.51325
  Beta  occ. eigenvalues --   -0.50212  -0.45327  -0.41644  -0.40213  -0.38693
  Beta  occ. eigenvalues --   -0.37477  -0.36699  -0.34607  -0.33586  -0.31117
  Beta  occ. eigenvalues --   -0.30129  -0.28560  -0.27230  -0.26708  -0.25269
  Beta  occ. eigenvalues --   -0.23796  -0.23021  -0.22774  -0.21581  -0.19567
  Beta  occ. eigenvalues --   -0.18315  -0.17638  -0.14688  -0.11625  -0.07976
  Beta virt. eigenvalues --    0.07995   0.08710   0.09140   0.09683   0.09946
  Beta virt. eigenvalues --    0.10498   0.10619   0.11570   0.12146   0.12514
  Beta virt. eigenvalues --    0.12840   0.13813   0.14083   0.15898   0.16075

 Mulliken charges and spin densities:
               1          2
     1  C   -0.531974   0.440674
     2  C    0.477955  -0.964270
     3  C   -0.121780   0.129158
     4  O    0.046173   0.001323
     5  C   -0.725967  -0.110710
     6  C   -0.141467  -0.321550
     7  O   -0.081831   0.037639
     8  C    1.032229  -1.321501
     9  C    0.233068   0.348250
    10  C   -0.517802   0.021617
    11  C   -0.339817   0.131749
    12  C    0.185391   0.131927
    13  H    0.295767  -0.137554
    14  H   -1.022300   1.201184
    15  H   -0.017261   0.160434
    16  H   -0.020028   0.146313
    17  H    0.132410  -0.019504
    18  H    0.142558   0.015071
    19  H    0.222357  -0.044445
    20  H   -0.121139   0.259572
    21  H   -0.160927   0.298292
    22  H   -0.398747   0.546284
    23  H    0.076954   0.058369
    24  H    0.104742  -0.005620
    25  H    0.108671   0.000894
    26  H    0.142763  -0.003597
 Sum of Mulliken charges =  -1.00000   1.00000

 Dipole moment (field-independent basis, Debye):
    X=             -3.8927    Y=              1.6555    Z=             -1.6728  Tot=              4.5489
 Quadrupole moment (field-independent basis, Debye-Ang):
   XX=           -135.1698   YY=            -99.4343   ZZ=            -91.9448
   XY=              8.5060   XZ=             -4.8605   YZ=              0.0411

 Summary of Natural Population Analysis:

                                       Natural Population
                Natural  -----------------------------------------------
    Atom  No    Charge         Core      Valence    Rydberg      Total
 -----------------------------------------------------------------------
      C    1   -0.21063      0.99962     2.20075    0.01026     3.21063
      C    2   -0.19896      0.99962     2.18946    0.00988     3.19896
      C    3   -0.01110      0.99956     1.99902    0.01252     3.01110
      O    4   -0.30013      0.99987     3.29075    0.00952     4.30013
      C    5    0.09824      0.99946     1.88575    0.01655     2.90176
      C    6   -0.01094      0.99951     1.99645    0.01498     3.01094
      O    7   -0.30946      0.99989     3.30039    0.00919     4.30946
      C    8   -0.00608      0.99957     1.99246    0.01405     3.00608
      C    9   -0.05277      0.99950     2.04305    0.01022     3.05277
      C   10   -0.10332      0.99953     2.09471    0.00908     3.10332
      C   11   -0.10674      0.99954     2.09796    0.00924     3.10674
      C   12   -0.06313      0.99950     2.05403    0.00961     3.06313
      H   13    0.10048      0.00000     0.39783    0.00168     0.39952
      H   14    0.10385      0.00000     0.39329    0.00286     0.39615
      H   15    0.09502      0.00000     0.40396    0.00102     0.40498
      H   16    0.09372      0.00000     0.40515    0.00113     0.40628
      H   17    0.08997      0.00000     0.40852    0.00152     0.41003
      H   18    0.07896      0.00000     0.41991    0.00113     0.42104
      H   19    0.09219      0.00000     0.40668    0.00113     0.40781
      H   20    0.08377      0.00000     0.41457    0.00166     0.41623
      H   21    0.08713      0.00000     0.41129    0.00158     0.41287
      H   22    0.08060      0.00000     0.41754    0.00186     0.41940
      H   23    0.09424      0.00000     0.40471    0.00105     0.40576
      H   24    0.09043      0.00000     0.40858    0.00099     0.40957
      H   25    0.09000      0.00000     0.40898    0.00102     0.41000
      H   26    0.09467      0.00000     0.40417    0.00115     0.40533
 =======================================================================
   * Total *    0.00000     11.99516    32.84995    0.15489    45.00000

 Normal termination of Gaussian 16 at Wed Dec  9 18:19:09 2020.
