 Gaussian 16, Revision A.03,

 -----------------------------------------------------------
 # opt freq B3LYP/6-31G(d) empiricaldispersion=gd3bj scf=xqc
 -----------------------------------------------------------

 -------------------------------
 CID_118507799_JID_2710_neutraal
 -------------------------------
 Symbolic Z-matrix:
 Charge =  0 Multiplicity = 1

 SCF Done:  E(RB3LYP) =  -489.031172463     A.U. after   13 cycles
 SCF Done:  E(RB3LYP) =  -489.033062913     A.U. after   11 cycles
 SCF Done:  E(RB3LYP) =  -489.032806480     A.U. after   11 cycles
 SCF Done:  E(RB3LYP) =  -489.033746293     A.U. after   10 cycles
 SCF Done:  E(RB3LYP) =  -489.034009082     A.U. after   10 cycles
 SCF Done:  E(RB3LYP) =  -489.034086524     A.U. after   10 cycles
 SCF Done:  E(RB3LYP) =  -489.034111778     A.U. after    9 cycles
 SCF Done:  E(RB3LYP) =  -489.034125332     A.U. after    8 cycles
 SCF Done:  E(RB3LYP) =  -489.034130468     A.U. after    8 cycles
 SCF Done:  E(RB3LYP) =  -489.034130499     A.U. after    7 cycles
 SCF Done:  E(RB3LYP) =  -489.034131288     A.U. after    7 cycles
 SCF Done:  E(RB3LYP) =  -489.034131323     A.U. after    6 cycles
 Optimization completed.
    -- Stationary point found.
 Normal termination of Gaussian 16 at Wed Dec  9 17:53:44 2020.

 --------------------------------------------------------------------
 #N Geom=AllCheck Guess=TCheck SCRF=Check GenChk RB3LYP/6-31G(d) Freq
 --------------------------------------------------------------------

 Structure from the checkpoint file:  "JID_2710.chk"
 -------------------------------
 CID_118507799_JID_2710_neutraal
 -------------------------------
 Charge =  0 Multiplicity = 1

 SCF Done:  E(RB3LYP) =  -489.034131323     A.U. after    1 cycles

  Exact polarizability: 138.051   1.146 126.063  -0.163   0.578 107.858
 Approx polarizability: 170.463   0.186 167.286  -0.352   0.382 165.431

                      1                      2                      3
                      A                      A                      A
 Frequencies --     48.9121                59.9274                79.7757
 Red. masses --      2.7052                 3.0152                 2.8366
 Frc consts  --      0.0038                 0.0064                 0.0106
 IR Inten    --      0.0568                 0.0498                 0.1372

                      4                      5                      6
                      A                      A                      A
 Frequencies --     96.3220               120.2093               126.5106
 Red. masses --      2.2008                 2.4166                 2.2308
 Frc consts  --      0.0120                 0.0206                 0.0210
 IR Inten    --      0.0121                 0.0549                 0.0127

                      7                      8                      9
                      A                      A                      A
 Frequencies --    160.4987               202.4181               217.2907
 Red. masses --      1.9194                 1.5280                 1.6409
 Frc consts  --      0.0291                 0.0369                 0.0456
 IR Inten    --      0.2495                 0.0123                 0.0185

                     10                     11                     12
                      A                      A                      A
 Frequencies --    233.4872               244.9683               251.6321
 Red. masses --      1.1412                 1.3974                 1.3954
 Frc consts  --      0.0367                 0.0494                 0.0521
 IR Inten    --      0.0476                 0.0665                 0.6239

                     13                     14                     15
                      A                      A                      A
 Frequencies --    258.4483               266.8048               297.6990
 Red. masses --      1.2394                 2.1833                 1.7504
 Frc consts  --      0.0488                 0.0916                 0.0914
 IR Inten    --      0.4095                 0.0692                 0.2140

                     16                     17                     18
                      A                      A                      A
 Frequencies --    334.2478               358.7611               366.2888
 Red. masses --      2.2002                 2.2134                 2.2096
 Frc consts  --      0.1448                 0.1678                 0.1747
 IR Inten    --      2.8339                 0.2903                 1.3306

                     19                     20                     21
                      A                      A                      A
 Frequencies --    406.7002               451.3978               468.0609
 Red. masses --      2.0102                 2.2104                 2.2274
 Frc consts  --      0.1959                 0.2654                 0.2875
 IR Inten    --      2.5490                 0.3214                 1.6582

                     22                     23                     24
                      A                      A                      A
 Frequencies --    501.3909               531.7353               593.1627
 Red. masses --      2.4700                 2.6897                 2.5661
 Frc consts  --      0.3658                 0.4481                 0.5319
 IR Inten    --      0.5265                 1.2095                 1.1001

                     25                     26                     27
                      A                      A                      A
 Frequencies --    753.1264               787.7973               795.5742
 Red. masses --      1.4517                 1.3397                 1.2133
 Frc consts  --      0.4851                 0.4899                 0.4525
 IR Inten    --      3.4893                20.1126                 0.8141

                     28                     29                     30
                      A                      A                      A
 Frequencies --    846.7771               869.9149               893.4142
 Red. masses --      1.6205                 2.8450                 2.8040
 Frc consts  --      0.6846                 1.2685                 1.3187
 IR Inten    --      1.3853                19.2441                 4.6118

                     31                     32                     33
                      A                      A                      A
 Frequencies --    923.0383               932.0536               997.0801
 Red. masses --      1.8894                 1.9861                 1.9061
 Frc consts  --      0.9484                 1.0166                 1.1165
 IR Inten    --      1.3335                 3.3237                 2.4812

                     34                     35                     36
                      A                      A                      A
 Frequencies --   1009.6023              1036.0198              1038.4622
 Red. masses --      1.6265                 1.4084                 1.8836
 Frc consts  --      0.9768                 0.8907                 1.1968
 IR Inten    --      3.4640                 0.4064                 1.2457

                     37                     38                     39
                      A                      A                      A
 Frequencies --   1059.4721              1068.2207              1070.9294
 Red. masses --      1.7917                 1.9693                 1.8344
 Frc consts  --      1.1850                 1.3240                 1.2395
 IR Inten    --     11.8699                25.2069                 1.3716

                     40                     41                     42
                      A                      A                      A
 Frequencies --   1077.2196              1109.1392              1129.1137
 Red. masses --      1.6670                 2.2459                 1.4390
 Frc consts  --      1.1397                 1.6279                 1.0809
 IR Inten    --     11.6931                 2.2365                 0.8466

                     43                     44                     45
                      A                      A                      A
 Frequencies --   1139.5478              1168.0519              1172.9449
 Red. masses --      1.5321                 1.8010                 1.8323
 Frc consts  --      1.1722                 1.4477                 1.4852
 IR Inten    --      5.9796                 7.7970                 4.0277

                     46                     47                     48
                      A                      A                      A
 Frequencies --   1195.8829              1205.0508              1231.6281
 Red. masses --      1.7985                 1.7048                 2.1111
 Frc consts  --      1.5155                 1.4586                 1.8868
 IR Inten    --      1.0280                 7.6996                 5.5834

                     49                     50                     51
                      A                      A                      A
 Frequencies --   1283.4701              1303.6146              1305.8763
 Red. masses --      1.5093                 1.4405                 1.4439
 Frc consts  --      1.4649                 1.4424                 1.4507
 IR Inten    --      4.8352                 7.4977                 2.9508

                     52                     53                     54
                      A                      A                      A
 Frequencies --   1319.9645              1326.0305              1335.9711
 Red. masses --      1.5310                 1.1610                 1.3070
 Frc consts  --      1.5717                 1.2028                 1.3744
 IR Inten    --      8.6515                 2.4548                 3.2769

                     55                     56                     57
                      A                      A                      A
 Frequencies --   1355.5663              1376.7655              1386.1066
 Red. masses --      1.3500                 1.3005                 1.4360
 Frc consts  --      1.4616                 1.4523                 1.6256
 IR Inten    --     12.7394                 0.4157                 2.1888

                     58                     59                     60
                      A                      A                      A
 Frequencies --   1396.5819              1413.8737              1420.6931
 Red. masses --      1.3586                 1.3166                 1.4949
 Frc consts  --      1.5613                 1.5507                 1.7777
 IR Inten    --      7.0437                 0.2645                 0.6101

                     61                     62                     63
                      A                      A                      A
 Frequencies --   1436.8994              1440.0294              1443.2398
 Red. masses --      1.2936                 1.2619                 1.3126
 Frc consts  --      1.5736                 1.5418                 1.6109
 IR Inten    --      6.2759                 1.5410                 6.7938

                     64                     65                     66
                      A                      A                      A
 Frequencies --   1446.1762              1468.6955              1497.3283
 Red. masses --      1.2742                 1.1625                 1.1776
 Frc consts  --      1.5701                 1.4774                 1.5555
 IR Inten    --     16.9919                 0.5884                 0.1089

                     67                     68                     69
                      A                      A                      A
 Frequencies --   1511.7594              1515.0209              1520.4543
 Red. masses --      1.0453                 1.0604                 1.0600
 Frc consts  --      1.4076                 1.4340                 1.4437
 IR Inten    --      7.5115                 2.1196                 2.9381

                     70                     71                     72
                      A                      A                      A
 Frequencies --   1521.5884              1526.7537              1528.6220
 Red. masses --      1.0679                 1.0547                 1.0512
 Frc consts  --      1.4567                 1.4484                 1.4472
 IR Inten    --      7.7199                 1.7425                11.6761

                     73                     74                     75
                      A                      A                      A
 Frequencies --   1529.6982              1532.4663              1534.1006
 Red. masses --      1.0542                 1.0437                 1.0579
 Frc consts  --      1.4533                 1.4441                 1.4669
 IR Inten    --      4.7689                 3.2453                 6.9492

                     76                     77                     78
                      A                      A                      A
 Frequencies --   1537.3046              1540.6952              1541.7943
 Red. masses --      1.0583                 1.0567                 1.0550
 Frc consts  --      1.4736                 1.4779                 1.4776
 IR Inten    --      4.0064                 4.4390                 1.1491

                     79                     80                     81
                      A                      A                      A
 Frequencies --   1545.7665              1548.0819              2913.4220
 Red. masses --      1.0733                 1.0720                 1.0729
 Frc consts  --      1.5110                 1.5137                 5.3657
 IR Inten    --      2.4752                 4.8300                42.7633

                     82                     83                     84
                      A                      A                      A
 Frequencies --   2925.4328              2938.3025              2995.4939
 Red. masses --      1.0620                 1.0635                 1.0813
 Frc consts  --      5.3548                 5.4097                 5.7163
 IR Inten    --     41.8691               198.4788                18.4598

                     85                     86                     87
                      A                      A                      A
 Frequencies --   3036.0090              3037.0509              3044.7293
 Red. masses --      1.0712                 1.0643                 1.0389
 Frc consts  --      5.8175                 5.7836                 5.6745
 IR Inten    --     27.7631                 2.7324                22.1797

                     88                     89                     90
                      A                      A                      A
 Frequencies --   3048.3738              3050.8445              3053.2112
 Red. masses --      1.0690                 1.0393                 1.0516
 Frc consts  --      5.8527                 5.6993                 5.7756
 IR Inten    --     21.1838                20.4508                47.6803

                     91                     92                     93
                      A                      A                      A
 Frequencies --   3057.9601              3070.3687              3075.8733
 Red. masses --      1.0638                 1.0850                 1.0955
 Frc consts  --      5.8612                 6.0264                 6.1067
 IR Inten    --     33.9234                33.6551                29.0636

                     94                     95                     96
                      A                      A                      A
 Frequencies --   3076.2619              3086.6748              3087.2736
 Red. masses --      1.0719                 1.0769                 1.0858
 Frc consts  --      5.9766                 6.0454                 6.0974
 IR Inten    --     41.0180                40.3090                14.3816

                     97                     98                     99
                      A                      A                      A
 Frequencies --   3100.7423              3106.3835              3114.0088
 Red. masses --      1.0974                 1.1012                 1.0996
 Frc consts  --      6.2166                 6.2610                 6.2822
 IR Inten    --     11.6413                39.9634                 1.4620

                    100                    101                    102
                      A                      A                      A
 Frequencies --   3114.7738              3118.8824              3120.1662
 Red. masses --      1.0979                 1.1018                 1.1039
 Frc consts  --      6.2757                 6.3148                 6.3318
 IR Inten    --    107.8222                53.7563                34.5201

                    103                    104                    105
                      A                      A                      A
 Frequencies --   3124.1983              3132.0434              3138.1674
 Red. masses --      1.1008                 1.1020                 1.0999
 Frc consts  --      6.3307                 6.3691                 6.3820
 IR Inten    --     43.5883                37.7053                42.7545

 - Thermochemistry -
 -------------------
 Temperature   298.150 Kelvin.  Pressure   1.00000 Atm.
 Atom     1 has atomic number  6 and mass  12.00000

 Molecular mass:   171.19870 amu.
 Principal axes and moments of inertia in atomic units:
                           1         2         3
     Eigenvalues --  1707.963142879.691393905.74065
           X            0.99999  -0.00377  -0.00111
           Y            0.00376   0.99997  -0.00615
           Z            0.00113   0.00614   0.99998
 This molecule is an asymmetric top.
 Rotational symmetry number  1.
 Warning -- assumption of classical behavior for rotation
           may cause significant error
 Rotational temperatures (Kelvin)      0.05071     0.03008     0.02218
 Rotational constants (GHZ):           1.05666     0.62671     0.46207
 Zero-point vibrational energy     921988.0 (Joules/Mol)
                                  220.36041 (Kcal/Mol)
 Warning -- explicit consideration of  24 degrees of freedom as
           vibrations may cause significant error
 Vibrational temperatures:     70.37    86.22   114.78   138.59   172.95
          (Kelvin)            182.02   230.92   291.23   312.63   335.94
                              352.45   362.04   371.85   383.87   428.32
                              480.91   516.18   527.01   585.15   649.46
                              673.44   721.39   765.05   853.43  1083.58
                             1133.46  1144.65  1218.32  1251.61  1285.42
                             1328.05  1341.02  1434.58  1452.59  1490.60
                             1494.12  1524.34  1536.93  1540.83  1549.88
                             1595.80  1624.54  1639.56  1680.57  1687.61
                             1720.61  1733.80  1772.04  1846.63  1875.61
                             1878.86  1899.13  1907.86  1922.16  1950.36
                             1980.86  1994.30  2009.37  2034.25  2044.06
                             2067.38  2071.88  2076.50  2080.73  2113.13
                             2154.32  2175.08  2179.78  2187.59  2189.23
                             2196.66  2199.35  2200.89  2204.88  2207.23
                             2211.84  2216.72  2218.30  2224.01  2227.34
                             4191.76  4209.05  4227.56  4309.85  4368.14
                             4369.64  4380.69  4385.93  4389.48  4392.89
                             4399.72  4417.58  4425.50  4426.05  4441.04
                             4441.90  4461.28  4469.39  4480.36  4481.46
                             4487.38  4489.22  4495.02  4506.31  4515.12

 Zero-point correction=                           0.351167 (Hartree/Particle)
 Thermal correction to Energy=                    0.366734
 Thermal correction to Enthalpy=                  0.367678
 Thermal correction to Gibbs Free Energy=         0.309367
 Sum of electronic and zero-point Energies=           -488.682965
 Sum of electronic and thermal Energies=              -488.667397
 Sum of electronic and thermal Enthalpies=            -488.666453
 Sum of electronic and thermal Free Energies=         -488.724765

                     E (Thermal)             CV                S
                      KCal/Mol        Cal/Mol-Kelvin    Cal/Mol-Kelvin
 Total                  230.129             58.093            122.727
 Electronic               0.000              0.000              0.000
 Translational            0.889              2.981             41.321
 Rotational               0.889              2.981             31.330
 Vibrational            228.351             52.132             50.076
 Vibration     1          0.595              1.978              4.861
 Vibration     2          0.597              1.973              4.460
 Vibration     3          0.600              1.963              3.896
 Vibration     4          0.603              1.952              3.527
 Vibration     5          0.609              1.932              3.097
 Vibration     6          0.611              1.927              2.998
 Vibration     7          0.622              1.891              2.544
 Vibration     8          0.639              1.836              2.111
 Vibration     9          0.646              1.815              1.982
 Vibration    10          0.654              1.790              1.852
 Vibration    11          0.660              1.771              1.767
 Vibration    12          0.664              1.760              1.719
 Vibration    13          0.667              1.748              1.672
 Vibration    14          0.672              1.734              1.617
 Vibration    15          0.691              1.678              1.430
 Vibration    16          0.716              1.607              1.239
 Vibration    17          0.734              1.557              1.127
 Vibration    18          0.739              1.542              1.095
 Vibration    19          0.771              1.456              0.938
 Vibration    20          0.810              1.358              0.792
 Vibration    21          0.825              1.321              0.743
 Vibration    22          0.857              1.247              0.655
 Vibration    23          0.887              1.180              0.583
 Vibration    24          0.951              1.046              0.462

 Optimization completed.
    -- Stationary point found.
 Normal termination of Gaussian 16 at Wed Dec  9 18:04:20 2020.

 ----------------------------------------------------------------------
 # B3LYP/6-311++G(d,p) empiricaldispersion=gd3bj scf=xqc pop=npa geom=c
 heck
 ----------------------------------------------------------------------

 ---------------------------------------
 CID_118507799_JID_2710_Energie_neutraal
 ---------------------------------------
 Structure from the checkpoint file:  "JID_2710.chk"
 Charge =  0 Multiplicity = 1

 SCF Done:  E(RB3LYP) =  -489.171371411     A.U. after   13 cycles
 Normal termination of Gaussian 16 at Wed Dec  9 18:08:48 2020.

 ----------------------------------------------------------------------
 # B3LYP/6-311++G(d,p) empiricaldispersion=gd3bj scf=xqc pop=npa geom=c
 heck
 ----------------------------------------------------------------------

 -------------------------------------
 CID_118507799_JID_2710_Energie_kation
 -------------------------------------
 Structure from the checkpoint file:  "JID_2710.chk"
 Charge =  1 Multiplicity = 2

 SCF Done:  E(UB3LYP) =  -488.878315804     A.U. after   17 cycles
 Normal termination of Gaussian 16 at Wed Dec  9 18:16:59 2020.
 Gaussian 16:  ES64L-G16RevA.03 25-Dec-2016

 ----------------------------------------------------------------------
 # B3LYP/6-311++G(d,p) empiricaldispersion=gd3bj scf=xqc pop=npa geom=c
 heck
 ----------------------------------------------------------------------

 ------------------------------------
 CID_118507799_JID_2710_Energie_anion
 ------------------------------------
 Structure from the checkpoint file:  "JID_2710.chk"
 Charge = -1 Multiplicity = 2

                         Standard orientation:
 ---------------------------------------------------------------------
 Center     Atomic      Atomic             Coordinates (Angstroms)
 Number     Number       Type             X           Y           Z
 ---------------------------------------------------------------------
      1          6           0        3.580632   -0.942910   -0.247832
      2          6           0        2.466792   -0.118058    0.404621
      3          6           0        1.119146   -0.147836   -0.346306
      4          6           0        0.656288   -1.590160   -0.652021
      5          6           0        0.430394   -2.481252    0.572056
      6          6           0        0.037075    0.688252    0.390195
      7          6           0        0.484268    2.131468    0.713529
      8          6           0        0.863490    2.979679   -0.505334
      9          6           0       -1.298695    0.715190   -0.388174
     10          7           0       -2.201722   -0.389686   -0.056972
     11          6           0       -2.845898   -0.194391    1.233324
     12          6           0       -3.198440   -0.592488   -1.097418
     13          1           0        3.373047   -2.017123   -0.214093
     14          1           0        4.536235   -0.775797    0.261802
     15          1           0        3.712266   -0.663572   -1.300769
     16          1           0        2.317610   -0.457772    1.438926
     17          1           0        2.810826    0.919493    0.477380
     18          1           0        1.287143    0.330929   -1.323961
     19          1           0       -0.273934   -1.554223   -1.226294
     20          1           0        1.400957   -2.058539   -1.307229
     21          1           0       -0.376796   -2.090045    1.197436
     22          1           0        0.141510   -3.491426    0.260276
     23          1           0        1.332041   -2.572726    1.188629
     24          1           0       -0.147573    0.201666    1.356278
     25          1           0       -0.339728    2.624081    1.247202
     26          1           0        1.324040    2.112767    1.416809
     27          1           0        0.042436    3.033358   -1.229582
     28          1           0        1.106389    4.005092   -0.205489
     29          1           0        1.736981    2.572871   -1.026338
     30          1           0       -1.808849    1.686102   -0.225549
     31          1           0       -1.088830    0.661024   -1.462719
     32          1           0       -3.499410    0.701101    1.253817
     33          1           0       -3.457568   -1.069775    1.475605
     34          1           0       -2.096122   -0.080633    2.021213
     35          1           0       -3.856938    0.286181   -1.248642
     36          1           0       -2.701413   -0.813199   -2.048061
     37          1           0       -3.832582   -1.447010   -0.837686
 ---------------------------------------------------------------------

 SCF Done:  E(UB3LYP) =  -489.154746797     A.U. after   27 cycles

 The electronic state is 2-A.
 Alpha  occ. eigenvalues --  -14.20450 -10.08719 -10.08538 -10.08525 -10.06805
 Alpha  occ. eigenvalues --  -10.06686 -10.06337 -10.06211 -10.06013 -10.05722
 Alpha  occ. eigenvalues --  -10.05550 -10.05097  -0.82439  -0.72579  -0.67685
 Alpha  occ. eigenvalues --   -0.64463  -0.62152  -0.60640  -0.58294  -0.54780
 Alpha  occ. eigenvalues --   -0.51804  -0.49557  -0.47144  -0.43161  -0.38600
 Alpha  occ. eigenvalues --   -0.38521  -0.36672  -0.35915  -0.34593  -0.33460
 Alpha  occ. eigenvalues --   -0.32750  -0.31292  -0.30314  -0.29883  -0.29755
 Alpha  occ. eigenvalues --   -0.29257  -0.27558  -0.27116  -0.26771  -0.26205
 Alpha  occ. eigenvalues --   -0.25524  -0.25035  -0.24055  -0.23548  -0.22623
 Alpha  occ. eigenvalues --   -0.20999  -0.20292  -0.19621  -0.11862   0.04481
 Alpha virt. eigenvalues --    0.06375   0.06958   0.07176   0.08470   0.08803
 Alpha virt. eigenvalues --    0.09112   0.09561   0.09640   0.10891   0.11032
 Alpha virt. eigenvalues --    0.11535   0.11875   0.12042   0.12570   0.12830

  Beta  occ. eigenvalues --  -14.20439 -10.08706 -10.08509 -10.08493 -10.06799
  Beta  occ. eigenvalues --  -10.06680 -10.06325 -10.06199 -10.05990 -10.05694
  Beta  occ. eigenvalues --  -10.05542 -10.05082  -0.82412  -0.72557  -0.67658
  Beta  occ. eigenvalues --   -0.64436  -0.62119  -0.60589  -0.58256  -0.54731
  Beta  occ. eigenvalues --   -0.51753  -0.49495  -0.47095  -0.43127  -0.38569
  Beta  occ. eigenvalues --   -0.38493  -0.36643  -0.35883  -0.34568  -0.33432
  Beta  occ. eigenvalues --   -0.32714  -0.31260  -0.30294  -0.29843  -0.29728
  Beta  occ. eigenvalues --   -0.29224  -0.27522  -0.27084  -0.26735  -0.26169
  Beta  occ. eigenvalues --   -0.25499  -0.25003  -0.24036  -0.23524  -0.22599
  Beta  occ. eigenvalues --   -0.20975  -0.20275  -0.19597  -0.11802
  Beta virt. eigenvalues --    0.06465   0.07166   0.07614   0.07682   0.08863
  Beta virt. eigenvalues --    0.09237   0.09667   0.09851   0.10130   0.11305
  Beta virt. eigenvalues --    0.11382   0.11877   0.12300   0.12366   0.12852

 Mulliken charges and spin densities:
               1          2
     1  C    0.835548  -1.530867
     2  C   -1.572400   1.268208
     3  C    1.662598  -1.201679
     4  C   -0.200448   0.030861
     5  C    0.011077  -0.703041
     6  C   -0.375044   0.983918
     7  C   -0.610666   0.090253
     8  C    0.752752  -1.356451
     9  C   -1.110522  -0.250475
    10  N    0.093511   0.196383
    11  C    0.528897  -0.860533
    12  C    0.809446  -1.119067
    13  H    0.048313   0.092875
    14  H   -0.284831   0.420055
    15  H   -0.112180   0.257559
    16  H   -0.109268   0.268451
    17  H    0.241951  -0.114830
    18  H    0.102971   0.080509
    19  H    0.175857  -0.033895
    20  H   -0.157946   0.336310
    21  H    0.003062   0.151551
    22  H   -0.072042   0.212553
    23  H    0.058745   0.067265
    24  H    0.385352  -0.222447
    25  H   -0.155292   0.310056
    26  H   -0.332292   0.488479
    27  H   -0.222052   0.360284
    28  H   -0.376289   0.521623
    29  H   -0.107683   0.255654
    30  H    0.313886  -0.172215
    31  H    0.065333   0.128719
    32  H   -0.144621   0.265907
    33  H   -0.208146   0.352004
    34  H   -0.232041   0.349354
    35  H   -0.229539   0.337549
    36  H   -0.273523   0.397066
    37  H   -0.202473   0.342055
 Sum of Mulliken charges =  -1.00000   1.00000

 Dipole moment (field-independent basis, Debye):
    X=              1.0081    Y=             -1.1363    Z=              0.4002  Tot=              1.5708
 Quadrupole moment (field-independent basis, Debye-Ang):
   XX=           -154.2006   YY=           -136.2606   ZZ=           -116.9443
   XY=             -5.0494   XZ=             -0.4717   YZ=             -0.0224

 Summary of Natural Population Analysis:

                                       Natural Population
                Natural  -----------------------------------------------
    Atom  No    Charge         Core      Valence    Rydberg      Total
 -----------------------------------------------------------------------
      C    1   -0.28573      0.99967     2.28116    0.00491     3.28573
      C    2   -0.19270      0.99962     2.18423    0.00886     3.19270
      C    3   -0.10209      0.99958     2.09221    0.01030     3.10209
      C    4   -0.19195      0.99962     2.18365    0.00869     3.19195
      C    5   -0.28912      0.99966     2.28341    0.00605     3.28912
      C    6   -0.11510      0.99957     2.10396    0.01157     3.11510
      C    7   -0.18794      0.99962     2.17874    0.00958     3.18794
      C    8   -0.28918      0.99966     2.28429    0.00523     3.28918
      C    9   -0.08295      0.99959     2.07166    0.01171     3.08295
      N   10   -0.28448      0.99973     2.77154    0.01321     3.78448
      C   11   -0.17640      0.99964     2.16801    0.00875     3.17640
      C   12   -0.17463      0.99964     2.16630    0.00868     3.17463
      H   13    0.09600      0.00000     0.40309    0.00091     0.40400
      H   14    0.09841      0.00000     0.40074    0.00085     0.40159
      H   15    0.09597      0.00000     0.40304    0.00099     0.40403
      H   16    0.09369      0.00000     0.40520    0.00111     0.40631
      H   17    0.09844      0.00000     0.40030    0.00126     0.40156
      H   18    0.09389      0.00000     0.40428    0.00183     0.40611
      H   19    0.10315      0.00000     0.39513    0.00171     0.39685
      H   20    0.09300      0.00000     0.40591    0.00109     0.40700
      H   21    0.10145      0.00000     0.39721    0.00134     0.39855
      H   22    0.09728      0.00000     0.40188    0.00084     0.40272
      H   23    0.09208      0.00000     0.40703    0.00089     0.40792
      H   24    0.09913      0.00000     0.39866    0.00222     0.40087
      H   25    0.09558      0.00000     0.40324    0.00118     0.40442
      H   26    0.09699      0.00000     0.40174    0.00127     0.40301
      H   27    0.09684      0.00000     0.40208    0.00108     0.40316
      H   28    0.09950      0.00000     0.39950    0.00101     0.40050
      H   29    0.09676      0.00000     0.40207    0.00117     0.40324
      H   30    0.08425      0.00000     0.41418    0.00157     0.41575
      H   31    0.09665      0.00000     0.40171    0.00165     0.40335
      H   32    0.08054      0.00000     0.41799    0.00147     0.41946
      H   33    0.09655      0.00000     0.40231    0.00114     0.40345
      H   34    0.09477      0.00000     0.40407    0.00116     0.40523
      H   35    0.08025      0.00000     0.41824    0.00151     0.41975
      H   36    0.09501      0.00000     0.40379    0.00120     0.40499
      H   37    0.09609      0.00000     0.40263    0.00128     0.40391
 =======================================================================
   * Total *    0.00000     11.99558    36.86516    0.13926    49.00000

 Normal termination of Gaussian 16 at Wed Dec  9 18:29:24 2020.
