 Gaussian 16, Revision A.03,

 -----------------------------------------------------------
 # opt freq B3LYP/6-31G(d) empiricaldispersion=gd3bj scf=xqc
 -----------------------------------------------------------

 -------------------------------
 CID_117136537_JID_8829_neutraal
 -------------------------------
 Symbolic Z-matrix:
 Charge =  0 Multiplicity = 1

 SCF Done:  E(RB3LYP) =  -800.490419912     A.U. after   15 cycles
 SCF Done:  E(RB3LYP) =  -800.496187831     A.U. after   12 cycles
 SCF Done:  E(RB3LYP) =  -800.497194436     A.U. after   12 cycles
 SCF Done:  E(RB3LYP) =  -800.497561931     A.U. after   12 cycles
 SCF Done:  E(RB3LYP) =  -800.497807433     A.U. after   12 cycles
 SCF Done:  E(RB3LYP) =  -800.497940536     A.U. after   12 cycles
 SCF Done:  E(RB3LYP) =  -800.497966973     A.U. after   11 cycles
 SCF Done:  E(RB3LYP) =  -800.497975278     A.U. after   10 cycles
 SCF Done:  E(RB3LYP) =  -800.497976716     A.U. after    8 cycles
 Optimization completed.
    -- Stationary point found.
 Normal termination of Gaussian 16 at Fri Dec 11 22:10:06 2020.

 --------------------------------------------------------------------
 #N Geom=AllCheck Guess=TCheck SCRF=Check GenChk RB3LYP/6-31G(d) Freq
 --------------------------------------------------------------------

 Structure from the checkpoint file:  "JID_8829.chk"
 -------------------------------
 CID_117136537_JID_8829_neutraal
 -------------------------------
 Charge =  0 Multiplicity = 1

 SCF Done:  E(RB3LYP) =  -800.497976716     A.U. after    1 cycles

  Exact polarizability: 215.594   3.707 169.663   4.597  -4.703 110.434
 Approx polarizability: 309.585   4.458 277.891  10.712 -14.944 160.396

                      1                      2                      3
                      A                      A                      A
 Frequencies --     21.1374                57.5368                76.3780
 Red. masses --      4.1171                 3.7220                 3.7496
 Frc consts  --      0.0011                 0.0073                 0.0129
 IR Inten    --      0.2504                 1.9680                 0.3219

                      4                      5                      6
                      A                      A                      A
 Frequencies --     95.3637               132.1779               158.0705
 Red. masses --      3.5731                 3.1189                 3.8622
 Frc consts  --      0.0191                 0.0321                 0.0569
 IR Inten    --      3.2412                 1.1864                 0.8805

                      7                      8                      9
                      A                      A                      A
 Frequencies --    175.8328               212.6181               237.6037
 Red. masses --      3.1626                 3.7840                 1.5153
 Frc consts  --      0.0576                 0.1008                 0.0504
 IR Inten    --      1.4292                 0.0312                 0.1587

                     10                     11                     12
                      A                      A                      A
 Frequencies --    244.5017               254.6004               274.9704
 Red. masses --      1.4926                 2.2665                 2.3248
 Frc consts  --      0.0526                 0.0866                 0.1036
 IR Inten    --      0.8458                 0.2156                 1.3057

                     13                     14                     15
                      A                      A                      A
 Frequencies --    297.3152               322.1078               349.4571
 Red. masses --      2.3697                 2.5306                 2.7625
 Frc consts  --      0.1234                 0.1547                 0.1988
 IR Inten    --      1.4349                 3.0424                 4.1495

                     16                     17                     18
                      A                      A                      A
 Frequencies --    375.0381               381.6022               428.5003
 Red. masses --      3.1267                 2.6159                 3.3633
 Frc consts  --      0.2591                 0.2244                 0.3638
 IR Inten    --      2.1142                 5.7746                 2.9058

                     19                     20                     21
                      A                      A                      A
 Frequencies --    464.2823               497.1076               509.2743
 Red. masses --      4.3222                 3.3715                 7.5805
 Frc consts  --      0.5489                 0.4909                 1.1584
 IR Inten    --      3.8287                 3.6372                 3.8594

                     22                     23                     24
                      A                      A                      A
 Frequencies --    554.4219               568.9338               593.9035
 Red. masses --      2.6030                 4.0229                 3.8241
 Frc consts  --      0.4714                 0.7672                 0.7947
 IR Inten    --      1.1547                 0.6615                 4.1774

                     25                     26                     27
                      A                      A                      A
 Frequencies --    605.0008               661.8168               724.0265
 Red. masses --      5.2013                 4.7879                 4.8708
 Frc consts  --      1.1217                 1.2356                 1.5044
 IR Inten    --      0.3985                 1.5569                 9.7117

                     28                     29                     30
                      A                      A                      A
 Frequencies --    732.0158               762.7801               774.4637
 Red. masses --      3.0642                 1.9455                 3.6164
 Frc consts  --      0.9674                 0.6669                 1.2780
 IR Inten    --     15.7312                41.1912                 2.2015

                     31                     32                     33
                      A                      A                      A
 Frequencies --    791.2738               801.0098               855.6459
 Red. masses --      3.5056                 4.1111                 1.6195
 Frc consts  --      1.2932                 1.5541                 0.6986
 IR Inten    --     16.9737                 1.6848                11.4214

                     34                     35                     36
                      A                      A                      A
 Frequencies --    858.9981               873.6760               911.7246
 Red. masses --      1.4101                 2.6883                 4.1557
 Frc consts  --      0.6130                 1.2090                 2.0353
 IR Inten    --      5.0023                 1.5737                 3.6933

                     37                     38                     39
                      A                      A                      A
 Frequencies --    927.5381               928.2370               951.9890
 Red. masses --      2.2753                 1.3051                 1.5899
 Frc consts  --      1.1533                 0.6626                 0.8489
 IR Inten    --      7.2683                 1.5658                 1.4394

                     40                     41                     42
                      A                      A                      A
 Frequencies --   1007.3116              1017.6416              1043.1781
 Red. masses --      3.3220                 7.5667                 3.3216
 Frc consts  --      1.9860                 4.6169                 2.1297
 IR Inten    --      9.9766                13.2836                 4.9572

                     43                     44                     45
                      A                      A                      A
 Frequencies --   1055.8940              1069.2644              1100.2439
 Red. masses --      1.8100                 2.0308                 1.9274
 Frc consts  --      1.1890                 1.3680                 1.3747
 IR Inten    --     19.2889                 2.1489                12.3139

                     46                     47                     48
                      A                      A                      A
 Frequencies --   1112.8711              1133.5708              1139.8022
 Red. masses --      1.7962                 2.1315                 2.1620
 Frc consts  --      1.3107                 1.6137                 1.6549
 IR Inten    --      4.3774                24.0887                86.8021

                     49                     50                     51
                      A                      A                      A
 Frequencies --   1159.1368              1179.6776              1184.3492
 Red. masses --      1.4345                 1.4817                 2.2663
 Frc consts  --      1.1356                 1.2149                 1.8729
 IR Inten    --     37.6505                 7.0972                19.7812

                     52                     53                     54
                      A                      A                      A
 Frequencies --   1186.0094              1206.2623              1225.3183
 Red. masses --      1.2717                 1.6549                 1.4812
 Frc consts  --      1.0539                 1.4187                 1.3103
 IR Inten    --      0.8734                17.2655                 3.1042

                     55                     56                     57
                      A                      A                      A
 Frequencies --   1228.9568              1258.2526              1294.2921
 Red. masses --      1.4878                 3.4400                 1.5703
 Frc consts  --      1.3239                 3.2088                 1.5499
 IR Inten    --      2.2581                14.5987                18.3155

                     58                     59                     60
                      A                      A                      A
 Frequencies --   1310.8370              1324.1509              1330.3541
 Red. masses --      2.0039                 1.6876                 3.4546
 Frc consts  --      2.0288                 1.7434                 3.6023
 IR Inten    --     27.4973                27.2517               161.4698

                     61                     62                     63
                      A                      A                      A
 Frequencies --   1336.9515              1365.7260              1370.1574
 Red. masses --      1.3611                 1.9810                 3.5108
 Frc consts  --      1.4335                 2.1770                 3.8832
 IR Inten    --     18.7641                47.9343                23.8975

                     64                     65                     66
                      A                      A                      A
 Frequencies --   1380.8290              1391.2787              1408.0156
 Red. masses --      1.6502                 1.6022                 1.4686
 Frc consts  --      1.8538                 1.8272                 1.7154
 IR Inten    --     23.9843                42.3362                 3.1700

                     67                     68                     69
                      A                      A                      A
 Frequencies --   1412.3773              1425.9315              1432.7622
 Red. masses --      1.4236                 2.3013                 1.5744
 Frc consts  --      1.6732                 2.7569                 1.9041
 IR Inten    --      9.5796                19.9020                19.6209

                     70                     71                     72
                      A                      A                      A
 Frequencies --   1473.8859              1485.9574              1492.5140
 Red. masses --      2.9846                 1.1999                 1.8695
 Frc consts  --      3.8201                 1.5611                 2.4536
 IR Inten    --      7.7163                 0.7861                22.5881

                     73                     74                     75
                      A                      A                      A
 Frequencies --   1503.9629              1508.2701              1513.5127
 Red. masses --      1.1931                 1.8444                 1.0583
 Frc consts  --      1.5900                 2.4721                 1.4284
 IR Inten    --      1.0226                 1.1043                16.5528

                     76                     77                     78
                      A                      A                      A
 Frequencies --   1514.0021              1520.5887              1525.2915
 Red. masses --      1.0928                 1.0473                 1.0960
 Frc consts  --      1.4759                 1.4267                 1.5024
 IR Inten    --      1.1518                 6.4344                 9.5648

                     79                     80                     81
                      A                      A                      A
 Frequencies --   1532.9736              1534.0265              1544.9447
 Red. masses --      1.0635                 1.1273                 1.1053
 Frc consts  --      1.4725                 1.5630                 1.5544
 IR Inten    --     32.9448                 9.0833                19.8946

                     82                     83                     84
                      A                      A                      A
 Frequencies --   1559.0856              1612.4744              1687.9515
 Red. masses --      3.9402                 4.8778                 6.9277
 Frc consts  --      5.6429                 7.4724                11.6295
 IR Inten    --     61.3150               155.1207                11.2013

                     85                     86                     87
                      A                      A                      A
 Frequencies --   2958.4108              2984.4959              3031.3301
 Red. masses --      1.0591                 1.0697                 1.0347
 Frc consts  --      5.4615                 5.6137                 5.6019
 IR Inten    --     63.7152                40.6529                53.4562

                     88                     89                     90
                      A                      A                      A
 Frequencies --   3035.5309              3042.9660              3053.3785
 Red. masses --      1.0632                 1.0635                 1.0667
 Frc consts  --      5.7720                 5.8022                 5.8595
 IR Inten    --     20.0286                12.7444                72.0834

                     91                     92                     93
                      A                      A                      A
 Frequencies --   3062.0845              3065.9526              3072.4480
 Red. masses --      1.0883                 1.0834                 1.0733
 Frc consts  --      6.0124                 6.0002                 5.9696
 IR Inten    --     69.5332                18.7762                76.9059

                     94                     95                     96
                      A                      A                      A
 Frequencies --   3080.6107              3087.4271              3092.5576
 Red. masses --      1.1020                 1.1030                 1.1069
 Frc consts  --      6.1620                 6.1948                 6.2373
 IR Inten    --     34.2332                26.8944                37.4135

                     97                     98                     99
                      A                      A                      A
 Frequencies --   3113.6592              3117.8181              3172.2748
 Red. masses --      1.0991                 1.1035                 1.1001
 Frc consts  --      6.2781                 6.3202                 6.5225
 IR Inten    --     39.2520                31.6034                16.3798

                    100                    101                    102
                      A                      A                      A
 Frequencies --   3226.7189              3242.7047              3273.6358
 Red. masses --      1.0887                 1.0918                 1.0960
 Frc consts  --      6.6786                 6.7641                 6.9200
 IR Inten    --      7.6347                 4.6298                 2.3532

 - Thermochemistry -
 -------------------
 Temperature   298.150 Kelvin.  Pressure   1.00000 Atm.
 Atom     1 has atomic number  6 and mass  12.00000

 Molecular mass:   246.14806 amu.
 Principal axes and moments of inertia in atomic units:
                           1         2         3
     Eigenvalues --  2437.308316465.982107695.35161
           X            0.99999  -0.00405   0.00107
           Y            0.00404   0.99993   0.01141
           Z           -0.00112  -0.01141   0.99993
 This molecule is an asymmetric top.
 Rotational symmetry number  1.
 Warning -- assumption of classical behavior for rotation
           may cause significant error
 Rotational temperatures (Kelvin)      0.03554     0.01340     0.01126
 Rotational constants (GHZ):           0.74046     0.27911     0.23452
 Zero-point vibrational energy     809021.2 (Joules/Mol)
                                  193.36071 (Kcal/Mol)
 Warning -- explicit consideration of  25 degrees of freedom as
           vibrations may cause significant error
 Vibrational temperatures:     30.41    82.78   109.89   137.21   190.17
          (Kelvin)            227.43   252.98   305.91   341.86   351.78
                              366.31   395.62   427.77   463.44   502.79
                              539.60   549.04   616.52   668.00   715.23
                              732.73   797.69   818.57   854.49   870.46
                              952.21  1041.71  1053.21  1097.47  1114.28
                             1138.47  1152.47  1231.08  1235.91  1257.02
                             1311.77  1334.52  1335.53  1369.70  1449.30
                             1464.16  1500.90  1519.20  1538.43  1583.01
                             1601.17  1630.96  1639.92  1667.74  1697.29
                             1704.01  1706.40  1735.54  1762.96  1768.19
                             1810.34  1862.20  1886.00  1905.16  1914.08
                             1923.57  1964.98  1971.35  1986.70  2001.74
                             2025.82  2032.10  2051.60  2061.43  2120.59
                             2137.96  2147.39  2163.87  2170.06  2177.61
                             2178.31  2187.79  2194.55  2205.61  2207.12
                             2222.83  2243.18  2319.99  2428.59  4256.49
                             4294.02  4361.41  4367.45  4378.15  4393.13
                             4405.66  4411.22  4420.57  4432.31  4442.12
                             4449.50  4479.86  4485.84  4564.20  4642.53
                             4665.53  4710.03

 Zero-point correction=                           0.308140 (Hartree/Particle)
 Thermal correction to Energy=                    0.323702
 Thermal correction to Enthalpy=                  0.324646
 Thermal correction to Gibbs Free Energy=         0.264823
 Sum of electronic and zero-point Energies=           -800.189837
 Sum of electronic and thermal Energies=              -800.174275
 Sum of electronic and thermal Enthalpies=            -800.173331
 Sum of electronic and thermal Free Energies=         -800.233153

                     E (Thermal)             CV                S
                      KCal/Mol        Cal/Mol-Kelvin    Cal/Mol-Kelvin
 Total                  203.126             61.422            125.907
 Electronic               0.000              0.000              0.000
 Translational            0.889              2.981             42.403
 Rotational               0.889              2.981             33.161
 Vibrational            201.348             55.460             50.343
 Vibration     1          0.593              1.985              6.524
 Vibration     2          0.596              1.974              4.540
 Vibration     3          0.599              1.965              3.982
 Vibration     4          0.603              1.953              3.547
 Vibration     5          0.612              1.921              2.914
 Vibration     6          0.621              1.894              2.573
 Vibration     7          0.628              1.872              2.372
 Vibration     8          0.644              1.822              2.021
 Vibration     9          0.656              1.783              1.821
 Vibration    10          0.660              1.772              1.770
 Vibration    11          0.665              1.755              1.699
 Vibration    12          0.677              1.720              1.565
 Vibration    13          0.691              1.679              1.432
 Vibration    14          0.707              1.631              1.299
 Vibration    15          0.727              1.576              1.169
 Vibration    16          0.746              1.523              1.059
 Vibration    17          0.751              1.509              1.033
 Vibration    18          0.790              1.408              0.864
 Vibration    19          0.822              1.329              0.754
 Vibration    20          0.853              1.256              0.665
 Vibration    21          0.864              1.229              0.635
 Vibration    22          0.910              1.130              0.535
 Vibration    23          0.925              1.098              0.506
 Vibration    24          0.952              1.045              0.460
 Vibration    25          0.964              1.021              0.441

                           ! Non-Optimized Parameters !
 Normal termination of Gaussian 16 at Fri Dec 11 22:26:08 2020.

 ----------------------------------------------------------------------
 # B3LYP/6-311++G(d,p) empiricaldispersion=gd3bj scf=xqc pop=npa geom=c
 heck
 ----------------------------------------------------------------------

 ---------------------------------------
 CID_117136537_JID_8829_Energie_neutraal
 ---------------------------------------
 Structure from the checkpoint file:  "JID_8829.chk"
 Charge =  0 Multiplicity = 1

 SCF Done:  E(RB3LYP) =  -800.707657485     A.U. after   15 cycles
 Normal termination of Gaussian 16 at Fri Dec 11 22:33:21 2020.

 ----------------------------------------------------------------------
 # B3LYP/6-311++G(d,p) empiricaldispersion=gd3bj scf=xqc pop=npa geom=c
 heck
 ----------------------------------------------------------------------

 -------------------------------------
 CID_117136537_JID_8829_Energie_kation
 -------------------------------------
 Structure from the checkpoint file:  "JID_8829.chk"
 Charge =  1 Multiplicity = 2

 SCF Done:  E(UB3LYP) =  -800.434672947     A.U. after   24 cycles
 Normal termination of Gaussian 16 at Fri Dec 11 22:49:37 2020.
 Gaussian 16:  ES64L-G16RevA.03 25-Dec-2016

 ----------------------------------------------------------------------
 # B3LYP/6-311++G(d,p) empiricaldispersion=gd3bj scf=xqc pop=npa geom=c
 heck
 ----------------------------------------------------------------------

 ------------------------------------
 CID_117136537_JID_8829_Energie_anion
 ------------------------------------
 Structure from the checkpoint file:  "JID_8829.chk"
 Charge = -1 Multiplicity = 2

                         Standard orientation:
 ---------------------------------------------------------------------
 Center     Atomic      Atomic             Coordinates (Angstroms)
 Number     Number       Type             X           Y           Z
 ---------------------------------------------------------------------
      1          6           0        2.458336   -1.464710   -1.836330
      2          7           0        2.873702   -0.577508   -0.762243
      3          6           0        2.839001    0.830711   -1.168963
      4          6           0        3.453715    1.723420   -0.090460
      5          6           0        2.746093    1.520091    1.253055
      6          6           0        2.751604    0.033187    1.623599
      7          6           0        2.179773   -0.857061    0.505396
      8          6           0        0.673264   -0.779489    0.404814
      9          7           0       -0.062598   -1.899306    0.467285
     10          7           0       -1.326247   -1.432359    0.293161
     11          6           0       -2.468649   -2.185089    0.277598
     12          6           0       -3.652076   -1.530686    0.086340
     13          6           0       -3.694315   -0.119643   -0.089580
     14          6           0       -2.530284    0.623982   -0.070723
     15          6           0       -1.295340   -0.058326    0.128387
     16          7           0       -0.031688    0.365922    0.196505
     17          8           0       -2.424560    1.962174   -0.224282
     18          6           0       -3.625567    2.692643   -0.428133
     19          1           0        1.425099   -1.287482   -2.187949
     20          1           0        3.132341   -1.335105   -2.690626
     21          1           0        2.522907   -2.505117   -1.500239
     22          1           0        3.419190    0.912164   -2.096584
     23          1           0        1.812229    1.167668   -1.393079
     24          1           0        3.392107    2.771784   -0.407060
     25          1           0        4.517894    1.471364    0.010936
     26          1           0        1.713096    1.875248    1.180263
     27          1           0        3.242342    2.100514    2.040859
     28          1           0        2.188794   -0.144362    2.547548
     29          1           0        3.784555   -0.293399    1.798539
     30          1           0        2.396483   -1.902516    0.753146
     31          1           0       -2.340829   -3.249184    0.419005
     32          1           0       -4.573944   -2.100289    0.069000
     33          1           0       -4.653149    0.360660   -0.238185
     34          1           0       -4.137790    2.367505   -1.342738
     35          1           0       -4.305468    2.585781    0.426788
     36          1           0       -3.324882    3.735940   -0.528322
 ---------------------------------------------------------------------

 SCF Done:  E(UB3LYP) =  -800.698367296     A.U. after   33 cycles
 SCF Done:  E(UB3LYP) =  -800.698367296     a.u. after    1 cycles

 The electronic state is 2-A.
 Alpha  occ. eigenvalues --  -19.05084 -14.30145 -14.22843 -14.21462 -14.19166
 Alpha  occ. eigenvalues --  -10.13353 -10.13160 -10.11923 -10.11532 -10.11267
 Alpha  occ. eigenvalues --  -10.10374 -10.09752 -10.09639 -10.07825 -10.07792
 Alpha  occ. eigenvalues --  -10.07676 -10.07080 -10.06868  -0.97919  -0.96734
 Alpha  occ. eigenvalues --   -0.84172  -0.80928  -0.76717  -0.70829  -0.68951
 Alpha  occ. eigenvalues --   -0.66815  -0.65431  -0.60894  -0.60272  -0.55617
 Alpha  occ. eigenvalues --   -0.53434  -0.52946  -0.51242  -0.50222  -0.44751
 Alpha  occ. eigenvalues --   -0.43009  -0.41756  -0.40934  -0.39248  -0.38676
 Alpha  occ. eigenvalues --   -0.38021  -0.36927  -0.36176  -0.35603  -0.35034
 Alpha  occ. eigenvalues --   -0.33863  -0.32972  -0.31470  -0.30499  -0.29874
 Alpha  occ. eigenvalues --   -0.29746  -0.28679  -0.27667  -0.26558  -0.25967
 Alpha  occ. eigenvalues --   -0.24599  -0.24048  -0.23602  -0.22888  -0.22626
 Alpha  occ. eigenvalues --   -0.22056  -0.18859  -0.17499  -0.15463  -0.12582
 Alpha  occ. eigenvalues --   -0.11214   0.04552
 Alpha virt. eigenvalues --    0.06300   0.06757   0.07326   0.07558   0.08121
 Alpha virt. eigenvalues --    0.08837   0.09308   0.09505   0.10029   0.10233
 Alpha virt. eigenvalues --    0.10428   0.10653   0.11659   0.12043   0.12413

  Beta  occ. eigenvalues --  -19.05038 -14.30009 -14.22851 -14.21460 -14.19126
  Beta  occ. eigenvalues --  -10.13368 -10.13025 -10.11916 -10.11479 -10.11267
  Beta  occ. eigenvalues --  -10.10246 -10.09751 -10.09638 -10.07822 -10.07801
  Beta  occ. eigenvalues --  -10.07674 -10.07079 -10.06779  -0.97783  -0.96616
  Beta  occ. eigenvalues --   -0.84153  -0.80812  -0.76633  -0.70823  -0.68859
  Beta  occ. eigenvalues --   -0.66670  -0.65315  -0.60813  -0.60210  -0.55579
  Beta  occ. eigenvalues --   -0.53363  -0.52927  -0.51060  -0.50178  -0.44710
  Beta  occ. eigenvalues --   -0.42922  -0.41676  -0.40845  -0.39196  -0.38495
  Beta  occ. eigenvalues --   -0.37889  -0.36824  -0.36096  -0.35515  -0.34930
  Beta  occ. eigenvalues --   -0.33832  -0.32924  -0.31457  -0.30449  -0.29822
  Beta  occ. eigenvalues --   -0.29731  -0.28601  -0.27643  -0.26511  -0.25638
  Beta  occ. eigenvalues --   -0.24473  -0.23843  -0.23518  -0.22869  -0.22581
  Beta  occ. eigenvalues --   -0.22023  -0.18609  -0.17456  -0.15221  -0.12557
  Beta  occ. eigenvalues --   -0.10615
  Beta virt. eigenvalues --    0.06185   0.07358   0.07553   0.07762   0.08118
  Beta virt. eigenvalues --    0.08470   0.09025   0.09424   0.09714   0.10034
  Beta virt. eigenvalues --    0.10621   0.10865   0.11102   0.11770   0.12133

 Mulliken charges and spin densities:
               1          2
     1  C   -0.215335  -0.015016
     2  N    0.087141   0.004215
     3  C   -0.227179   0.005159
     4  C   -0.496387  -0.082174
     5  C   -0.267910   0.014287
     6  C   -0.390026  -0.054130
     7  C   -0.123342   0.037957
     8  C   -0.730565   0.019795
     9  N    0.187385   0.032116
    10  N   -0.004429   0.016087
    11  C    0.444133  -0.209912
    12  C    0.488571  -1.168368
    13  C    0.642262  -0.232156
    14  C   -0.838976   0.515996
    15  C    0.032661  -0.024138
    16  N    0.024051   0.044588
    17  O   -0.214247   0.064520
    18  C    1.301378  -1.564819
    19  H    0.140922   0.019935
    20  H    0.134052   0.005613
    21  H    0.113002   0.004208
    22  H    0.094657   0.032790
    23  H    0.183638  -0.002571
    24  H    0.105605   0.034885
    25  H    0.116900  -0.000246
    26  H    0.226783  -0.027305
    27  H    0.112470   0.036438
    28  H    0.110649   0.041658
    29  H    0.126817   0.013896
    30  H    0.218902   0.023795
    31  H    0.092874   0.065415
    32  H   -0.785317   0.960826
    33  H   -0.540173   0.757682
    34  H   -0.373429   0.528420
    35  H   -0.389911   0.546283
    36  H   -0.387626   0.554273
 Sum of Mulliken charges =  -1.00000   1.00000

 Dipole moment (field-independent basis, Debye):
    X=             12.3032    Y=             -2.1716    Z=              0.5498  Tot=             12.5054
 Quadrupole moment (field-independent basis, Debye-Ang):
   XX=           -208.5920   YY=           -151.8243   ZZ=           -130.4694
   XY=             11.6410   XZ=             -6.0980   YZ=              4.0167

 Summary of Natural Population Analysis:

                                       Natural Population
                Natural  -----------------------------------------------
    Atom  No    Charge         Core      Valence    Rydberg      Total
 -----------------------------------------------------------------------
      C    1   -0.17593      0.99966     2.16928    0.00699     3.17593
      N    2   -0.28015      0.99972     2.76701    0.01343     3.78015
      C    3   -0.08796      0.99962     2.07826    0.01008     3.08796
      C    4   -0.19198      0.99963     2.18416    0.00818     3.19198
      C    5   -0.19757      0.99963     2.19008    0.00786     3.19757
      C    6   -0.18584      0.99962     2.17780    0.00842     3.18584
      C    7   -0.02169      0.99953     2.00860    0.01356     3.02169
      C    8    0.17360      0.99962     1.80646    0.02033     2.82640
      N    9   -0.17985      0.99970     2.66931    0.01084     3.67985
      N   10   -0.07607      0.99960     2.56462    0.01186     3.57607
      C   11    0.02347      0.99955     1.96470    0.01228     2.97653
      C   12   -0.11861      0.99958     2.10838    0.01064     3.11861
      C   13   -0.13059      0.99954     2.12095    0.01010     3.13059
      C   14    0.17101      0.99936     1.81583    0.01380     2.82899
      C   15    0.16509      0.99955     1.81815    0.01720     2.83491
      N   16   -0.27265      0.99967     2.76372    0.00926     3.77265
      O   17   -0.25740      0.99986     3.24801    0.00953     4.25740
      C   18   -0.10103      0.99960     2.09243    0.00900     3.10103
      H   19    0.08593      0.00000     0.41241    0.00166     0.41407
      H   20    0.08998      0.00000     0.40899    0.00102     0.41002
      H   21    0.09537      0.00000     0.40369    0.00095     0.40463
      H   22    0.08996      0.00000     0.40867    0.00137     0.41004
      H   23    0.09536      0.00000     0.40265    0.00199     0.40464
      H   24    0.09744      0.00000     0.40145    0.00110     0.40256
      H   25    0.09075      0.00000     0.40754    0.00172     0.40925
      H   26    0.11310      0.00000     0.38533    0.00157     0.38690
      H   27    0.09313      0.00000     0.40579    0.00108     0.40687
      H   28    0.10257      0.00000     0.39648    0.00096     0.39743
      H   29    0.09451      0.00000     0.40377    0.00172     0.40549
      H   30    0.10488      0.00000     0.39340    0.00172     0.39512
      H   31    0.10361      0.00000     0.39521    0.00119     0.39639
      H   32    0.10817      0.00000     0.39003    0.00180     0.39183
      H   33    0.11144      0.00000     0.38555    0.00301     0.38856
      H   34    0.08689      0.00000     0.41130    0.00181     0.41311
      H   35    0.08783      0.00000     0.40947    0.00270     0.41217
      H   36    0.09325      0.00000     0.40551    0.00125     0.40675
 =======================================================================
   * Total *    0.00000     17.99302    47.77501    0.23197    66.00000

 Normal termination of Gaussian 16 at Fri Dec 11 23:12:20 2020.
