 Gaussian 16, Revision A.03,

 -----------------------------------------------------------
 # opt freq B3LYP/6-31G(d) empiricaldispersion=gd3bj scf=xqc
 -----------------------------------------------------------

 -------------------------------
 CID_139376924_JID_6980_neutraal
 -------------------------------
 Symbolic Z-matrix:
 Charge =  0 Multiplicity = 1

 SCF Done:  E(RB3LYP) =  -1053.48813048     A.U. after   15 cycles
 SCF Done:  E(RB3LYP) =  -1053.49550429     A.U. after   13 cycles
 SCF Done:  E(RB3LYP) =  -1053.49699135     A.U. after   12 cycles
 SCF Done:  E(RB3LYP) =  -1053.49744237     A.U. after   12 cycles
 SCF Done:  E(RB3LYP) =  -1053.49765908     A.U. after   12 cycles
 SCF Done:  E(RB3LYP) =  -1053.49794158     A.U. after   12 cycles
 SCF Done:  E(RB3LYP) =  -1053.49801499     A.U. after   11 cycles
 SCF Done:  E(RB3LYP) =  -1053.49803557     A.U. after   11 cycles
 SCF Done:  E(RB3LYP) =  -1053.49806050     A.U. after   10 cycles
 SCF Done:  E(RB3LYP) =  -1053.49807348     A.U. after   10 cycles
 SCF Done:  E(RB3LYP) =  -1053.49808061     A.U. after    8 cycles
 SCF Done:  E(RB3LYP) =  -1053.49808068     A.U. after    8 cycles
 SCF Done:  E(RB3LYP) =  -1053.49808080     A.U. after    8 cycles
 SCF Done:  E(RB3LYP) =  -1053.49808085     A.U. after    8 cycles
 SCF Done:  E(RB3LYP) =  -1053.49808086     A.U. after    7 cycles
 SCF Done:  E(RB3LYP) =  -1053.49808089     A.U. after    7 cycles
 Optimization completed.
    -- Stationary point found.
 Normal termination of Gaussian 16 at Fri Dec 11 00:26:07 2020.

 --------------------------------------------------------------------
 #N Geom=AllCheck Guess=TCheck SCRF=Check GenChk RB3LYP/6-31G(d) Freq
 --------------------------------------------------------------------

 Structure from the checkpoint file:  "JID_6980.chk"
 -------------------------------
 CID_139376924_JID_6980_neutraal
 -------------------------------
 Charge =  0 Multiplicity = 1

 SCF Done:  E(RB3LYP) =  -1053.49808089     A.U. after    1 cycles

  Exact polarizability: 201.674  -4.772 165.408   1.852   2.305 124.957
 Approx polarizability: 321.934 -14.276 223.794   3.885   6.041 184.398

                      1                      2                      3
                      A                      A                      A
 Frequencies --     20.5728                41.3962                44.8602
 Red. masses --      2.8674                 3.2515                 3.9442
 Frc consts  --      0.0007                 0.0033                 0.0047
 IR Inten    --      0.6079                 0.3367                 0.6044

                      4                      5                      6
                      A                      A                      A
 Frequencies --     62.4240                95.4293               103.6795
 Red. masses --      4.4702                 2.7744                 2.8523
 Frc consts  --      0.0103                 0.0149                 0.0181
 IR Inten    --      0.7582                 0.7548                 0.3125

                      7                      8                      9
                      A                      A                      A
 Frequencies --    111.0577               130.7553               140.6068
 Red. masses --      2.5346                 2.5926                 2.0682
 Frc consts  --      0.0184                 0.0261                 0.0241
 IR Inten    --      0.5219                 1.7118                 1.6071

                     10                     11                     12
                      A                      A                      A
 Frequencies --    167.6050               177.2374               187.8614
 Red. masses --      2.8685                 2.6848                 2.3451
 Frc consts  --      0.0475                 0.0497                 0.0488
 IR Inten    --      1.8335                 9.0586                 2.1008

                     13                     14                     15
                      A                      A                      A
 Frequencies --    206.8033               222.6520               258.8953
 Red. masses --      2.0661                 1.4335                 1.9125
 Frc consts  --      0.0521                 0.0419                 0.0755
 IR Inten    --      0.9811                 0.4374                 3.0966

                     16                     17                     18
                      A                      A                      A
 Frequencies --    278.9341               288.9546               297.9130
 Red. masses --      1.6584                 2.1411                 1.8253
 Frc consts  --      0.0760                 0.1053                 0.0954
 IR Inten    --      0.6533                 0.4283                 0.0453

                     19                     20                     21
                      A                      A                      A
 Frequencies --    328.0891               375.9629               396.9511
 Red. masses --      2.4774                 3.9042                 2.9907
 Frc consts  --      0.1571                 0.3251                 0.2776
 IR Inten    --      0.5444                 2.3945                 3.0376

                     22                     23                     24
                      A                      A                      A
 Frequencies --    411.5158               441.3829               465.5974
 Red. masses --      3.3204                 3.2426                 3.1249
 Frc consts  --      0.3313                 0.3722                 0.3991
 IR Inten    --      9.1766                 9.6642                 0.9673

                     25                     26                     27
                      A                      A                      A
 Frequencies --    505.1071               550.0517               593.7778
 Red. masses --      4.2315                 4.9905                 3.1297
 Frc consts  --      0.6361                 0.8896                 0.6501
 IR Inten    --      4.5642                13.1214                 9.5647

                     28                     29                     30
                      A                      A                      A
 Frequencies --    602.7231               646.0900               693.3045
 Red. masses --      3.6683                 4.3311                 3.2251
 Frc consts  --      0.7852                 1.0652                 0.9134
 IR Inten    --      9.3021                 5.8719                12.1733

                     31                     32                     33
                      A                      A                      A
 Frequencies --    752.1058               785.9246               789.4651
 Red. masses --      1.3377                 2.3670                 1.2220
 Frc consts  --      0.4458                 0.8614                 0.4487
 IR Inten    --     80.4794                13.0479                 1.5769

                     34                     35                     36
                      A                      A                      A
 Frequencies --    798.0383               799.6625               829.0032
 Red. masses --      1.4209                 1.3980                 3.7247
 Frc consts  --      0.5332                 0.5267                 1.5082
 IR Inten    --      4.8299                21.0374                 3.1734

                     37                     38                     39
                      A                      A                      A
 Frequencies --    860.7906               880.6404               886.3252
 Red. masses --      2.4305                 1.8370                 2.3588
 Frc consts  --      1.0611                 0.8394                 1.0918
 IR Inten    --      1.4351                 1.0965                 2.5131

                     40                     41                     42
                      A                      A                      A
 Frequencies --    930.4439               932.8416               949.5175
 Red. masses --      1.6555                 1.4777                 2.1419
 Frc consts  --      0.8444                 0.7576                 1.1378
 IR Inten    --      1.2041                 1.1247                 7.6109

                     43                     44                     45
                      A                      A                      A
 Frequencies --    971.8331              1016.4212              1052.6600
 Red. masses --      2.9587                 2.9539                 2.0958
 Frc consts  --      1.6464                 1.7980                 1.3683
 IR Inten    --      1.4331                 5.2502                24.9101

                     46                     47                     48
                      A                      A                      A
 Frequencies --   1091.3532              1097.3903              1107.4648
 Red. masses --      2.1915                 2.4571                 2.3663
 Frc consts  --      1.5379                 1.7434                 1.7099
 IR Inten    --      2.9394                16.0567                37.0491

                     49                     50                     51
                      A                      A                      A
 Frequencies --   1123.9418              1135.7205              1142.7493
 Red. masses --      1.7862                 1.6551                 1.7908
 Frc consts  --      1.3295                 1.2579                 1.3778
 IR Inten    --     31.2524                24.9237                15.1137

                     52                     53                     54
                      A                      A                      A
 Frequencies --   1169.4075              1197.3398              1223.2036
 Red. masses --      1.2257                 2.1504                 1.1200
 Frc consts  --      0.9876                 1.8163                 0.9873
 IR Inten    --     33.5483                29.4435                13.6865

                     55                     56                     57
                      A                      A                      A
 Frequencies --   1238.9691              1255.9328              1260.6755
 Red. masses --      2.8284                 1.8199                 1.4302
 Frc consts  --      2.5580                 1.6914                 1.3392
 IR Inten    --     35.8254                29.9959                29.2891

                     58                     59                     60
                      A                      A                      A
 Frequencies --   1284.5393              1301.5803              1321.0616
 Red. masses --      1.2339                 1.3900                 1.2073
 Frc consts  --      1.1996                 1.3874                 1.2414
 IR Inten    --     24.9391                66.4841                 2.1682

                     61                     62                     63
                      A                      A                      A
 Frequencies --   1347.4536              1361.8494              1377.6687
 Red. masses --      1.3141                 1.9717                 1.4591
 Frc consts  --      1.4058                 2.1545                 1.6316
 IR Inten    --     36.7618                33.2026                95.4215

                     64                     65                     66
                      A                      A                      A
 Frequencies --   1400.1020              1402.7994              1418.2236
 Red. masses --      1.4433                 1.2460                 1.2885
 Frc consts  --      1.6669                 1.4447                 1.5270
 IR Inten    --      9.1014                 5.8606                 9.9128

                     67                     68                     69
                      A                      A                      A
 Frequencies --   1419.4210              1427.2155              1432.5639
 Red. masses --      1.7892                 1.5985                 1.4824
 Frc consts  --      2.1239                 1.9184                 1.7924
 IR Inten    --     16.2960                13.1961               118.9651

                     70                     71                     72
                      A                      A                      A
 Frequencies --   1439.5693              1448.6845              1471.8707
 Red. masses --      1.2745                 1.3143                 1.1260
 Frc consts  --      1.5562                 1.6251                 1.4373
 IR Inten    --     27.4773                 1.1888                 5.0579

                     73                     74                     75
                      A                      A                      A
 Frequencies --   1478.9368              1486.7993              1508.5185
 Red. masses --      1.9631                 1.2376                 1.0692
 Frc consts  --      2.5299                 1.6118                 1.4335
 IR Inten    --     79.8961                63.0738                 3.8952

                     76                     77                     78
                      A                      A                      A
 Frequencies --   1514.9155              1519.0294              1521.0357
 Red. masses --      1.0685                 1.0842                 1.0607
 Frc consts  --      1.4448                 1.4740                 1.4458
 IR Inten    --      7.2456                 5.0910                 0.9660

                     79                     80                     81
                      A                      A                      A
 Frequencies --   1525.4477              1527.4952              1532.8132
 Red. masses --      1.0462                 1.0617                 1.0730
 Frc consts  --      1.4343                 1.4595                 1.4853
 IR Inten    --      4.7757                 2.4531                 9.4940

                     82                     83                     84
                      A                      A                      A
 Frequencies --   1536.8501              1542.1730              1552.6409
 Red. masses --      1.0720                 1.0854                 1.0547
 Frc consts  --      1.4918                 1.5210                 1.4981
 IR Inten    --     12.6973                11.0429                 4.1881

                     85                     86                     87
                      A                      A                      A
 Frequencies --   1626.9473              1723.9400              2981.9382
 Red. masses --      3.8686                11.0983                 1.0738
 Frc consts  --      6.0332                19.4335                 5.6257
 IR Inten    --    478.4022               206.1424                69.6608

                     88                     89                     90
                      A                      A                      A
 Frequencies --   2991.8428              3012.0152              3032.2698
 Red. masses --      1.0716                 1.0668                 1.0689
 Frc consts  --      5.6514                 5.7023                 5.7903
 IR Inten    --     68.5881                46.7992                23.1284

                     91                     92                     93
                      A                      A                      A
 Frequencies --   3036.6034              3049.1545              3049.7296
 Red. masses --      1.0671                 1.0681                 1.0414
 Frc consts  --      5.7973                 5.8510                 5.7067
 IR Inten    --     24.6195                14.0811                42.6624

                     94                     95                     96
                      A                      A                      A
 Frequencies --   3053.6250              3054.5583              3067.2341
 Red. masses --      1.0369                 1.0426                 1.0961
 Frc consts  --      5.6967                 5.7312                 6.0754
 IR Inten    --     15.0147                38.8922                38.8791

                     97                     98                     99
                      A                      A                      A
 Frequencies --   3071.8632              3084.5415              3092.1358
 Red. masses --      1.0901                 1.0972                 1.0938
 Frc consts  --      6.0606                 6.1508                 6.1618
 IR Inten    --     25.2143                27.9365                 7.9101

                    100                    101                    102
                      A                      A                      A
 Frequencies --   3110.4013              3113.6653              3119.6474
 Red. masses --      1.0963                 1.0925                 1.1015
 Frc consts  --      6.2490                 6.2402                 6.3163
 IR Inten    --     60.5616                 9.9972                36.7184

                    103                    104                    105
                      A                      A                      A
 Frequencies --   3123.0608              3130.7526              3152.9644
 Red. masses --      1.0963                 1.1025                 1.0960
 Frc consts  --      6.2998                 6.3667                 6.4194
 IR Inten    --     34.9266                49.1950                 1.8267

                    106                    107                    108
                      A                      A                      A
 Frequencies --   3161.2741              3183.4103              3471.8374
 Red. masses --      1.1006                 1.0981                 1.0739
 Frc consts  --      6.4806                 6.5568                 7.6267
 IR Inten    --     17.6980                 3.0688                38.4453

 - Thermochemistry -
 -------------------
 Temperature   298.150 Kelvin.  Pressure   1.00000 Atm.
 Atom     1 has atomic number  6 and mass  12.00000

 Molecular mass:   242.14529 amu.
 Principal axes and moments of inertia in atomic units:
                           1         2         3
     Eigenvalues --  3590.553514664.366466964.29176
           X            0.99924  -0.03887  -0.00190
           Y            0.03884   0.99910  -0.01710
           Z            0.00256   0.01702   0.99985
 This molecule is an asymmetric top.
 Rotational symmetry number  1.
 Warning -- assumption of classical behavior for rotation
           may cause significant error
 Rotational temperatures (Kelvin)      0.02412     0.01857     0.01244
 Rotational constants (GHZ):           0.50264     0.38692     0.25914
 Zero-point vibrational energy     877608.5 (Joules/Mol)
                                  209.75346 (Kcal/Mol)
 Warning -- explicit consideration of  28 degrees of freedom as
           vibrations may cause significant error
 Vibrational temperatures:     29.60    59.56    64.54    89.81   137.30
          (Kelvin)            149.17   159.79   188.13   202.30   241.15
                              255.01   270.29   297.54   320.35   372.49
                              401.32   415.74   428.63   472.05   540.93
                              571.12   592.08   635.05   669.89   726.74
                              791.40   854.31   867.18   929.58   997.51
                             1082.11  1130.77  1135.86  1148.20  1150.54
                             1192.75  1238.49  1267.05  1275.22  1338.70
                             1342.15  1366.14  1398.25  1462.40  1514.54
                             1570.21  1578.90  1593.39  1617.10  1634.05
                             1644.16  1682.52  1722.70  1759.92  1782.60
                             1807.01  1813.83  1848.17  1872.68  1900.71
                             1938.69  1959.40  1982.16  2014.43  2018.32
                             2040.51  2042.23  2053.44  2061.14  2071.22
                             2084.33  2117.69  2127.86  2139.17  2170.42
                             2179.63  2185.54  2188.43  2194.78  2197.72
                             2205.38  2211.18  2218.84  2233.90  2340.81
                             2480.37  4290.34  4304.59  4333.62  4362.76
                             4369.00  4387.05  4387.88  4393.49  4394.83
                             4413.07  4419.73  4437.97  4448.89  4475.17
                             4479.87  4488.48  4493.39  4504.45  4536.41
                             4548.37  4580.22  4995.20

 Zero-point correction=                           0.334263 (Hartree/Particle)
 Thermal correction to Energy=                    0.352824
 Thermal correction to Enthalpy=                  0.353769
 Thermal correction to Gibbs Free Energy=         0.286431
 Sum of electronic and zero-point Energies=          -1053.163817
 Sum of electronic and thermal Energies=             -1053.145256
 Sum of electronic and thermal Enthalpies=           -1053.144312
 Sum of electronic and thermal Free Energies=        -1053.211650

                     E (Thermal)             CV                S
                      KCal/Mol        Cal/Mol-Kelvin    Cal/Mol-Kelvin
 Total                  221.401             67.991            141.724
 Electronic               0.000              0.000              0.000
 Translational            0.889              2.981             42.354
 Rotational               0.889              2.981             33.122
 Vibrational            219.623             62.029             66.248
 Vibration     1          0.593              1.986              6.578
 Vibration     2          0.594              1.981              5.191
 Vibration     3          0.595              1.979              5.032
 Vibration     4          0.597              1.972              4.379
 Vibration     5          0.603              1.952              3.546
 Vibration     6          0.605              1.946              3.384
 Vibration     7          0.607              1.940              3.250
 Vibration     8          0.612              1.923              2.935
 Vibration     9          0.615              1.913              2.796
 Vibration    10          0.624              1.882              2.462
 Vibration    11          0.628              1.870              2.357
 Vibration    12          0.633              1.857              2.249
 Vibration    13          0.641              1.830              2.072
 Vibration    14          0.648              1.807              1.937
 Vibration    15          0.668              1.748              1.669
 Vibration    16          0.679              1.713              1.540
 Vibration    17          0.686              1.694              1.480
 Vibration    18          0.691              1.678              1.429
 Vibration    19          0.711              1.619              1.269
 Vibration    20          0.747              1.521              1.055
 Vibration    21          0.763              1.477              0.974
 Vibration    22          0.775              1.445              0.921
 Vibration    23          0.801              1.380              0.822
 Vibration    24          0.823              1.326              0.750
 Vibration    25          0.860              1.239              0.645
 Vibration    26          0.905              1.140              0.544
 Vibration    27          0.951              1.045              0.460
 Vibration    28          0.961              1.026              0.445

 Optimization completed.
    -- Stationary point found.
 Normal termination of Gaussian 16 at Fri Dec 11 00:40:27 2020.

 ----------------------------------------------------------------------
 # B3LYP/6-311++G(d,p) empiricaldispersion=gd3bj scf=xqc pop=npa geom=c
 heck
 ----------------------------------------------------------------------

 ---------------------------------------
 CID_139376924_JID_6980_Energie_neutraal
 ---------------------------------------
 Structure from the checkpoint file:  "JID_6980.chk"
 Charge =  0 Multiplicity = 1

 SCF Done:  E(RB3LYP) =  -1053.70895064     A.U. after   18 cycles
 Normal termination of Gaussian 16 at Fri Dec 11 00:48:38 2020.

 ----------------------------------------------------------------------
 # B3LYP/6-311++G(d,p) empiricaldispersion=gd3bj scf=xqc pop=npa geom=c
 heck
 ----------------------------------------------------------------------

 -------------------------------------
 CID_139376924_JID_6980_Energie_kation
 -------------------------------------
 Structure from the checkpoint file:  "JID_6980.chk"
 Charge =  1 Multiplicity = 2

 SCF Done:  E(UB3LYP) =  -1053.44646930     A.U. after   30 cycles
 Normal termination of Gaussian 16 at Fri Dec 11 01:07:34 2020.
 Gaussian 16:  ES64L-G16RevA.03 25-Dec-2016

 ----------------------------------------------------------------------
 # B3LYP/6-311++G(d,p) empiricaldispersion=gd3bj scf=xqc pop=npa geom=c
 heck
 ----------------------------------------------------------------------

 ------------------------------------
 CID_139376924_JID_6980_Energie_anion
 ------------------------------------
 Structure from the checkpoint file:  "JID_6980.chk"
 Charge = -1 Multiplicity = 2

                         Standard orientation:
 ---------------------------------------------------------------------
 Center     Atomic      Atomic             Coordinates (Angstroms)
 Number     Number       Type             X           Y           Z
 ---------------------------------------------------------------------
      1          6           0       -4.156135   -1.242113    0.888568
      2          6           0       -4.053713   -0.743138   -0.554680
      3          6           0       -3.053686    0.401976   -0.731283
      4          7           0       -1.713170   -0.047131   -0.394624
      5          6           0       -0.591494    0.714201   -0.279809
      6          6           0        0.635948    0.073623   -0.236365
      7          6           0        1.905509    0.782319   -0.226023
      8          8           0        2.996904    0.214149   -0.180623
      9          6           0        1.905652    2.306181   -0.370425
     10         16           0        0.575166    3.117050    0.577357
     11          6           0       -0.797061    2.205803   -0.198535
     12          7           0        0.588936   -1.352186   -0.226903
     13          6           0        1.298282   -2.109190   -1.265930
     14          6           0        2.620465   -2.780924   -0.881192
     15          6           0        0.420454   -1.979955    1.086597
     16          6           0        1.512229   -1.682477    2.120040
     17          1           0       -3.192072   -1.612284    1.251930
     18          1           0       -4.884789   -2.055067    0.971850
     19          1           0       -4.473828   -0.434838    1.559128
     20          1           0       -3.770000   -1.570130   -1.220867
     21          1           0       -5.032688   -0.392802   -0.903051
     22          1           0       -3.101149    0.782157   -1.764567
     23          1           0       -3.337989    1.230154   -0.071975
     24          1           0       -1.471389   -1.015733   -0.602875
     25          1           0        1.827369    2.581433   -1.430331
     26          1           0        2.859489    2.677498    0.008066
     27          1           0       -1.679970    2.429415    0.406395
     28          1           0       -0.991462    2.602505   -1.204837
     29          1           0        0.613841   -2.885774   -1.644754
     30          1           0        1.469500   -1.415520   -2.094798
     31          1           0        2.473993   -3.530147   -0.094999
     32          1           0        3.029792   -3.302850   -1.755163
     33          1           0        3.338465   -2.036949   -0.536170
     34          1           0       -0.545765   -1.653248    1.498738
     35          1           0        0.336264   -3.061419    0.921405
     36          1           0        1.578206   -0.606064    2.305279
     37          1           0        1.273659   -2.176335    3.070277
     38          1           0        2.493575   -2.022608    1.783510
 ---------------------------------------------------------------------

 SCF Done:  E(UB3LYP) =  -1053.70552804     A.U. after   32 cycles

 The electronic state is 2-A.
 Alpha  occ. eigenvalues --  -88.73467 -18.95890 -14.22027 -14.19678 -10.11207
 Alpha  occ. eigenvalues --  -10.10745 -10.10279 -10.10163 -10.09243 -10.09215
 Alpha  occ. eigenvalues --  -10.08723 -10.07218 -10.06584 -10.06085 -10.05190
 Alpha  occ. eigenvalues --  -10.05147  -7.82087  -5.78481  -5.78147  -5.77438
 Alpha  occ. eigenvalues --   -0.89724  -0.84705  -0.80558  -0.72049  -0.68577
 Alpha  occ. eigenvalues --   -0.65575  -0.64551  -0.62683  -0.60159  -0.57853
 Alpha  occ. eigenvalues --   -0.52738  -0.52643  -0.50422  -0.47643  -0.46830
 Alpha  occ. eigenvalues --   -0.41967  -0.40075  -0.38312  -0.37572  -0.36420
 Alpha  occ. eigenvalues --   -0.35137  -0.34090  -0.33775  -0.33382  -0.32620
 Alpha  occ. eigenvalues --   -0.31938  -0.31144  -0.30451  -0.29296  -0.28895
 Alpha  occ. eigenvalues --   -0.28397  -0.27722  -0.26460  -0.25517  -0.25412
 Alpha  occ. eigenvalues --   -0.25220  -0.24738  -0.24031  -0.23623  -0.23346
 Alpha  occ. eigenvalues --   -0.21648  -0.20590  -0.13936  -0.12147  -0.10467
 Alpha  occ. eigenvalues --   -0.08790   0.04090
 Alpha virt. eigenvalues --    0.06402   0.07269   0.07617   0.07961   0.08876
 Alpha virt. eigenvalues --    0.09009   0.09131   0.10002   0.10416   0.10746
 Alpha virt. eigenvalues --    0.11471   0.11774   0.12337   0.12451   0.12898

  Beta  occ. eigenvalues --  -88.73449 -18.95681 -14.21978 -14.19675 -10.11034
  Beta  occ. eigenvalues --  -10.10496 -10.10258 -10.10126 -10.09238 -10.09216
  Beta  occ. eigenvalues --  -10.08724 -10.07187 -10.06645 -10.06055 -10.05188
  Beta  occ. eigenvalues --  -10.05146  -7.82070  -5.78425  -5.78138  -5.77427
  Beta  occ. eigenvalues --   -0.89343  -0.84531  -0.80526  -0.71900  -0.68496
  Beta  occ. eigenvalues --   -0.65572  -0.64506  -0.62513  -0.60065  -0.57746
  Beta  occ. eigenvalues --   -0.52717  -0.52534  -0.50267  -0.47555  -0.46596
  Beta  occ. eigenvalues --   -0.41852  -0.39985  -0.38172  -0.37404  -0.36329
  Beta  occ. eigenvalues --   -0.35088  -0.34051  -0.33690  -0.33174  -0.32541
  Beta  occ. eigenvalues --   -0.31864  -0.31036  -0.30418  -0.29152  -0.28831
  Beta  occ. eigenvalues --   -0.28346  -0.27695  -0.26263  -0.25370  -0.25220
  Beta  occ. eigenvalues --   -0.25003  -0.24589  -0.23968  -0.23606  -0.23297
  Beta  occ. eigenvalues --   -0.21181  -0.20061  -0.13829  -0.12010  -0.10342
  Beta  occ. eigenvalues --   -0.08388
  Beta virt. eigenvalues --    0.06631   0.07477   0.07918   0.08183   0.08424
  Beta virt. eigenvalues --    0.09102   0.09299   0.09517   0.10153   0.10337
  Beta virt. eigenvalues --    0.11034   0.11883   0.11906   0.12373   0.12590

 Mulliken charges and spin densities:
               1          2
     1  C    0.709793  -1.196835
     2  C   -0.488834   0.124646
     3  C    0.754528  -0.822578
     4  N   -0.049236   0.073193
     5  C   -0.090882  -0.261152
     6  C   -0.272424  -0.095572
     7  C   -0.256971   0.033102
     8  O   -0.330698   0.074456
     9  C   -0.466161   0.034784
    10  S   -0.093089   0.168755
    11  C   -0.140031  -0.007446
    12  N    0.199428   0.021045
    13  C    0.136848  -0.042686
    14  C   -0.648026   0.030939
    15  C   -0.122384  -0.007557
    16  C   -0.509722   0.024712
    17  H   -0.065667   0.193506
    18  H   -0.268153   0.404970
    19  H   -0.032082   0.163265
    20  H   -0.076242   0.218102
    21  H   -0.741160   0.909000
    22  H   -0.459343   0.645442
    23  H    0.027368   0.102713
    24  H    0.730868  -0.409135
    25  H    0.159594   0.041496
    26  H    0.204839  -0.001522
    27  H   -0.218031   0.377372
    28  H    0.192628   0.066237
    29  H    0.035051   0.088133
    30  H    0.138293   0.004218
    31  H    0.107365   0.007896
    32  H    0.098711   0.005717
    33  H    0.210306   0.000696
    34  H    0.127197  -0.014157
    35  H    0.113283   0.026735
    36  H    0.146326   0.004179
    37  H    0.095122   0.020552
    38  H    0.141587  -0.007220
 Sum of Mulliken charges =  -1.00000   1.00000

 Dipole moment (field-independent basis, Debye):
    X=              5.1867    Y=             -1.7604    Z=              0.6607  Tot=              5.5170
 Quadrupole moment (field-independent basis, Debye-Ang):
   XX=           -195.9705   YY=           -143.2294   ZZ=           -132.6328
   XY=             -1.4309   XZ=             -7.3685   YZ=             -1.0817

 Summary of Natural Population Analysis:

                                       Natural Population
                Natural  -----------------------------------------------
    Atom  No    Charge         Core      Valence    Rydberg      Total
 -----------------------------------------------------------------------
      C    1   -0.28704      0.99966     2.28120    0.00617     3.28704
      C    2   -0.19189      0.99964     2.18380    0.00844     3.19189
      C    3   -0.08418      0.99961     2.07347    0.01111     3.08418
      N    4   -0.29859      0.99965     2.78877    0.01017     3.79859
      C    5    0.17725      0.99948     1.81128    0.01200     2.82275
      C    6   -0.03807      0.99938     2.02408    0.01461     3.03807
      C    7    0.26402      0.99953     1.71356    0.02290     2.73598
      O    8   -0.30551      0.99988     3.29876    0.00687     4.30551
      C    9   -0.28100      0.99953     2.27155    0.00992     3.28100
      S   10    0.09695      4.99965     2.88310    0.02030     7.90305
      C   11   -0.27209      0.99954     2.26075    0.01180     3.27209
      N   12   -0.29051      0.99969     2.77684    0.01398     3.79051
      C   13   -0.07736      0.99962     2.06541    0.01233     3.07736
      C   14   -0.29988      0.99966     2.29637    0.00385     3.29988
      C   15   -0.08234      0.99962     2.07180    0.01092     3.08234
      C   16   -0.29453      0.99966     2.29005    0.00481     3.29453
      H   17    0.09855      0.00000     0.40013    0.00132     0.40145
      H   18    0.09887      0.00000     0.40007    0.00106     0.40113
      H   19    0.09683      0.00000     0.40212    0.00106     0.40317
      H   20    0.09191      0.00000     0.40676    0.00132     0.40809
      H   21    0.10263      0.00000     0.39473    0.00264     0.39737
      H   22    0.09474      0.00000     0.40233    0.00293     0.40526
      H   23    0.09286      0.00000     0.40550    0.00164     0.40714
      H   24    0.19716      0.00000     0.29946    0.00338     0.30284
      H   25    0.10243      0.00000     0.39580    0.00177     0.39757
      H   26    0.11216      0.00000     0.38683    0.00101     0.38784
      H   27    0.11539      0.00000     0.38281    0.00180     0.38461
      H   28    0.10912      0.00000     0.38940    0.00148     0.39088
      H   29    0.07961      0.00000     0.41919    0.00120     0.42039
      H   30    0.09860      0.00000     0.40046    0.00094     0.40140
      H   31    0.08938      0.00000     0.40945    0.00118     0.41062
      H   32    0.09153      0.00000     0.40743    0.00104     0.40847
      H   33    0.11881      0.00000     0.38021    0.00098     0.38119
      H   34    0.09137      0.00000     0.40707    0.00156     0.40863
      H   35    0.08712      0.00000     0.41174    0.00114     0.41288
      H   36    0.10494      0.00000     0.39397    0.00109     0.39506
      H   37    0.09020      0.00000     0.40882    0.00097     0.40980
      H   38    0.10063      0.00000     0.39845    0.00092     0.39937
 =======================================================================
   * Total *    0.00005     19.99380    45.79354    0.21261    65.99995

 Normal termination of Gaussian 16 at Fri Dec 11 01:27:41 2020.
