 Gaussian 16, Revision A.03,

 -----------------------------------------------------------
 # opt freq B3LYP/6-31G(d) empiricaldispersion=gd3bj scf=xqc
 -----------------------------------------------------------

 -------------------------------
 CID_137224877_JID_1068_neutraal
 -------------------------------
 Symbolic Z-matrix:
 Charge =  0 Multiplicity = 1

 SCF Done:  E(RB3LYP) =  -495.581514754     A.U. after   15 cycles
 SCF Done:  E(RB3LYP) =  -495.582590553     A.U. after   12 cycles
 SCF Done:  E(RB3LYP) =  -495.582666382     A.U. after   11 cycles
 SCF Done:  E(RB3LYP) =  -495.582685505     A.U. after   10 cycles
 SCF Done:  E(RB3LYP) =  -495.582689361     A.U. after    9 cycles
 SCF Done:  E(RB3LYP) =  -495.582689692     A.U. after    7 cycles
 Optimization completed.
    -- Stationary point found.
 Normal termination of Gaussian 16 at Tue Dec  8 19:09:30 2020.

 --------------------------------------------------------------------
 #N Geom=AllCheck Guess=TCheck SCRF=Check GenChk RB3LYP/6-31G(d) Freq
 --------------------------------------------------------------------

 Structure from the checkpoint file:  "JID_1068.chk"
 -------------------------------
 CID_137224877_JID_1068_neutraal
 -------------------------------
 Charge =  0 Multiplicity = 1

 SCF Done:  E(RB3LYP) =  -495.582689692     A.U. after    1 cycles

  Exact polarizability: 140.486   5.457 106.645   0.279   3.232  51.398
 Approx polarizability: 222.909  21.377 164.523   1.362   7.500  79.888

                      1                      2                      3
                      A                      A                      A
 Frequencies --     88.0089               132.0655               189.3844
 Red. masses --      2.9918                 4.7051                 4.2394
 Frc consts  --      0.0137                 0.0484                 0.0896
 IR Inten    --      0.1666                 1.1534                 2.0305

                      4                      5                      6
                      A                      A                      A
 Frequencies --    211.5622               283.8910               326.7525
 Red. masses --      2.9196                 3.2104                 2.1861
 Frc consts  --      0.0770                 0.1524                 0.1375
 IR Inten    --      2.0667                 5.7532                31.3758

                      7                      8                      9
                      A                      A                      A
 Frequencies --    342.9705               387.4971               438.8977
 Red. masses --      4.7283                 1.3720                 3.8569
 Frc consts  --      0.3277                 0.1214                 0.4377
 IR Inten    --      5.8748                55.7637                 3.6698

                     10                     11                     12
                      A                      A                      A
 Frequencies --    459.4727               501.0973               520.9151
 Red. masses --      3.8351                 1.7801                 2.3077
 Frc consts  --      0.4770                 0.2633                 0.3689
 IR Inten    --     10.2548                83.0785                13.5184

                     13                     14                     15
                      A                      A                      A
 Frequencies --    584.8152               640.9766               667.3974
 Red. masses --      3.5952                 2.4602                 2.8859
 Frc consts  --      0.7244                 0.5955                 0.7573
 IR Inten    --      2.5947                10.0878                 0.1770

                     16                     17                     18
                      A                      A                      A
 Frequencies --    708.7662               716.5457               738.5402
 Red. masses --      1.6242                 4.4378                 2.4208
 Frc consts  --      0.4807                 1.3425                 0.7780
 IR Inten    --     25.1982                10.5503                16.9486

                     19                     20                     21
                      A                      A                      A
 Frequencies --    833.6281               875.4152               898.9629
 Red. masses --      1.2302                 1.6857                 2.4839
 Frc consts  --      0.5037                 0.7611                 1.1827
 IR Inten    --      9.6727                 6.2676                 1.5037

                     22                     23                     24
                      A                      A                      A
 Frequencies --    906.8490               935.4383               959.3846
 Red. masses --      2.4961                 3.3846                 5.1055
 Frc consts  --      1.2094                 1.7449                 2.7687
 IR Inten    --     55.4186                 5.8597               135.2858

                     25                     26                     27
                      A                      A                      A
 Frequencies --   1043.8322              1081.2358              1087.4943
 Red. masses --      2.4363                 2.4472                 1.8886
 Frc consts  --      1.5640                 1.6856                 1.3160
 IR Inten    --     31.5261                18.7170                 2.1699

                     28                     29                     30
                      A                      A                      A
 Frequencies --   1094.1041              1132.5593              1180.0247
 Red. masses --      1.4451                 1.8862                 1.1985
 Frc consts  --      1.0192                 1.4255                 0.9832
 IR Inten    --     13.8258                36.5751                 1.4220

                     31                     32                     33
                      A                      A                      A
 Frequencies --   1212.1767              1231.0799              1283.3674
 Red. masses --      1.7445                 1.7736                 1.4856
 Frc consts  --      1.5103                 1.5837                 1.4416
 IR Inten    --      1.8223                 1.6602                10.3240

                     34                     35                     36
                      A                      A                      A
 Frequencies --   1290.6694              1337.4702              1367.0947
 Red. masses --      1.4366                 1.6507                 1.6871
 Frc consts  --      1.4100                 1.7398                 1.8578
 IR Inten    --     18.8420                62.1157                 5.5065

                     37                     38                     39
                      A                      A                      A
 Frequencies --   1387.3339              1398.0249              1426.1918
 Red. masses --      1.4584                 1.4024                 2.2747
 Frc consts  --      1.6538                 1.6150                 2.7260
 IR Inten    --     19.0622                26.1052                10.1942

                     40                     41                     42
                      A                      A                      A
 Frequencies --   1464.7300              1496.9538              1506.1350
 Red. masses --      3.2002                 1.3411                 1.9555
 Frc consts  --      4.0453                 1.7707                 2.6135
 IR Inten    --     12.3677                11.3600                 6.8030

                     43                     44                     45
                      A                      A                      A
 Frequencies --   1514.1555              1524.2219              1542.0862
 Red. masses --      1.2616                 1.1038                 4.3038
 Frc consts  --      1.7041                 1.5109                 6.0300
 IR Inten    --      4.2906                 0.6656                11.3581

                     46                     47                     48
                      A                      A                      A
 Frequencies --   1622.6915              1701.4671              3010.1412
 Red. masses --      4.8625                 7.7972                 1.0706
 Frc consts  --      7.5436                13.2995                 5.7154
 IR Inten    --      3.1184                38.3441                38.4150

                     49                     50                     51
                      A                      A                      A
 Frequencies --   3030.7035              3048.9635              3071.9003
 Red. masses --      1.0722                 1.0625                 1.0895
 Frc consts  --      5.8027                 5.8192                 6.0577
 IR Inten    --      9.4731                27.2436                49.1969

                     52                     53                     54
                      A                      A                      A
 Frequencies --   3092.9819              3123.0629              3253.8466
 Red. masses --      1.1038                 1.0907                 1.0916
 Frc consts  --      6.2216                 6.2676                 6.8093
 IR Inten    --     49.1729                 9.8371                 7.0818

                     55                     56                     57
                      A                      A                      A
 Frequencies --   3280.7321              3668.5927              3765.3471
 Red. masses --      1.1012                 1.0804                 1.0677
 Frc consts  --      6.9835                 8.5670                 8.9185
 IR Inten    --      4.2857                66.6085                81.1751

 - Thermochemistry -
 -------------------
 Temperature   298.150 Kelvin.  Pressure   1.00000 Atm.
 Atom     1 has atomic number  6 and mass  12.00000

 Molecular mass:   150.07931 amu.
 Principal axes and moments of inertia in atomic units:
                           1         2         3
     Eigenvalues --  1012.907281812.949292764.21651
           X            0.99992  -0.01255   0.00038
           Y            0.01255   0.99992   0.00109
           Z           -0.00040  -0.00108   1.00000
 This molecule is an asymmetric top.
 Rotational symmetry number  1.
 Warning -- assumption of classical behavior for rotation
           may cause significant error
 Rotational temperatures (Kelvin)      0.08551     0.04778     0.03133
 Rotational constants (GHZ):           1.78174     0.99547     0.65289
 Zero-point vibrational energy     458293.0 (Joules/Mol)
                                  109.53466 (Kcal/Mol)
 Warning -- explicit consideration of  13 degrees of freedom as
           vibrations may cause significant error
 Vibrational temperatures:    126.63   190.01   272.48   304.39   408.46
          (Kelvin)            470.12   493.46   557.52   631.48   661.08
                              720.97   749.48   841.42   922.22   960.24
                             1019.76  1030.95  1062.59  1199.40  1259.53
                             1293.41  1304.75  1345.89  1380.34  1501.84
                             1555.66  1564.66  1574.17  1629.50  1697.79
                             1744.05  1771.25  1846.48  1856.99  1924.32
                             1966.94  1996.06  2011.45  2051.97  2107.42
                             2153.78  2166.99  2178.53  2193.02  2218.72
                             2334.69  2448.03  4330.92  4360.51  4386.78
                             4419.78  4450.11  4493.39  4681.56  4720.24
                             5278.29  5417.49

 Zero-point correction=                           0.174555 (Hartree/Particle)
 Thermal correction to Energy=                    0.183772
 Thermal correction to Enthalpy=                  0.184716
 Thermal correction to Gibbs Free Energy=         0.140406
 Sum of electronic and zero-point Energies=           -495.408135
 Sum of electronic and thermal Energies=              -495.398918
 Sum of electronic and thermal Enthalpies=            -495.397973
 Sum of electronic and thermal Free Energies=         -495.442283

                     E (Thermal)             CV                S
                      KCal/Mol        Cal/Mol-Kelvin    Cal/Mol-Kelvin
 Total                  115.319             36.833             93.258
 Electronic               0.000              0.000              0.000
 Translational            0.889              2.981             40.928
 Rotational               0.889              2.981             30.008
 Vibrational            113.541             30.871             22.322
 Vibration     1          0.601              1.958              3.704
 Vibration     2          0.612              1.921              2.916
 Vibration     3          0.633              1.854              2.234
 Vibration     4          0.643              1.823              2.030
 Vibration     5          0.682              1.704              1.510
 Vibration     6          0.710              1.622              1.276
 Vibration     7          0.722              1.590              1.198
 Vibration     8          0.756              1.497              1.010
 Vibration     9          0.799              1.385              0.830
 Vibration    10          0.817              1.340              0.768
 Vibration    11          0.856              1.248              0.655
 Vibration    12          0.876              1.204              0.608
 Vibration    13          0.942              1.064              0.477

                           ! Non-Optimized Parameters !
 Normal termination of Gaussian 16 at Tue Dec  8 19:13:30 2020.

 ----------------------------------------------------------------------
 # B3LYP/6-311++G(d,p) empiricaldispersion=gd3bj scf=xqc pop=npa geom=c
 heck
 ----------------------------------------------------------------------

 ---------------------------------------
 CID_137224877_JID_1068_Energie_neutraal
 ---------------------------------------
 Structure from the checkpoint file:  "JID_1068.chk"
 Charge =  0 Multiplicity = 1

 SCF Done:  E(RB3LYP) =  -495.727783839     A.U. after   15 cycles
 Normal termination of Gaussian 16 at Tue Dec  8 19:15:09 2020.

 ----------------------------------------------------------------------
 # B3LYP/6-311++G(d,p) empiricaldispersion=gd3bj scf=xqc pop=npa geom=c
 heck
 ----------------------------------------------------------------------

 -------------------------------------
 CID_137224877_JID_1068_Energie_kation
 -------------------------------------
 Structure from the checkpoint file:  "JID_1068.chk"
 Charge =  1 Multiplicity = 2

 SCF Done:  E(UB3LYP) =  -495.454570568     A.U. after   20 cycles
 Normal termination of Gaussian 16 at Tue Dec  8 19:18:07 2020.
 Gaussian 16:  ES64L-G16RevA.03 25-Dec-2016

 ----------------------------------------------------------------------
 # B3LYP/6-311++G(d,p) empiricaldispersion=gd3bj scf=xqc pop=npa geom=c
 heck
 ----------------------------------------------------------------------

 ------------------------------------
 CID_137224877_JID_1068_Energie_anion
 ------------------------------------
 Structure from the checkpoint file:  "JID_1068.chk"
 Charge = -1 Multiplicity = 2

                         Standard orientation:
 ---------------------------------------------------------------------
 Center     Atomic      Atomic             Coordinates (Angstroms)
 Number     Number       Type             X           Y           Z
 ---------------------------------------------------------------------
      1          6           0       -0.399711    2.182410   -0.400274
      2          6           0        1.008262    1.965567    0.185321
      3          6           0        1.377914    0.514412    0.084588
      4          6           0        0.399636   -0.468366    0.006345
      5          6           0       -1.026154   -0.240035    0.034720
      6          7           0       -1.812065   -1.260994   -0.029341
      7          8           0       -3.170629   -0.873472    0.043170
      8          6           0       -1.445095    1.209093    0.175868
      9          7           0        1.026891   -1.690437   -0.076247
     10          6           0        2.385313   -1.505673   -0.052301
     11          6           0        2.635423   -0.147513    0.048656
     12          1           0       -0.352013    2.044139   -1.487882
     13          1           0       -0.729697    3.212107   -0.221447
     14          1           0        1.736083    2.594339   -0.341774
     15          1           0        1.023369    2.293595    1.236205
     16          1           0       -3.623402   -1.724421   -0.056112
     17          1           0       -1.599739    1.416263    1.245142
     18          1           0       -2.415373    1.348880   -0.307359
     19          1           0        0.531774   -2.566699   -0.141509
     20          1           0        3.063828   -2.344115   -0.113634
     21          1           0        3.612901    0.314341    0.084590
 ---------------------------------------------------------------------

 SCF Done:  E(UB3LYP) =  -495.709579419     A.U. after   33 cycles
 SCF Done:  E(UB3LYP) =  -495.709579419     a.u. after    1 cycles

 The electronic state is 2-A.
 Alpha  occ. eigenvalues --  -19.05176 -14.25046 -14.24272 -10.10718 -10.09342
 Alpha  occ. eigenvalues --  -10.08954 -10.07368 -10.07332 -10.07220 -10.06334
 Alpha  occ. eigenvalues --  -10.05463  -0.96810  -0.87635  -0.76620  -0.71541
 Alpha  occ. eigenvalues --   -0.66274  -0.62405  -0.60506  -0.51367  -0.49954
 Alpha  occ. eigenvalues --   -0.48286  -0.43949  -0.40441  -0.38842  -0.36170
 Alpha  occ. eigenvalues --   -0.35561  -0.32673  -0.32445  -0.32245  -0.31265
 Alpha  occ. eigenvalues --   -0.29252  -0.28546  -0.27899  -0.25096  -0.24144
 Alpha  occ. eigenvalues --   -0.23144  -0.17444  -0.17197  -0.14091  -0.09762
 Alpha  occ. eigenvalues --    0.04832
 Alpha virt. eigenvalues --    0.06609   0.06844   0.07598   0.08498   0.09121
 Alpha virt. eigenvalues --    0.09748   0.10709   0.11319   0.12006   0.12526
 Alpha virt. eigenvalues --    0.14557   0.15463   0.16297   0.16566   0.17594

  Beta  occ. eigenvalues --  -19.05140 -14.25027 -14.24224 -10.10711 -10.09312
  Beta  occ. eigenvalues --  -10.08954 -10.07349 -10.07317 -10.07203 -10.06326
  Beta  occ. eigenvalues --  -10.05457  -0.96732  -0.87604  -0.76550  -0.71502
  Beta  occ. eigenvalues --   -0.66234  -0.62364  -0.60454  -0.51309  -0.49891
  Beta  occ. eigenvalues --   -0.48241  -0.43893  -0.40376  -0.38788  -0.36115
  Beta  occ. eigenvalues --   -0.35518  -0.32628  -0.32407  -0.32189  -0.31230
  Beta  occ. eigenvalues --   -0.29212  -0.28509  -0.27831  -0.25052  -0.24108
  Beta  occ. eigenvalues --   -0.23114  -0.17375  -0.17097  -0.14062  -0.09685
  Beta virt. eigenvalues --    0.07075   0.07721   0.07980   0.08012   0.09304
  Beta virt. eigenvalues --    0.09338   0.10407   0.11048   0.12115   0.12199
  Beta virt. eigenvalues --    0.12877   0.14575   0.15364   0.16323   0.16642

 Mulliken charges and spin densities:
               1          2
     1  C   -0.047722  -0.105182
     2  C    0.431052  -1.485624
     3  C    0.619456   0.036961
     4  C   -1.198175   0.825685
     5  C    0.968169  -1.331896
     6  N   -0.312799  -0.060426
     7  O   -0.047913   0.012497
     8  C   -0.062205  -0.122778
     9  N   -0.197613   0.122012
    10  C    0.737328  -0.955953
    11  C    0.697751  -0.379980
    12  H    0.057603   0.073631
    13  H   -0.288536   0.444153
    14  H   -0.108053   0.255198
    15  H    0.037178   0.111527
    16  H   -0.158314   0.434728
    17  H   -0.174274   0.340861
    18  H    0.055142   0.129126
    19  H   -0.157756   0.470905
    20  H   -1.477626   1.655900
    21  H   -0.372693   0.528656
 Sum of Mulliken charges =  -1.00000   1.00000

 Dipole moment (field-independent basis, Debye):
    X=             -1.4023    Y=              4.0650    Z=              0.0479  Tot=              4.3003
 Quadrupole moment (field-independent basis, Debye-Ang):
   XX=           -128.5514   YY=           -116.5566   ZZ=            -87.9986
   XY=              9.1487   XZ=              2.9489   YZ=             -2.0108

 Summary of Natural Population Analysis:

                                       Natural Population
                Natural  -----------------------------------------------
    Atom  No    Charge         Core      Valence    Rydberg      Total
 -----------------------------------------------------------------------
      C    1   -0.18441      0.99964     2.17563    0.00913     3.18441
      C    2   -0.19387      0.99960     2.18665    0.00762     3.19387
      C    3   -0.03246      0.99948     2.02342    0.00955     3.03246
      C    4    0.04004      0.99942     1.94707    0.01348     2.95996
      C    5    0.10277      0.99954     1.88116    0.01653     2.89723
      N    6   -0.09499      0.99960     2.58078    0.01462     3.59499
      O    7   -0.29085      0.99990     3.28399    0.00695     4.29085
      C    8   -0.21166      0.99960     2.20459    0.00748     3.21166
      N    9   -0.25650      0.99965     2.74647    0.01037     3.75650
      C   10    0.00010      0.99958     1.98708    0.01324     2.99990
      C   11   -0.14837      0.99952     2.13851    0.01033     3.14837
      H   12    0.09526      0.00000     0.40338    0.00136     0.40474
      H   13    0.09877      0.00000     0.39988    0.00135     0.40123
      H   14    0.10200      0.00000     0.39650    0.00150     0.39800
      H   15    0.09918      0.00000     0.39932    0.00150     0.40082
      H   16    0.23606      0.00000     0.25482    0.00911     0.26394
      H   17    0.10744      0.00000     0.39091    0.00165     0.39256
      H   18    0.11503      0.00000     0.38345    0.00152     0.38497
      H   19    0.20887      0.00000     0.28629    0.00484     0.29113
      H   20    0.10309      0.00000     0.39196    0.00495     0.39691
      H   21    0.10451      0.00000     0.39454    0.00095     0.39549
 =======================================================================
   * Total *   -0.00000     10.99554    28.85642    0.14804    40.00000

 Normal termination of Gaussian 16 at Tue Dec  8 19:23:13 2020.
