 Gaussian 16, Revision A.03,

 -----------------------------------------------------------
 # opt freq B3LYP/6-31G(d) empiricaldispersion=gd3bj scf=xqc
 -----------------------------------------------------------

 ------------------------------
 CID_28347165_JID_3257_neutraal
 ------------------------------
 Symbolic Z-matrix:
 Charge =  0 Multiplicity = 1

 SCF Done:  E(RB3LYP) =  -631.211976371     A.U. after   15 cycles
 SCF Done:  E(RB3LYP) =  -631.215118689     A.U. after   13 cycles
 SCF Done:  E(RB3LYP) =  -631.215749481     A.U. after   12 cycles
 SCF Done:  E(RB3LYP) =  -631.216078559     A.U. after   11 cycles
 SCF Done:  E(RB3LYP) =  -631.216087118     A.U. after   11 cycles
 SCF Done:  E(RB3LYP) =  -631.216147296     A.U. after   10 cycles
 SCF Done:  E(RB3LYP) =  -631.216160950     A.U. after   10 cycles
 SCF Done:  E(RB3LYP) =  -631.216168892     A.U. after   10 cycles
 SCF Done:  E(RB3LYP) =  -631.216172242     A.U. after    9 cycles
 SCF Done:  E(RB3LYP) =  -631.216173449     A.U. after    9 cycles
 SCF Done:  E(RB3LYP) =  -631.216173601     A.U. after    7 cycles
 Optimization completed.
    -- Stationary point found.
 Normal termination of Gaussian 16 at Wed Dec  9 22:28:31 2020.

 --------------------------------------------------------------------
 #N Geom=AllCheck Guess=TCheck SCRF=Check GenChk RB3LYP/6-31G(d) Freq
 --------------------------------------------------------------------

 Structure from the checkpoint file:  "JID_3257.chk"
 ------------------------------
 CID_28347165_JID_3257_neutraal
 ------------------------------
 Charge =  0 Multiplicity = 1

 SCF Done:  E(RB3LYP) =  -631.216173601     A.U. after    1 cycles

  Exact polarizability: 143.386  -6.179 110.298  -2.403  -0.630  68.774
 Approx polarizability: 183.854   1.079 188.195  -3.587  -1.708 103.354

                      1                      2                      3
                      A                      A                      A
 Frequencies --     27.7368                33.1542                62.6915
 Red. masses --      4.8962                 4.8945                 4.0267
 Frc consts  --      0.0022                 0.0032                 0.0093
 IR Inten    --      2.0667                 0.7189                 0.7249

                      4                      5                      6
                      A                      A                      A
 Frequencies --     70.3519                84.1762               141.2706
 Red. masses --      3.9036                 6.2982                 3.7321
 Frc consts  --      0.0114                 0.0263                 0.0439
 IR Inten    --      1.6385                 1.4694                 6.4551

                      7                      8                      9
                      A                      A                      A
 Frequencies --    191.5906               204.1771               220.0798
 Red. masses --      3.0390                 3.8388                 4.0590
 Frc consts  --      0.0657                 0.0943                 0.1158
 IR Inten    --     11.0439                 4.2022                 1.5608

                     10                     11                     12
                      A                      A                      A
 Frequencies --    284.8991               329.7644               354.0993
 Red. masses --      1.3198                 2.2333                 2.4890
 Frc consts  --      0.0631                 0.1431                 0.1839
 IR Inten    --     90.2736                23.5119                 3.7921

                     13                     14                     15
                      A                      A                      A
 Frequencies --    425.5874               456.0376               536.8948
 Red. masses --      3.1474                 2.4645                 3.2340
 Frc consts  --      0.3359                 0.3020                 0.5493
 IR Inten    --      4.7683                 3.1807                11.2195

                     16                     17                     18
                      A                      A                      A
 Frequencies --    552.2112               575.4268               612.6732
 Red. masses --      2.8907                 1.6885                 3.1511
 Frc consts  --      0.5194                 0.3294                 0.6969
 IR Inten    --      7.7046                38.3624                 4.7288

                     19                     20                     21
                      A                      A                      A
 Frequencies --    637.3249               673.2092               752.7148
 Red. masses --      3.5602                 3.0581                 1.6801
 Frc consts  --      0.8520                 0.8166                 0.5608
 IR Inten    --      9.0063                49.2265                21.2999

                     22                     23                     24
                      A                      A                      A
 Frequencies --    759.6791               767.0907               816.8829
 Red. masses --      2.2065                 1.7124                 2.3395
 Frc consts  --      0.7503                 0.5937                 0.9198
 IR Inten    --      7.2802                61.2239                 6.2958

                     25                     26                     27
                      A                      A                      A
 Frequencies --    831.7619               878.3154               903.9856
 Red. masses --      1.4001                 1.3323                 2.0761
 Frc consts  --      0.5707                 0.6056                 0.9996
 IR Inten    --      6.2900                 1.7825                22.9325

                     28                     29                     30
                      A                      A                      A
 Frequencies --    910.5682               940.9307               951.2731
 Red. masses --      5.6682                 2.5293                 2.6971
 Frc consts  --      2.7690                 1.3194                 1.4380
 IR Inten    --      7.7952                15.1889                 3.1160

                     31                     32                     33
                      A                      A                      A
 Frequencies --   1015.0978              1045.5556              1058.0285
 Red. masses --      1.7353                 1.6812                 1.3870
 Frc consts  --      1.0535                 1.0828                 0.9148
 IR Inten    --     21.2018                21.1498                30.5335

                     34                     35                     36
                      A                      A                      A
 Frequencies --   1097.2269              1115.2483              1122.4479
 Red. masses --      2.6859                 2.8070                 1.9192
 Frc consts  --      1.9051                 2.0570                 1.4246
 IR Inten    --    107.5502                 9.8104                 6.0092

                     37                     38                     39
                      A                      A                      A
 Frequencies --   1139.6398              1185.2160              1207.3679
 Red. masses --      2.1665                 2.5703                 1.4806
 Frc consts  --      1.6579                 2.1273                 1.2717
 IR Inten    --      9.3268                51.5558                 7.1535

                     40                     41                     42
                      A                      A                      A
 Frequencies --   1219.4871              1232.3936              1268.7813
 Red. masses --      1.3432                 2.6320                 1.7447
 Frc consts  --      1.1769                 2.3552                 1.6548
 IR Inten    --     12.4519                29.8872                 7.0300

                     43                     44                     45
                      A                      A                      A
 Frequencies --   1289.5586              1337.8808              1376.0101
 Red. masses --      1.3656                 1.1902                 1.8961
 Frc consts  --      1.3380                 1.2551                 2.1153
 IR Inten    --     48.7636                14.1270               149.5649

                     46                     47                     48
                      A                      A                      A
 Frequencies --   1395.7235              1401.9051              1410.5674
 Red. masses --      1.4695                 1.5698                 1.2685
 Frc consts  --      1.6867                 1.8177                 1.4870
 IR Inten    --     16.6541                28.2197                 7.1495

                     49                     50                     51
                      A                      A                      A
 Frequencies --   1429.9104              1441.4494              1446.1121
 Red. masses --      1.6672                 1.3250                 2.0842
 Frc consts  --      2.0084                 1.6221                 2.5680
 IR Inten    --      3.9381                44.9623                33.0790

                     52                     53                     54
                      A                      A                      A
 Frequencies --   1496.5367              1509.3142              1517.5278
 Red. masses --      1.7368                 1.0861                 1.2609
 Frc consts  --      2.2919                 1.4578                 1.7109
 IR Inten    --    101.1503                 4.4169                15.9876

                     55                     56                     57
                      A                      A                      A
 Frequencies --   1519.4831              1526.0576              1542.2030
 Red. masses --      2.0253                 1.3436                 1.0905
 Frc consts  --      2.7551                 1.8436                 1.5281
 IR Inten    --     41.8493                31.0617                 8.2230

                     58                     59                     60
                      A                      A                      A
 Frequencies --   1620.5561              1771.8053              2986.5119
 Red. masses --      5.4352                 8.0807                 1.0731
 Frc consts  --      8.4099                14.9463                 5.6391
 IR Inten    --     25.0980               352.2231                64.9619

                     61                     62                     63
                      A                      A                      A
 Frequencies --   3035.8952              3039.4898              3048.8962
 Red. masses --      1.0714                 1.0660                 1.0630
 Frc consts  --      5.8178                 5.8024                 5.8219
 IR Inten    --     33.5041                34.8254                10.8697

                     64                     65                     66
                      A                      A                      A
 Frequencies --   3086.1911              3093.9539              3107.7382
 Red. masses --      1.0959                 1.1016                 1.0924
 Frc consts  --      6.1501                 6.2128                 6.2164
 IR Inten    --     55.1800                39.6508                47.6621

                     67                     68                     69
                      A                      A                      A
 Frequencies --   3133.8006              3271.3410              3290.1828
 Red. masses --      1.0920                 1.0909                 1.0965
 Frc consts  --      6.3188                 6.8787                 6.9934
 IR Inten    --     10.1210                 3.0300                 0.9390

                     70                     71                     72
                      A                      A                      A
 Frequencies --   3304.0638              3595.0739              3754.7387
 Red. masses --      1.1053                 1.0754                 1.0661
 Frc consts  --      7.1096                 8.1893                 8.8557
 IR Inten    --      0.7786                26.1741                 6.9085

 - Thermochemistry -
 -------------------
 Temperature   298.150 Kelvin.  Pressure   1.00000 Atm.
 Atom     1 has atomic number  6 and mass  12.00000

 Molecular mass:   183.08954 amu.
 Principal axes and moments of inertia in atomic units:
                           1         2         3
     Eigenvalues --   989.663435228.991025900.20873
           X            0.99994  -0.01047  -0.00277
           Y            0.01045   0.99992  -0.00747
           Z            0.00285   0.00744   0.99997
 This molecule is an asymmetric top.
 Rotational symmetry number  1.
 Warning -- assumption of classical behavior for rotation
           may cause significant error
 Rotational temperatures (Kelvin)      0.08752     0.01656     0.01468
 Rotational constants (GHZ):           1.82359     0.34514     0.30588
 Zero-point vibrational energy     571058.5 (Joules/Mol)
                                  136.48626 (Kcal/Mol)
 Warning -- explicit consideration of  18 degrees of freedom as
           vibrations may cause significant error
 Vibrational temperatures:     39.91    47.70    90.20   101.22   121.11
          (Kelvin)            203.26   275.66   293.77   316.65   409.91
                              474.46   509.47   612.33   656.14   772.47
                              794.51   827.91   881.50   916.97   968.60
                             1082.99  1093.01  1103.67  1175.31  1196.72
                             1263.70  1300.63  1310.10  1353.79  1368.67
                             1460.50  1504.32  1522.27  1578.66  1604.59
                             1614.95  1639.69  1705.26  1737.13  1754.57
                             1773.14  1825.49  1855.39  1924.91  1979.77
                             2008.13  2017.03  2029.49  2057.32  2073.92
                             2080.63  2153.18  2171.57  2183.38  2186.20
                             2195.66  2218.89  2331.62  2549.23  4296.92
                             4367.98  4373.15  4386.68  4440.34  4451.51
                             4471.34  4508.84  4706.73  4733.84  4753.81
                             5172.51  5402.23

 Zero-point correction=                           0.217505 (Hartree/Particle)
 Thermal correction to Energy=                    0.230514
 Thermal correction to Enthalpy=                  0.231458
 Thermal correction to Gibbs Free Energy=         0.175734
 Sum of electronic and zero-point Energies=           -630.998669
 Sum of electronic and thermal Energies=              -630.985660
 Sum of electronic and thermal Enthalpies=            -630.984716
 Sum of electronic and thermal Free Energies=         -631.040439

                     E (Thermal)             CV                S
                      KCal/Mol        Cal/Mol-Kelvin    Cal/Mol-Kelvin
 Total                  144.650             47.398            117.281
 Electronic               0.000              0.000              0.000
 Translational            0.889              2.981             41.521
 Rotational               0.889              2.981             31.791
 Vibrational            142.872             41.436             43.970
 Vibration     1          0.593              1.984              5.985
 Vibration     2          0.594              1.983              5.631
 Vibration     3          0.597              1.972              4.371
 Vibration     4          0.598              1.968              4.143
 Vibration     5          0.601              1.960              3.791
 Vibration     6          0.615              1.912              2.787
 Vibration     7          0.634              1.851              2.212
 Vibration     8          0.640              1.834              2.095
 Vibration     9          0.647              1.811              1.958
 Vibration    10          0.683              1.702              1.504
 Vibration    11          0.713              1.616              1.261
 Vibration    12          0.730              1.567              1.148
 Vibration    13          0.787              1.415              0.873
 Vibration    14          0.814              1.348              0.778
 Vibration    15          0.892              1.168              0.572
 Vibration    16          0.908              1.135              0.540
 Vibration    17          0.932              1.084              0.494
 Vibration    18          0.972              1.005              0.428

 Optimization completed.
    -- Stationary point found.
 Normal termination of Gaussian 16 at Wed Dec  9 22:34:42 2020.

 ----------------------------------------------------------------------
 # B3LYP/6-311++G(d,p) empiricaldispersion=gd3bj scf=xqc pop=npa geom=c
 heck
 ----------------------------------------------------------------------

 --------------------------------------
 CID_28347165_JID_3257_Energie_neutraal
 --------------------------------------
 Structure from the checkpoint file:  "JID_3257.chk"
 Charge =  0 Multiplicity = 1

 SCF Done:  E(RB3LYP) =  -631.411436328     A.U. after   15 cycles
 Normal termination of Gaussian 16 at Wed Dec  9 22:37:39 2020.

 ----------------------------------------------------------------------
 # B3LYP/6-311++G(d,p) empiricaldispersion=gd3bj scf=xqc pop=npa geom=c
 heck
 ----------------------------------------------------------------------

 ------------------------------------
 CID_28347165_JID_3257_Energie_kation
 ------------------------------------
 Structure from the checkpoint file:  "JID_3257.chk"
 Charge =  1 Multiplicity = 2

 SCF Done:  E(UB3LYP) =  -631.089017532     A.U. after   32 cycles
 Normal termination of Gaussian 16 at Wed Dec  9 22:46:35 2020.
 Gaussian 16:  ES64L-G16RevA.03 25-Dec-2016

 ----------------------------------------------------------------------
 # B3LYP/6-311++G(d,p) empiricaldispersion=gd3bj scf=xqc pop=npa geom=c
 heck
 ----------------------------------------------------------------------

 -----------------------------------
 CID_28347165_JID_3257_Energie_anion
 -----------------------------------
 Structure from the checkpoint file:  "JID_3257.chk"
 Charge = -1 Multiplicity = 2

                         Standard orientation:
 ---------------------------------------------------------------------
 Center     Atomic      Atomic             Coordinates (Angstroms)
 Number     Number       Type             X           Y           Z
 ---------------------------------------------------------------------
      1          6           0        3.251626   -1.709948    0.154556
      2          6           0        4.020624   -0.635935   -0.187217
      3          8           0        3.266253    0.484998   -0.277359
      4          6           0        1.972800    0.133226    0.000511
      5          6           0        1.918982   -1.210309    0.276000
      6          6           0        1.022057    1.269539    0.041234
      7          8           0        1.413351    2.411997    0.249086
      8          7           0       -0.315887    0.992597   -0.119368
      9          6           0       -0.953483   -0.172905   -0.718247
     10          6           0       -1.767023   -1.006103    0.282414
     11          6           0       -2.865594   -0.224264    1.016385
     12          6           0       -3.932548    0.380107    0.099882
     13          8           0       -4.626523   -0.594547   -0.671268
     14          1           0        3.587497   -2.725938    0.305385
     15          1           0        5.072050   -0.510032   -0.395816
     16          1           0        1.044236   -1.773992    0.562878
     17          1           0       -0.869677    1.837503   -0.049014
     18          1           0       -1.601289    0.175292   -1.533950
     19          1           0       -0.180569   -0.788690   -1.182515
     20          1           0       -2.212832   -1.855723   -0.253516
     21          1           0       -1.086801   -1.434652    1.027825
     22          1           0       -3.360860   -0.895555    1.727458
     23          1           0       -2.407213    0.581857    1.604559
     24          1           0       -4.698438    0.873520    0.705773
     25          1           0       -3.494553    1.155647   -0.550601
     26          1           0       -4.009638   -0.947456   -1.329663
 ---------------------------------------------------------------------

 SCF Done:  E(UB3LYP) =  -631.408265227     A.U. after   33 cycles
 SCF Done:  E(UB3LYP) =  -631.408265227     a.u. after    1 cycles

 The electronic state is 2-A.
 Alpha  occ. eigenvalues --  -19.06580 -19.01790 -18.95374 -14.21371 -10.14288
 Alpha  occ. eigenvalues --  -10.11576 -10.10796 -10.10371 -10.09715 -10.06721
 Alpha  occ. eigenvalues --  -10.06587 -10.06387 -10.05730  -0.99779  -0.91917
 Alpha  occ. eigenvalues --   -0.90843  -0.80268  -0.69044  -0.68740  -0.64431
 Alpha  occ. eigenvalues --   -0.61668  -0.55133  -0.51692  -0.49248  -0.47725
 Alpha  occ. eigenvalues --   -0.44192  -0.41857  -0.41390  -0.38621  -0.36356
 Alpha  occ. eigenvalues --   -0.35332  -0.34192  -0.33554  -0.32374  -0.31855
 Alpha  occ. eigenvalues --   -0.30605  -0.29136  -0.28395  -0.27817  -0.25857
 Alpha  occ. eigenvalues --   -0.25503  -0.24792  -0.24217  -0.22351  -0.17578
 Alpha  occ. eigenvalues --   -0.17438  -0.14201  -0.13282  -0.12248   0.04489
 Alpha virt. eigenvalues --    0.06873   0.07419   0.07868   0.08321   0.09493
 Alpha virt. eigenvalues --    0.10366   0.11415   0.11484   0.11863   0.12282
 Alpha virt. eigenvalues --    0.13641   0.14250   0.14460   0.15614   0.15856

  Beta  occ. eigenvalues --  -19.06404 -19.01737 -18.95182 -14.21366 -10.14142
  Beta  occ. eigenvalues --  -10.11558 -10.10654 -10.10303 -10.09685 -10.06711
  Beta  occ. eigenvalues --  -10.06559 -10.06437 -10.05607  -0.99489  -0.91802
  Beta  occ. eigenvalues --   -0.90519  -0.80152  -0.68901  -0.68647  -0.64140
  Beta  occ. eigenvalues --   -0.61590  -0.55015  -0.51345  -0.49153  -0.47634
  Beta  occ. eigenvalues --   -0.44031  -0.41735  -0.41289  -0.38541  -0.36224
  Beta  occ. eigenvalues --   -0.35092  -0.33781  -0.33301  -0.32230  -0.31739
  Beta  occ. eigenvalues --   -0.30516  -0.29003  -0.28269  -0.27344  -0.25703
  Beta  occ. eigenvalues --   -0.25415  -0.24491  -0.24106  -0.22302  -0.17504
  Beta  occ. eigenvalues --   -0.16850  -0.13867  -0.12940  -0.11445
  Beta virt. eigenvalues --    0.07136   0.07560   0.08458   0.08610   0.08890
  Beta virt. eigenvalues --    0.09522   0.10487   0.11636   0.11716   0.12270
  Beta virt. eigenvalues --    0.12519   0.14123   0.14224   0.14644   0.15563

 Mulliken charges and spin densities:
               1          2
     1  C    0.320450  -1.107389
     2  C   -0.092251   0.420035
     3  O   -0.025887   0.030502
     4  C   -0.806891   0.340334
     5  C   -0.218756   1.039422
     6  C    0.793568  -0.959927
     7  O   -0.393375   0.067141
     8  N   -0.205841   0.038866
     9  C    0.525553  -0.860491
    10  C    0.302061  -0.525342
    11  C   -1.089106   0.878674
    12  C    0.966700  -1.439530
    13  O   -0.229674  -0.014312
    14  H   -0.062294   0.200664
    15  H    0.103647   0.048649
    16  H   -0.013597   0.138833
    17  H    0.354025  -0.029065
    18  H   -0.562991   0.755378
    19  H   -0.035195   0.199980
    20  H   -0.195147   0.356394
    21  H   -0.293867   0.409638
    22  H   -0.065751   0.222227
    23  H    0.098381   0.054433
    24  H    0.016540   0.141648
    25  H   -0.017473   0.161654
    26  H   -0.172829   0.431583
 Sum of Mulliken charges =  -1.00000   1.00000

 Dipole moment (field-independent basis, Debye):
    X=              2.2033    Y=             -0.5927    Z=              2.3025  Tot=              3.2415
 Quadrupole moment (field-independent basis, Debye-Ang):
   XX=           -142.7459   YY=           -109.4583   ZZ=           -102.5872
   XY=            -16.3543   XZ=            -10.8797   YZ=             -2.6731

 Summary of Natural Population Analysis:

                                       Natural Population
                Natural  -----------------------------------------------
    Atom  No    Charge         Core      Valence    Rydberg      Total
 -----------------------------------------------------------------------
      C    1   -0.17293      0.99957     2.16411    0.00925     3.17293
      C    2    0.08758      0.99953     1.89830    0.01460     2.91242
      O    3   -0.20660      0.99986     3.19833    0.00841     4.20660
      C    4    0.11279      0.99944     1.87277    0.01501     2.88721
      C    5   -0.12045      0.99953     2.11340    0.00753     3.12045
      C    6    0.33454      0.99962     1.64429    0.02155     2.66546
      O    7   -0.30446      0.99988     3.29909    0.00549     4.30446
      N    8   -0.32392      0.99968     2.81470    0.00953     3.82392
      C    9   -0.09495      0.99961     2.08304    0.01229     3.09495
      C   10   -0.19887      0.99962     2.18908    0.01017     3.19887
      C   11   -0.20457      0.99962     2.19773    0.00722     3.20457
      C   12   -0.01086      0.99960     1.99775    0.01350     3.01086
      O   13   -0.37136      0.99990     3.36441    0.00705     4.37136
      H   14    0.10405      0.00000     0.39522    0.00074     0.39595
      H   15    0.08837      0.00000     0.41075    0.00087     0.41163
      H   16    0.10635      0.00000     0.39254    0.00111     0.39365
      H   17    0.18814      0.00000     0.30892    0.00293     0.31186
      H   18    0.09378      0.00000     0.40419    0.00203     0.40622
      H   19    0.10716      0.00000     0.39124    0.00160     0.39284
      H   20    0.09906      0.00000     0.39895    0.00198     0.40094
      H   21    0.09883      0.00000     0.39971    0.00146     0.40117
      H   22    0.09864      0.00000     0.40022    0.00114     0.40136
      H   23    0.09939      0.00000     0.39929    0.00132     0.40061
      H   24    0.08381      0.00000     0.41510    0.00108     0.41619
      H   25    0.07361      0.00000     0.42504    0.00135     0.42639
      H   26    0.23286      0.00000     0.25941    0.00774     0.26714
 =======================================================================
   * Total *    0.00000     12.99546    35.83758    0.16695    49.00000

 Normal termination of Gaussian 16 at Wed Dec  9 22:55:49 2020.
