 Gaussian 16, Revision A.03,

 -----------------------------------------------------------
 # opt freq B3LYP/6-31G(d) empiricaldispersion=gd3bj scf=xqc
 -----------------------------------------------------------

 ------------------------------
 CID_23424298_JID_3870_neutraal
 ------------------------------
 Symbolic Z-matrix:
 Charge =  0 Multiplicity = 1

 SCF Done:  E(RB3LYP) =  -938.172923022     A.U. after   14 cycles
 SCF Done:  E(RB3LYP) =  -938.171064916     A.U. after   13 cycles
 SCF Done:  E(RB3LYP) =  -938.173584512     A.U. after   12 cycles
 SCF Done:  E(RB3LYP) =  -938.174588536     A.U. after   12 cycles
 SCF Done:  E(RB3LYP) =  -938.174793604     A.U. after   11 cycles
 SCF Done:  E(RB3LYP) =  -938.174863293     A.U. after   11 cycles
 SCF Done:  E(RB3LYP) =  -938.174882412     A.U. after   10 cycles
 SCF Done:  E(RB3LYP) =  -938.174884642     A.U. after    9 cycles
 SCF Done:  E(RB3LYP) =  -938.174885831     A.U. after    9 cycles
 SCF Done:  E(RB3LYP) =  -938.174885777     A.U. after    8 cycles
 SCF Done:  E(RB3LYP) =  -938.174885715     A.U. after    6 cycles
 Optimization completed.
    -- Stationary point found.
 Normal termination of Gaussian 16 at Sun Dec 13 12:20:50 2020.

 --------------------------------------------------------------------
 #N Geom=AllCheck Guess=TCheck SCRF=Check GenChk RB3LYP/6-31G(d) Freq
 --------------------------------------------------------------------

 Structure from the checkpoint file:  "JID_3870.chk"
 ------------------------------
 CID_23424298_JID_3870_neutraal
 ------------------------------
 Charge =  0 Multiplicity = 1

 SCF Done:  E(RB3LYP) =  -938.174885715     A.U. after    1 cycles

  Exact polarizability: 152.477  -8.588 126.653 -15.856  -9.406  98.709
 Approx polarizability: 220.483 -17.835 214.364 -34.060 -25.471 151.815

                      1                      2                      3
                      A                      A                      A
 Frequencies --     26.5312                47.6151                69.6707
 Red. masses --      4.3672                 4.5186                 3.3009
 Frc consts  --      0.0018                 0.0060                 0.0094
 IR Inten    --      0.1054                 0.2409                 0.2790

                      4                      5                      6
                      A                      A                      A
 Frequencies --    124.6487               162.1623               206.3470
 Red. masses --      3.3884                 1.5923                 4.1267
 Frc consts  --      0.0310                 0.0247                 0.1035
 IR Inten    --      0.1341                 0.2381                 2.0208

                      7                      8                      9
                      A                      A                      A
 Frequencies --    220.9083               231.3668               243.5688
 Red. masses --      3.8573                 2.9503                 3.1698
 Frc consts  --      0.1109                 0.0930                 0.1108
 IR Inten    --      1.8265                 5.0499                 1.2681

                     10                     11                     12
                      A                      A                      A
 Frequencies --    249.5142               285.7337               328.8830
 Red. masses --      3.4915                 2.1222                 4.8992
 Frc consts  --      0.1281                 0.1021                 0.3122
 IR Inten    --      0.7598                 0.3449                 3.5488

                     13                     14                     15
                      A                      A                      A
 Frequencies --    360.4550               367.7360               368.4599
 Red. masses --      1.1275                 1.5361                 1.3344
 Frc consts  --      0.0863                 0.1224                 0.1067
 IR Inten    --    194.8471                 9.2615                12.1058

                     16                     17                     18
                      A                      A                      A
 Frequencies --    415.4343               469.2182               516.0570
 Red. masses --      6.4356                 2.3169                 5.2178
 Frc consts  --      0.6544                 0.3005                 0.8187
 IR Inten    --      1.1628                 1.6733                18.0626

                     19                     20                     21
                      A                      A                      A
 Frequencies --    537.6094               563.6553               587.7999
 Red. masses --      4.5093                 8.0353                 4.6496
 Frc consts  --      0.7679                 1.5041                 0.9465
 IR Inten    --      4.6279                 1.7272                 6.3625

                     22                     23                     24
                      A                      A                      A
 Frequencies --    621.3832               652.1394               686.4676
 Red. masses --      3.9234                 4.4207                 2.5099
 Frc consts  --      0.8926                 1.1077                 0.6969
 IR Inten    --      0.0542                 1.6134                 3.2435

                     25                     26                     27
                      A                      A                      A
 Frequencies --    752.4701               799.4513               809.7535
 Red. masses --      1.2912                 1.4554                 1.9566
 Frc consts  --      0.4307                 0.5480                 0.7559
 IR Inten    --     20.0100                37.5667                 6.6238

                     28                     29                     30
                      A                      A                      A
 Frequencies --    818.0031               851.9020               888.9911
 Red. masses --      1.5224                 1.4455                 2.5610
 Frc consts  --      0.6002                 0.6181                 1.1925
 IR Inten    --     14.6739                15.6076                16.8498

                     31                     32                     33
                      A                      A                      A
 Frequencies --    892.7287               936.0634               986.6525
 Red. masses --      2.3519                 1.8908                 1.7410
 Frc consts  --      1.1044                 0.9761                 0.9986
 IR Inten    --      9.0084                 2.6923                 0.9453

                     34                     35                     36
                      A                      A                      A
 Frequencies --   1014.9404              1024.1593              1081.3005
 Red. masses --      6.0448                 3.0341                 1.8587
 Frc consts  --      3.6687                 1.8751                 1.2804
 IR Inten    --      8.7240                57.3620                 1.7995

                     37                     38                     39
                      A                      A                      A
 Frequencies --   1105.3520              1128.9201              1143.6513
 Red. masses --      1.3676                 1.8598                 1.6089
 Frc consts  --      0.9845                 1.3965                 1.2398
 IR Inten    --      2.5916                 1.2942                 4.8324

                     40                     41                     42
                      A                      A                      A
 Frequencies --   1175.0653              1220.3194              1232.5529
 Red. masses --      1.5214                 1.2821                 1.2694
 Frc consts  --      1.2377                 1.1249                 1.1362
 IR Inten    --    219.0486                 2.1381                86.4209

                     43                     44                     45
                      A                      A                      A
 Frequencies --   1235.9643              1270.9535              1324.7209
 Red. masses --      1.5188                 1.3316                 1.2362
 Frc consts  --      1.3670                 1.2673                 1.2782
 IR Inten    --      2.9870                 0.7225                14.8939

                     46                     47                     48
                      A                      A                      A
 Frequencies --   1336.4207              1342.2549              1364.3492
 Red. masses --      1.3239                 1.1938                 5.4498
 Frc consts  --      1.3931                 1.2673                 5.9770
 IR Inten    --     43.6172                19.0678                71.3268

                     49                     50                     51
                      A                      A                      A
 Frequencies --   1385.1853              1400.2602              1407.4440
 Red. masses --      4.2768                 1.3521                 1.4735
 Frc consts  --      4.8349                 1.5620                 1.7197
 IR Inten    --     67.9107                 3.3250                 4.9770

                     52                     53                     54
                      A                      A                      A
 Frequencies --   1446.0766              1488.8342              1493.2047
 Red. masses --      1.2636                 2.0536                 1.4052
 Frc consts  --      1.5569                 2.6820                 1.8460
 IR Inten    --      4.6757                86.6578                84.1345

                     55                     56                     57
                      A                      A                      A
 Frequencies --   1508.4644              1522.1771              1531.9199
 Red. masses --      1.0977                 1.0640                 1.0598
 Frc consts  --      1.4716                 1.4525                 1.4653
 IR Inten    --      6.6566                 5.9003                10.5521

                     58                     59                     60
                      A                      A                      A
 Frequencies --   1543.2073              1554.8479              1649.3414
 Red. masses --      1.0570                 2.7916                 6.0951
 Frc consts  --      1.4831                 3.9764                 9.7691
 IR Inten    --      1.6839                23.0392               170.8628

                     61                     62                     63
                      A                      A                      A
 Frequencies --   1672.8607              3015.8796              3045.0217
 Red. masses --      6.0700                 1.0671                 1.0579
 Frc consts  --     10.0083                 5.7186                 5.7795
 IR Inten    --    156.4853                35.9159                30.6623

                     64                     65                     66
                      A                      A                      A
 Frequencies --   3046.2281              3072.5714              3081.2263
 Red. masses --      1.0498                 1.0909                 1.0645
 Frc consts  --      5.7398                 6.0681                 5.9545
 IR Inten    --     27.0384                23.9464                24.7795

                     67                     68                     69
                      A                      A                      A
 Frequencies --   3091.8083              3111.8382              3129.3722
 Red. masses --      1.0943                 1.0995                 1.1027
 Frc consts  --      6.1630                 6.2730                 6.3626
 IR Inten    --     17.6520                42.0778                26.3786

                     70                     71                     72
                      A                      A                      A
 Frequencies --   3134.9329              3185.6223              3192.3189
 Red. masses --      1.1022                 1.0904                 1.0909
 Frc consts  --      6.3819                 6.5196                 6.5500
 IR Inten    --     21.8941                 7.9603                 4.4328

                     73                     74                     75
                      A                      A                      A
 Frequencies --   3239.1696              3753.2083              3753.6238
 Red. masses --      1.0918                 1.0660                 1.0659
 Frc consts  --      6.7493                 8.8470                 8.8485
 IR Inten    --      0.3253                71.6898                10.7528

 - Thermochemistry -
 -------------------
 Temperature   298.150 Kelvin.  Pressure   1.00000 Atm.
 Atom     1 has atomic number  6 and mass  12.00000

 Molecular mass:   198.07145 amu.
 Principal axes and moments of inertia in atomic units:
                           1         2         3
     Eigenvalues --  1972.709993935.806184168.09686
           X            0.99970   0.00525   0.02392
           Y           -0.00548   0.99994   0.00938
           Z           -0.02387  -0.00950   0.99967
 This molecule is an asymmetric top.
 Rotational symmetry number  1.
 Warning -- assumption of classical behavior for rotation
           may cause significant error
 Rotational temperatures (Kelvin)      0.04391     0.02201     0.02078
 Rotational constants (GHZ):           0.91485     0.45854     0.43299
 Zero-point vibrational energy     589381.9 (Joules/Mol)
                                  140.86564 (Kcal/Mol)
 Warning -- explicit consideration of  21 degrees of freedom as
           vibrations may cause significant error
 Vibrational temperatures:     38.17    68.51   100.24   179.34   233.32
          (Kelvin)            296.89   317.84   332.89   350.44   359.00
                              411.11   473.19   518.61   529.09   530.13
                              597.72   675.10   742.49   773.50   810.97
                              845.71   894.03   938.28   987.67  1082.64
                             1150.23  1165.05  1176.92  1225.70  1279.06
                             1284.44  1346.79  1419.57  1460.27  1473.54
                             1555.75  1590.36  1624.26  1645.46  1690.66
                             1755.77  1773.37  1778.28  1828.62  1905.98
                             1922.81  1931.21  1962.99  1992.97  2014.66
                             2025.00  2080.58  2142.10  2148.39  2170.34
                             2190.07  2204.09  2220.33  2237.08  2373.03
                             2406.87  4339.18  4381.11  4382.84  4420.74
                             4433.20  4448.42  4477.24  4502.47  4510.47
                             4583.40  4593.03  4660.44  5400.03  5400.63

 Zero-point correction=                           0.224484 (Hartree/Particle)
 Thermal correction to Energy=                    0.238205
 Thermal correction to Enthalpy=                  0.239149
 Thermal correction to Gibbs Free Energy=         0.183523
 Sum of electronic and zero-point Energies=           -937.950402
 Sum of electronic and thermal Energies=              -937.936681
 Sum of electronic and thermal Enthalpies=            -937.935737
 Sum of electronic and thermal Free Energies=         -937.991362

                     E (Thermal)             CV                S
                      KCal/Mol        Cal/Mol-Kelvin    Cal/Mol-Kelvin
 Total                  149.476             52.008            117.074
 Electronic               0.000              0.000              0.000
 Translational            0.889              2.981             41.755
 Rotational               0.889              2.981             31.848
 Vibrational            147.698             46.046             43.470
 Vibration     1          0.593              1.984              6.073
 Vibration     2          0.595              1.978              4.914
 Vibration     3          0.598              1.969              4.163
 Vibration     4          0.610              1.928              3.027
 Vibration     5          0.622              1.889              2.524
 Vibration     6          0.641              1.831              2.076
 Vibration     7          0.648              1.809              1.952
 Vibration     8          0.653              1.793              1.868
 Vibration     9          0.659              1.773              1.777
 Vibration    10          0.662              1.764              1.734
 Vibration    11          0.684              1.700              1.499
 Vibration    12          0.712              1.618              1.266
 Vibration    13          0.735              1.554              1.120
 Vibration    14          0.740              1.539              1.089
 Vibration    15          0.741              1.537              1.086
 Vibration    16          0.779              1.437              0.908
 Vibration    17          0.826              1.318              0.740
 Vibration    18          0.871              1.214              0.619
 Vibration    19          0.893              1.167              0.570
 Vibration    20          0.919              1.110              0.517
 Vibration    21          0.945              1.058              0.471

 Optimization completed.
    -- Stationary point found.
 Normal termination of Gaussian 16 at Sun Dec 13 12:27:53 2020.

 ----------------------------------------------------------------------
 # B3LYP/6-311++G(d,p) empiricaldispersion=gd3bj scf=xqc pop=npa geom=c
 heck
 ----------------------------------------------------------------------

 --------------------------------------
 CID_23424298_JID_3870_Energie_neutraal
 --------------------------------------
 Structure from the checkpoint file:  "JID_3870.chk"
 Charge =  0 Multiplicity = 1

 SCF Done:  E(RB3LYP) =  -938.367908913     A.U. after   16 cycles
 Normal termination of Gaussian 16 at Sun Dec 13 12:30:53 2020.

 ----------------------------------------------------------------------
 # B3LYP/6-311++G(d,p) empiricaldispersion=gd3bj scf=xqc pop=npa geom=c
 heck
 ----------------------------------------------------------------------

 ------------------------------------
 CID_23424298_JID_3870_Energie_kation
 ------------------------------------
 Structure from the checkpoint file:  "JID_3870.chk"
 Charge =  1 Multiplicity = 2

 SCF Done:  E(UB3LYP) =  -938.074291614     A.U. after   30 cycles
 Normal termination of Gaussian 16 at Sun Dec 13 12:38:24 2020.
 Gaussian 16:  ES64L-G16RevA.03 25-Dec-2016

 ----------------------------------------------------------------------
 # B3LYP/6-311++G(d,p) empiricaldispersion=gd3bj scf=xqc pop=npa geom=c
 heck
 ----------------------------------------------------------------------

 -----------------------------------
 CID_23424298_JID_3870_Energie_anion
 -----------------------------------
 Structure from the checkpoint file:  "JID_3870.chk"
 Charge = -1 Multiplicity = 2

                         Standard orientation:
 ---------------------------------------------------------------------
 Center     Atomic      Atomic             Coordinates (Angstroms)
 Number     Number       Type             X           Y           Z
 ---------------------------------------------------------------------
      1          6           0        1.414507    0.597483    2.259156
      2          6           0        2.266472    1.224691    1.152372
      3          6           0        3.212165    0.243693    0.448277
      4          6           0        2.541218   -0.931024   -0.269652
      5         16           0        1.449981   -0.455019   -1.682846
      6          6           0       -0.136258   -0.253941   -0.873888
      7          6           0       -0.772985    0.986753   -0.930384
      8          6           0       -2.025547    1.143744   -0.323162
      9          6           0       -2.635691    0.083943    0.345048
     10          6           0       -1.988948   -1.151668    0.386465
     11          6           0       -0.746635   -1.335006   -0.230375
     12          8           0       -2.632081   -2.164625    1.038716
     13          8           0       -2.693930    2.334122   -0.341404
     14          1           0        0.710699   -0.139248    1.859989
     15          1           0        0.823984    1.361549    2.776253
     16          1           0        2.042572    0.097788    3.007759
     17          1           0        1.611633    1.690899    0.407709
     18          1           0        2.874643    2.033680    1.577819
     19          1           0        3.824836    0.791608   -0.278215
     20          1           0        3.908568   -0.181203    1.187532
     21          1           0        3.301680   -1.582205   -0.712108
     22          1           0        1.950939   -1.543249    0.417198
     23          1           0       -0.286891    1.823546   -1.423911
     24          1           0       -3.600747    0.214938    0.819551
     25          1           0       -0.266625   -2.309952   -0.223457
     26          1           0       -2.087801   -2.965385    0.987136
     27          1           0       -2.168887    2.979559   -0.839362
 ---------------------------------------------------------------------

 SCF Done:  E(UB3LYP) =  -938.358510172     A.U. after   33 cycles
 SCF Done:  E(UB3LYP) =  -938.358510172     a.u. after    1 cycles

 The electronic state is 2-A.
 Alpha  occ. eigenvalues --  -88.74581 -19.05568 -19.05366 -10.14313 -10.14274
 Alpha  occ. eigenvalues --  -10.11185 -10.10309 -10.07714 -10.07343 -10.07185
 Alpha  occ. eigenvalues --  -10.06935 -10.06835 -10.05805  -7.83195  -5.79592
 Alpha  occ. eigenvalues --   -5.79225  -5.78563  -0.96760  -0.96472  -0.76397
 Alpha  occ. eigenvalues --   -0.71870  -0.68038  -0.64463  -0.64091  -0.59369
 Alpha  occ. eigenvalues --   -0.54460  -0.53900  -0.49283  -0.47031  -0.45457
 Alpha  occ. eigenvalues --   -0.41857  -0.40637  -0.37581  -0.37034  -0.36697
 Alpha  occ. eigenvalues --   -0.32792  -0.32685  -0.31764  -0.31098  -0.29997
 Alpha  occ. eigenvalues --   -0.29421  -0.29189  -0.28707  -0.28050  -0.26124
 Alpha  occ. eigenvalues --   -0.24576  -0.24153  -0.23654  -0.22811  -0.20559
 Alpha  occ. eigenvalues --   -0.15326  -0.12730  -0.12431   0.04124
 Alpha virt. eigenvalues --    0.05809   0.06547   0.07213   0.08203   0.08844
 Alpha virt. eigenvalues --    0.09729   0.09840   0.10228   0.10858   0.10899
 Alpha virt. eigenvalues --    0.11613   0.12196   0.12585   0.13531   0.14378

  Beta  occ. eigenvalues --  -88.74579 -19.05517 -19.05311 -10.14311 -10.14274
  Beta  occ. eigenvalues --  -10.11179 -10.10289 -10.07702 -10.07325 -10.07153
  Beta  occ. eigenvalues --  -10.06920 -10.06826 -10.05790  -7.83193  -5.79591
  Beta  occ. eigenvalues --   -5.79221  -5.78560  -0.96658  -0.96363  -0.76365
  Beta  occ. eigenvalues --   -0.71844  -0.68007  -0.64428  -0.64041  -0.59341
  Beta  occ. eigenvalues --   -0.54400  -0.53822  -0.49246  -0.46944  -0.45390
  Beta  occ. eigenvalues --   -0.41807  -0.40565  -0.37553  -0.37011  -0.36659
  Beta  occ. eigenvalues --   -0.32756  -0.32662  -0.31717  -0.31068  -0.29970
  Beta  occ. eigenvalues --   -0.29376  -0.29159  -0.28657  -0.27996  -0.26087
  Beta  occ. eigenvalues --   -0.24545  -0.24127  -0.23633  -0.22781  -0.20524
  Beta  occ. eigenvalues --   -0.15294  -0.12692  -0.12405
  Beta virt. eigenvalues --    0.06444   0.07165   0.07603   0.07828   0.08507
  Beta virt. eigenvalues --    0.09194   0.09855   0.09952   0.10373   0.10953
  Beta virt. eigenvalues --    0.11057   0.11944   0.12467   0.12854   0.13631

 Mulliken charges and spin densities:
               1          2
     1  C    0.111612  -0.692356
     2  C   -0.216572   0.176549
     3  C   -0.543066   0.025934
     4  C    0.384012  -0.613174
     5  S    1.086334  -1.261885
     6  C    2.216800  -1.040702
     7  C   -2.419395   1.937699
     8  C   -0.728472   0.125008
     9  C    3.242253  -3.061262
    10  C   -0.404940  -0.193372
    11  C   -1.405953   1.187157
    12  O   -0.210135   0.008798
    13  O   -0.210729   0.003000
    14  H    0.097463   0.103280
    15  H   -0.011400   0.131722
    16  H   -0.020930   0.146643
    17  H    0.089014   0.046468
    18  H   -0.110954   0.281959
    19  H    0.031592   0.100815
    20  H   -0.090283   0.209834
    21  H   -0.096482   0.332266
    22  H    0.023717   0.132449
    23  H   -0.469262   0.623309
    24  H    0.276569  -0.082729
    25  H   -0.744913   0.928032
    26  H   -0.435778   0.723834
    27  H   -0.440103   0.720723
 Sum of Mulliken charges =  -1.00000   1.00000

 Dipole moment (field-independent basis, Debye):
    X=              2.2816    Y=              1.2202    Z=             -0.2837  Tot=              2.6029
 Quadrupole moment (field-independent basis, Debye-Ang):
   XX=           -133.1010   YY=           -148.3574   ZZ=           -118.3674
   XY=              2.0465   XZ=              0.0931   YZ=              7.4107

 Summary of Natural Population Analysis:

                                       Natural Population
                Natural  -----------------------------------------------
    Atom  No    Charge         Core      Valence    Rydberg      Total
 -----------------------------------------------------------------------
      C    1   -0.28804      0.99966     2.28374    0.00464     3.28804
      C    2   -0.19403      0.99963     2.18727    0.00712     3.19403
      C    3   -0.19192      0.99961     2.18395    0.00836     3.19192
      C    4   -0.24742      0.99958     2.23596    0.01189     3.24742
      S    5    0.10169      4.99954     2.88124    0.01753     7.89831
      C    6   -0.07236      0.99942     2.05980    0.01313     3.07236
      C    7   -0.15989      0.99943     2.14752    0.01293     3.15989
      C    8    0.17023      0.99940     1.81671    0.01367     2.82977
      C    9   -0.15124      0.99947     2.14214    0.00963     3.15124
      C   10    0.17079      0.99940     1.81606    0.01375     2.82921
      C   11   -0.16217      0.99943     2.14946    0.01328     3.16217
      O   12   -0.33869      0.99988     3.33180    0.00702     4.33869
      O   13   -0.33833      0.99988     3.33143    0.00702     4.33833
      H   14    0.10234      0.00000     0.39606    0.00160     0.39766
      H   15    0.09949      0.00000     0.39949    0.00102     0.40051
      H   16    0.09213      0.00000     0.40670    0.00116     0.40787
      H   17    0.10134      0.00000     0.39692    0.00174     0.39866
      H   18    0.09302      0.00000     0.40588    0.00110     0.40698
      H   19    0.09737      0.00000     0.40122    0.00141     0.40263
      H   20    0.09521      0.00000     0.40336    0.00143     0.40479
      H   21    0.10492      0.00000     0.39389    0.00119     0.39508
      H   22    0.10708      0.00000     0.39108    0.00184     0.39292
      H   23    0.10780      0.00000     0.39050    0.00170     0.39220
      H   24    0.11075      0.00000     0.38829    0.00095     0.38925
      H   25    0.10904      0.00000     0.38867    0.00230     0.39096
      H   26    0.24117      0.00000     0.24685    0.01198     0.25883
      H   27    0.23972      0.00000     0.24880    0.01148     0.26028
 =======================================================================
   * Total *    0.00000     16.99433    35.82477    0.18090    53.00000

 Normal termination of Gaussian 16 at Sun Dec 13 12:46:21 2020.
