 Gaussian 16, Revision A.03,

 -----------------------------------------------------------
 # opt freq B3LYP/6-31G(d) empiricaldispersion=gd3bj scf=xqc
 -----------------------------------------------------------

 -------------------------------
 CID_115117218_JID_8442_neutraal
 -------------------------------
 Symbolic Z-matrix:
 Charge =  0 Multiplicity = 1

 SCF Done:  E(RB3LYP) =  -733.729915815     A.U. after   14 cycles
 SCF Done:  E(RB3LYP) =  -733.735691442     A.U. after   12 cycles
 SCF Done:  E(RB3LYP) =  -733.735185934     A.U. after   12 cycles
 SCF Done:  E(RB3LYP) =  -733.736525556     A.U. after   12 cycles
 SCF Done:  E(RB3LYP) =  -733.737586566     A.U. after   11 cycles
 SCF Done:  E(RB3LYP) =  -733.737851290     A.U. after   11 cycles
 SCF Done:  E(RB3LYP) =  -733.737968558     A.U. after   11 cycles
 SCF Done:  E(RB3LYP) =  -733.738033086     A.U. after   11 cycles
 SCF Done:  E(RB3LYP) =  -733.738173641     A.U. after   12 cycles
 SCF Done:  E(RB3LYP) =  -733.737911933     A.U. after   14 cycles
 SCF Done:  E(RB3LYP) =  -733.738813395     A.U. after   11 cycles
 SCF Done:  E(RB3LYP) =  -733.738816559     A.U. after    9 cycles
 SCF Done:  E(RB3LYP) =  -733.738817939     A.U. after    9 cycles
 SCF Done:  E(RB3LYP) =  -733.738818247     A.U. after    8 cycles
 SCF Done:  E(RB3LYP) =  -733.738818288     A.U. after    7 cycles
 Optimization completed.
    -- Stationary point found.
 Normal termination of Gaussian 16 at Thu Dec 17 20:20:49 2020.

 --------------------------------------------------------------------
 #N Geom=AllCheck Guess=TCheck SCRF=Check GenChk RB3LYP/6-31G(d) Freq
 --------------------------------------------------------------------

 Structure from the checkpoint file:  "JID_8442.chk"
 -------------------------------
 CID_115117218_JID_8442_neutraal
 -------------------------------
 Charge =  0 Multiplicity = 1

 SCF Done:  E(RB3LYP) =  -733.738818288     A.U. after    1 cycles

  Exact polarizability: 230.160   1.639 176.549   3.682  -8.342 126.385
 Approx polarizability: 305.028   1.380 268.990   7.366 -20.831 196.968

                      1                      2                      3
                      A                      A                      A
 Frequencies --     20.8480                47.5545                57.6047
 Red. masses --      3.3812                 3.6536                 3.8429
 Frc consts  --      0.0009                 0.0049                 0.0075
 IR Inten    --      1.4531                 0.0935                 0.2240

                      4                      5                      6
                      A                      A                      A
 Frequencies --    101.4308               116.8623               152.8652
 Red. masses --      2.7565                 2.5228                 2.8367
 Frc consts  --      0.0167                 0.0203                 0.0391
 IR Inten    --      0.2725                 0.6627                 1.3065

                      7                      8                      9
                      A                      A                      A
 Frequencies --    174.7283               185.8217               206.4002
 Red. masses --      2.2475                 2.7726                 3.3934
 Frc consts  --      0.0404                 0.0564                 0.0852
 IR Inten    --      1.6855                 3.2421                 0.3390

                     10                     11                     12
                      A                      A                      A
 Frequencies --    259.7950               299.7144               304.4262
 Red. masses --      3.0804                 2.2293                 2.0236
 Frc consts  --      0.1225                 0.1180                 0.1105
 IR Inten    --      1.7452                 1.0976                 3.0995

                     13                     14                     15
                      A                      A                      A
 Frequencies --    317.3741               324.2876               342.2466
 Red. masses --      1.3207                 2.5978                 1.3379
 Frc consts  --      0.0784                 0.1610                 0.0923
 IR Inten    --     13.6582                 1.2366                85.0220

                     16                     17                     18
                      A                      A                      A
 Frequencies --    357.7019               372.1113               402.8860
 Red. masses --      2.1655                 2.6799                 2.9455
 Frc consts  --      0.1632                 0.2186                 0.2817
 IR Inten    --      7.0645                 2.3775                 7.1452

                     19                     20                     21
                      A                      A                      A
 Frequencies --    431.5932               443.9523               462.6949
 Red. masses --      3.0883                 2.6677                 3.1671
 Frc consts  --      0.3389                 0.3098                 0.3995
 IR Inten    --      4.6240                 3.3895                 0.2394

                     22                     23                     24
                      A                      A                      A
 Frequencies --    488.5368               510.3551               561.6167
 Red. masses --      3.5351                 3.1644                 3.8947
 Frc consts  --      0.4971                 0.4856                 0.7238
 IR Inten    --      1.4057                 2.1295                 2.4030

                     25                     26                     27
                      A                      A                      A
 Frequencies --    587.3757               619.6614               635.9142
 Red. masses --      3.1287                 2.3989                 3.3251
 Frc consts  --      0.6360                 0.5427                 0.7922
 IR Inten    --      2.1604                 6.2473                 1.4971

                     28                     29                     30
                      A                      A                      A
 Frequencies --    683.3990               720.6549               737.8455
 Red. masses --      3.2968                 3.2522                 3.1879
 Frc consts  --      0.9072                 0.9951                 1.0225
 IR Inten    --      2.7942                 4.8348                 1.9070

                     31                     32                     33
                      A                      A                      A
 Frequencies --    754.1793               761.5617               824.0670
 Red. masses --      3.8266                 1.3927                 2.7514
 Frc consts  --      1.2824                 0.4759                 1.1009
 IR Inten    --      0.7120                 3.3297                 6.9175

                     34                     35                     36
                      A                      A                      A
 Frequencies --    829.1494               847.4722               876.7273
 Red. masses --      1.5619                 1.5302                 2.7724
 Frc consts  --      0.6327                 0.6475                 1.2556
 IR Inten    --      7.9023                 6.7119                 7.0050

                     37                     38                     39
                      A                      A                      A
 Frequencies --    882.7506               895.8066               906.3977
 Red. masses --      2.3817                 1.5962                 2.1644
 Frc consts  --      1.0935                 0.7547                 1.0477
 IR Inten    --      8.8102                 2.6732                 1.7029

                     40                     41                     42
                      A                      A                      A
 Frequencies --    914.6787               934.1361               934.4716
 Red. masses --      1.7471                 2.0334                 1.3965
 Frc consts  --      0.8612                 1.0454                 0.7185
 IR Inten    --     38.8136                52.4788                 3.0648

                     43                     44                     45
                      A                      A                      A
 Frequencies --    951.8150               963.9194               989.5723
 Red. masses --      1.3393                 2.6835                 1.7586
 Frc consts  --      0.7149                 1.4690                 1.0147
 IR Inten    --      0.6896                 1.8434                44.5268

                     46                     47                     48
                      A                      A                      A
 Frequencies --   1005.1745              1007.4488              1017.1729
 Red. masses --      2.1604                 1.5155                 2.3338
 Frc consts  --      1.2861                 0.9063                 1.4226
 IR Inten    --      3.9959                18.1845                17.8732

                     49                     50                     51
                      A                      A                      A
 Frequencies --   1067.2449              1085.5106              1106.8167
 Red. masses --      2.9779                 1.8047                 2.3469
 Frc consts  --      1.9984                 1.2529                 1.6939
 IR Inten    --      2.9596                 2.8655                24.5789

                     52                     53                     54
                      A                      A                      A
 Frequencies --   1114.7062              1131.5816              1152.8157
 Red. masses --      1.8584                 2.3698                 1.3291
 Frc consts  --      1.3605                 1.7878                 1.0407
 IR Inten    --      1.7622                26.7101                 8.1322

                     55                     56                     57
                      A                      A                      A
 Frequencies --   1158.1231              1166.2398              1167.9734
 Red. masses --      1.6994                 1.7582                 1.1634
 Frc consts  --      1.3429                 1.4089                 0.9351
 IR Inten    --     25.5811                19.0113                 0.5963

                     58                     59                     60
                      A                      A                      A
 Frequencies --   1178.8640              1190.9098              1199.6256
 Red. masses --      1.6282                 2.3478                 1.3670
 Frc consts  --      1.3332                 1.9618                 1.1590
 IR Inten    --      4.9938                11.6675                 1.5837

                     61                     62                     63
                      A                      A                      A
 Frequencies --   1221.3078              1225.3452              1239.4124
 Red. masses --      1.3310                 1.7113                 2.1511
 Frc consts  --      1.1698                 1.5139                 1.9469
 IR Inten    --      4.3362                 5.8178                 3.2105

                     64                     65                     66
                      A                      A                      A
 Frequencies --   1257.3352              1273.0816              1277.2218
 Red. masses --      1.6592                 1.4327                 1.3578
 Frc consts  --      1.5454                 1.3681                 1.3050
 IR Inten    --      1.4251                 6.5622                 0.9219

                     67                     68                     69
                      A                      A                      A
 Frequencies --   1288.4205              1291.0726              1323.3248
 Red. masses --      1.2899                 1.3150                 1.3156
 Frc consts  --      1.2616                 1.2915                 1.3574
 IR Inten    --     19.4994                 0.2695                 6.2410

                     70                     71                     72
                      A                      A                      A
 Frequencies --   1325.4635              1339.0302              1347.3452
 Red. masses --      1.2728                 2.0904                 3.3191
 Frc consts  --      1.3175                 2.2083                 3.5500
 IR Inten    --      0.7314               108.9115                 1.9625

                     73                     74                     75
                      A                      A                      A
 Frequencies --   1349.0799              1360.4397              1376.2478
 Red. masses --      1.5489                 1.4071                 1.4567
 Frc consts  --      1.6609                 1.5343                 1.6256
 IR Inten    --      5.8507                 3.6210                 1.5002

                     76                     77                     78
                      A                      A                      A
 Frequencies --   1377.9717              1388.5338              1394.0245
 Red. masses --      1.4156                 1.4712                 1.4954
 Frc consts  --      1.5837                 1.6712                 1.7121
 IR Inten    --      8.7351                 0.9088                 5.7077

                     79                     80                     81
                      A                      A                      A
 Frequencies --   1406.8246              1433.0529              1442.5059
 Red. masses --      1.5772                 1.3575                 1.3964
 Frc consts  --      1.8392                 1.6426                 1.7120
 IR Inten    --     17.1418                 5.7265                 7.1734

                     82                     83                     84
                      A                      A                      A
 Frequencies --   1472.4137              1487.6785              1504.4797
 Red. masses --      2.9639                 1.2787                 1.1197
 Frc consts  --      3.7859                 1.6673                 1.4932
 IR Inten    --      5.8153                 8.9907                 0.2243

                     85                     86                     87
                      A                      A                      A
 Frequencies --   1511.9409              1514.3399              1519.6813
 Red. masses --      1.0878                 1.0781                 1.0934
 Frc consts  --      1.4651                 1.4566                 1.4878
 IR Inten    --      2.7245                 3.8633                 4.4661

                     88                     89                     90
                      A                      A                      A
 Frequencies --   1520.8877              1527.2434              1532.0009
 Red. masses --      1.0879                 1.0556                 1.1038
 Frc consts  --      1.4826                 1.4507                 1.5264
 IR Inten    --      3.7537                16.4930                 1.6421

                     91                     92                     93
                      A                      A                      A
 Frequencies --   1542.9528              1554.7471              1559.1937
 Red. masses --      1.1021                 1.1214                 2.2170
 Frc consts  --      1.5459                 1.5971                 3.1756
 IR Inten    --     15.4004                11.8990                83.2597

                     94                     95                     96
                      A                      A                      A
 Frequencies --   1622.8891              1670.7894              1678.8560
 Red. masses --      6.3556                 2.7642                 1.3942
 Frc consts  --      9.8624                 4.5463                 2.3153
 IR Inten    --      9.2227                56.0441                38.3649

                     97                     98                     99
                      A                      A                      A
 Frequencies --   2962.8461              3007.8209              3013.6163
 Red. masses --      1.0600                 1.0703                 1.0689
 Frc consts  --      5.4822                 5.7052                 5.7198
 IR Inten    --     82.3039                33.4893                18.6101

                    100                    101                    102
                      A                      A                      A
 Frequencies --   3019.4031              3030.2466              3033.8569
 Red. masses --      1.0849                 1.0676                 1.0848
 Frc consts  --      5.8273                 5.7757                 5.8827
 IR Inten    --     16.7662                22.1562                45.2780

                    103                    104                    105
                      A                      A                      A
 Frequencies --   3035.7179              3049.5868              3063.2268
 Red. masses --      1.0615                 1.0621                 1.0912
 Frc consts  --      5.7639                 5.8195                 6.0329
 IR Inten    --     27.9903                37.6041                58.0559

                    106                    107                    108
                      A                      A                      A
 Frequencies --   3063.6740              3064.2695              3079.4859
 Red. masses --      1.0682                 1.0915                 1.0719
 Frc consts  --      5.9073                 6.0384                 5.9891
 IR Inten    --     22.1389                28.6390                34.3086

                    109                    110                    111
                      A                      A                      A
 Frequencies --   3081.5608              3084.3623              3091.2441
 Red. masses --      1.0958                 1.1052                 1.0982
 Frc consts  --      6.1308                 6.1949                 6.1829
 IR Inten    --     80.3095                56.5329                38.0226

                    112                    113                    114
                      A                      A                      A
 Frequencies --   3102.1676              3108.5350              3145.4577
 Red. masses --      1.0736                 1.1027                 1.0958
 Frc consts  --      6.0871                 6.2777                 6.3880
 IR Inten    --     27.1192                69.7320                18.8733

                    115                    116                    117
                      A                      A                      A
 Frequencies --   3155.1756              3167.1657              3218.1208
 Red. masses --      1.1041                 1.0888                 1.0880
 Frc consts  --      6.4758                 6.4351                 6.6389
 IR Inten    --     10.0976                24.7991                 8.4078

                    118                    119                    120
                      A                      A                      A
 Frequencies --   3218.8008              3455.1744              3541.4239
 Red. masses --      1.0911                 1.0494                 1.0918
 Frc consts  --      6.6605                 7.3811                 8.0678
 IR Inten    --     14.5397                 3.5421                 0.1763

 - Thermochemistry -
 -------------------
 Temperature   298.150 Kelvin.  Pressure   1.00000 Atm.
 Atom     1 has atomic number  6 and mass  12.00000

 Molecular mass:   244.19395 amu.
 Principal axes and moments of inertia in atomic units:
                           1         2         3
     Eigenvalues --  2207.257427154.538078419.23122
           X            0.99999   0.00425  -0.00016
           Y           -0.00425   0.99998  -0.00410
           Z            0.00014   0.00410   0.99999
 This molecule is an asymmetric top.
 Rotational symmetry number  1.
 Warning -- assumption of classical behavior for rotation
           may cause significant error
 Rotational temperatures (Kelvin)      0.03924     0.01211     0.01029
 Rotational constants (GHZ):           0.81764     0.25225     0.21436
 Zero-point vibrational energy     998255.3 (Joules/Mol)
                                  238.58873 (Kcal/Mol)
 Warning -- explicit consideration of  26 degrees of freedom as
           vibrations may cause significant error
 Vibrational temperatures:     30.00    68.42    82.88   145.94   168.14
          (Kelvin)            219.94   251.40   267.36   296.96   373.79
                              431.22   438.00   456.63   466.58   492.42
                              514.65   535.39   579.66   620.97   638.75
                              665.71   702.90   734.29   808.04   845.10
                              891.55   914.94   983.26  1036.86  1061.60
                             1085.10  1095.72  1185.65  1192.96  1219.32
                             1261.42  1270.08  1288.87  1304.10  1316.02
                             1344.01  1344.50  1369.45  1386.86  1423.77
                             1446.22  1449.49  1463.48  1535.53  1561.81
                             1592.46  1603.81  1628.09  1658.64  1666.28
                             1677.96  1680.45  1696.12  1713.45  1725.99
                             1757.19  1763.00  1783.24  1809.02  1831.68
                             1837.64  1853.75  1857.57  1903.97  1907.05
                             1926.57  1938.53  1941.03  1957.37  1980.11
                             1982.59  1997.79  2005.69  2024.11  2061.84
                             2075.44  2118.47  2140.44  2164.61  2175.35
                             2178.80  2186.48  2188.22  2197.36  2204.21
                             2219.96  2236.93  2243.33  2334.98  2403.89
                             2415.50  4262.87  4327.58  4335.92  4344.25
                             4359.85  4365.04  4367.72  4387.68  4407.30
                             4407.94  4408.80  4430.69  4433.68  4437.71
                             4447.61  4463.33  4472.49  4525.61  4539.59
                             4556.85  4630.16  4631.14  4971.23  5095.32

 Zero-point correction=                           0.380215 (Hartree/Particle)
 Thermal correction to Energy=                    0.396616
 Thermal correction to Enthalpy=                  0.397560
 Thermal correction to Gibbs Free Energy=         0.336111
 Sum of electronic and zero-point Energies=           -733.358603
 Sum of electronic and thermal Energies=              -733.342202
 Sum of electronic and thermal Enthalpies=            -733.341258
 Sum of electronic and thermal Free Energies=         -733.402707

                     E (Thermal)             CV                S
                      KCal/Mol        Cal/Mol-Kelvin    Cal/Mol-Kelvin
 Total                  248.880             66.706            129.331
 Electronic               0.000              0.000              0.000
 Translational            0.889              2.981             42.379
 Rotational               0.889              2.981             33.252
 Vibrational            247.103             60.744             53.699
 Vibration     1          0.593              1.986              6.552
 Vibration     2          0.595              1.979              4.917
 Vibration     3          0.596              1.974              4.538
 Vibration     4          0.604              1.948              3.427
 Vibration     5          0.608              1.935              3.152
 Vibration     6          0.619              1.899              2.636
 Vibration     7          0.627              1.874              2.384
 Vibration     8          0.632              1.859              2.269
 Vibration     9          0.641              1.831              2.075
 Vibration    10          0.668              1.746              1.663
 Vibration    11          0.692              1.674              1.418
 Vibration    12          0.695              1.665              1.392
 Vibration    13          0.704              1.640              1.324
 Vibration    14          0.709              1.627              1.288
 Vibration    15          0.721              1.591              1.202
 Vibration    16          0.733              1.559              1.132
 Vibration    17          0.744              1.529              1.071
 Vibration    18          0.768              1.464              0.952
 Vibration    19          0.793              1.401              0.853
 Vibration    20          0.803              1.374              0.814
 Vibration    21          0.820              1.333              0.758
 Vibration    22          0.844              1.275              0.687
 Vibration    23          0.865              1.227              0.633
 Vibration    24          0.917              1.114              0.521
 Vibration    25          0.945              1.059              0.472
 Vibration    26          0.980              0.990              0.417

 Optimization completed.
    -- Stationary point found.
 Normal termination of Gaussian 16 at Thu Dec 17 20:42:11 2020.

 ----------------------------------------------------------------------
 # B3LYP/6-311++G(d,p) empiricaldispersion=gd3bj scf=xqc pop=npa geom=c
 heck
 ----------------------------------------------------------------------

 ---------------------------------------
 CID_115117218_JID_8442_Energie_neutraal
 ---------------------------------------
 Structure from the checkpoint file:  "JID_8442.chk"
 Charge =  0 Multiplicity = 1

 SCF Done:  E(RB3LYP) =  -733.934834674     A.U. after   15 cycles
 Normal termination of Gaussian 16 at Thu Dec 17 20:51:18 2020.

 ----------------------------------------------------------------------
 # B3LYP/6-311++G(d,p) empiricaldispersion=gd3bj scf=xqc pop=npa geom=c
 heck
 ----------------------------------------------------------------------

 -------------------------------------
 CID_115117218_JID_8442_Energie_kation
 -------------------------------------
 Structure from the checkpoint file:  "JID_8442.chk"
 Charge =  1 Multiplicity = 2

 SCF Done:  E(UB3LYP) =  -733.679297600     A.U. after   20 cycles
 Normal termination of Gaussian 16 at Thu Dec 17 21:07:33 2020.
 Gaussian 16:  ES64L-G16RevA.03 25-Dec-2016

 ----------------------------------------------------------------------
 # B3LYP/6-311++G(d,p) empiricaldispersion=gd3bj scf=xqc pop=npa geom=c
 heck
 ----------------------------------------------------------------------

 ------------------------------------
 CID_115117218_JID_8442_Energie_anion
 ------------------------------------
 Structure from the checkpoint file:  "JID_8442.chk"
 Charge = -1 Multiplicity = 2

                         Standard orientation:
 ---------------------------------------------------------------------
 Center     Atomic      Atomic             Coordinates (Angstroms)
 Number     Number       Type             X           Y           Z
 ---------------------------------------------------------------------
      1          6           0       -2.248915   -2.391753   -0.449431
      2          7           0       -1.697742   -1.058691   -0.218220
      3          6           0       -2.582640   -0.271683    0.685404
      4          6           0       -1.893971    0.714418    1.652199
      5          6           0       -1.951559    2.125210    0.995127
      6          6           0       -2.734533    1.937118   -0.320075
      7          6           0       -3.544666    0.640662   -0.118529
      8          7           0       -4.069575   -0.010155   -1.314821
      9          6           0       -0.287621   -0.997320   -0.073886
     10          6           0        0.400753    0.179362   -0.395911
     11          6           0        1.787203    0.294060   -0.276665
     12          6           0        2.540147   -0.813472    0.150077
     13          6           0        4.045246   -0.736649    0.321258
     14          6           0        4.672974    0.446868   -0.422437
     15          6           0        3.885284    1.727856   -0.133291
     16          6           0        2.455438    1.599885   -0.668256
     17          6           0        1.859740   -2.000148    0.440947
     18          6           0        0.475470   -2.100974    0.342963
     19          1           0       -3.280144   -2.284154   -0.791379
     20          1           0       -2.252841   -3.023946    0.456686
     21          1           0       -1.669767   -2.900466   -1.225230
     22          1           0       -3.162771   -1.002393    1.264291
     23          1           0       -2.463751    0.716394    2.587098
     24          1           0       -0.878068    0.406040    1.902450
     25          1           0       -0.950984    2.531606    0.819156
     26          1           0       -2.466961    2.830994    1.655149
     27          1           0       -2.051366    1.786263   -1.165643
     28          1           0       -3.371539    2.792914   -0.570255
     29          1           0       -4.396840    0.860924    0.539875
     30          1           0       -4.662987    0.641666   -1.825817
     31          1           0       -3.275387   -0.218793   -1.920661
     32          1           0       -0.163130    1.027852   -0.767056
     33          1           0        4.503097   -1.679428   -0.003496
     34          1           0        4.279293   -0.642833    1.393017
     35          1           0        4.661504    0.253092   -1.504166
     36          1           0        5.723506    0.558458   -0.129328
     37          1           0        3.861094    1.899154    0.952070
     38          1           0        4.375363    2.599611   -0.582560
     39          1           0        1.841264    2.443662   -0.329127
     40          1           0        2.481020    1.668837   -1.766367
     41          1           0        2.430540   -2.867746    0.766589
     42          1           0       -0.009018   -3.036435    0.599042
 ---------------------------------------------------------------------

 SCF Done:  E(UB3LYP) =  -733.920079640     A.U. after   33 cycles
 SCF Done:  E(UB3LYP) =  -733.920079640     a.u. after    1 cycles

 The electronic state is 2-A.
 Alpha  occ. eigenvalues --  -14.22374 -14.19731 -10.11224 -10.10855 -10.09878
 Alpha  occ. eigenvalues --  -10.09671 -10.08504 -10.08098 -10.07948 -10.07889
 Alpha  occ. eigenvalues --  -10.07851 -10.07559 -10.07458 -10.07422 -10.07134
 Alpha  occ. eigenvalues --  -10.07009 -10.07008 -10.06502  -0.84706  -0.79313
 Alpha  occ. eigenvalues --   -0.76748  -0.72121  -0.71317  -0.67701  -0.64690
 Alpha  occ. eigenvalues --   -0.62850  -0.61976  -0.59453  -0.57006  -0.54074
 Alpha  occ. eigenvalues --   -0.51266  -0.50963  -0.47930  -0.47413  -0.44309
 Alpha  occ. eigenvalues --   -0.41904  -0.40862  -0.39652  -0.38543  -0.38034
 Alpha  occ. eigenvalues --   -0.37219  -0.35462  -0.34614  -0.34387  -0.33915
 Alpha  occ. eigenvalues --   -0.32596  -0.31928  -0.31486  -0.31090  -0.29909
 Alpha  occ. eigenvalues --   -0.29026  -0.28742  -0.28336  -0.26762  -0.26001
 Alpha  occ. eigenvalues --   -0.25549  -0.24445  -0.24335  -0.24273  -0.24161
 Alpha  occ. eigenvalues --   -0.22733  -0.22586  -0.22099  -0.17223  -0.15251
 Alpha  occ. eigenvalues --   -0.14850  -0.10896   0.04154
 Alpha virt. eigenvalues --    0.05419   0.06412   0.06617   0.07243   0.07642
 Alpha virt. eigenvalues --    0.07827   0.08281   0.08743   0.09042   0.09158
 Alpha virt. eigenvalues --    0.09687   0.10103   0.10523   0.10592   0.11349

  Beta  occ. eigenvalues --  -14.22365 -14.19712 -10.11224 -10.10850 -10.09866
  Beta  occ. eigenvalues --  -10.09662 -10.08497 -10.08097 -10.07935 -10.07886
  Beta  occ. eigenvalues --  -10.07839 -10.07551 -10.07437 -10.07402 -10.07126
  Beta  occ. eigenvalues --  -10.07002 -10.06994 -10.06481  -0.84691  -0.79281
  Beta  occ. eigenvalues --   -0.76731  -0.72093  -0.71292  -0.67681  -0.64667
  Beta  occ. eigenvalues --   -0.62827  -0.61948  -0.59413  -0.56979  -0.54041
  Beta  occ. eigenvalues --   -0.51239  -0.50928  -0.47886  -0.47372  -0.44280
  Beta  occ. eigenvalues --   -0.41865  -0.40832  -0.39624  -0.38519  -0.38005
  Beta  occ. eigenvalues --   -0.37189  -0.35436  -0.34589  -0.34364  -0.33891
  Beta  occ. eigenvalues --   -0.32574  -0.31904  -0.31457  -0.31071  -0.29883
  Beta  occ. eigenvalues --   -0.29001  -0.28715  -0.28304  -0.26736  -0.25977
  Beta  occ. eigenvalues --   -0.25524  -0.24416  -0.24300  -0.24252  -0.24138
  Beta  occ. eigenvalues --   -0.22704  -0.22555  -0.22073  -0.17200  -0.15222
  Beta  occ. eigenvalues --   -0.14829  -0.10862
  Beta virt. eigenvalues --    0.06005   0.06490   0.06762   0.06953   0.07733
  Beta virt. eigenvalues --    0.07893   0.08200   0.08421   0.08897   0.09305
  Beta virt. eigenvalues --    0.09560   0.09949   0.10307   0.10680   0.10832

 Mulliken charges and spin densities:
               1          2
     1  C   -0.049125  -0.301998
     2  N    0.234898  -0.017945
     3  C    0.432629  -0.192917
     4  C   -0.612901   0.057397
     5  C    0.481921  -0.840329
     6  C    0.074521  -0.188867
     7  C   -0.017907  -0.711366
     8  N   -0.348843   0.009651
     9  C    0.122317  -0.352233
    10  C   -0.268458   0.198022
    11  C    0.286732  -0.189419
    12  C   -0.168580   0.169885
    13  C    1.038792  -1.612578
    14  C   -0.602947   0.318295
    15  C   -0.207835  -0.104481
    16  C    0.078491  -0.509290
    17  C   -0.430959   0.276192
    18  C   -0.113116   0.116553
    19  H    0.122757   0.048498
    20  H    0.012464   0.102107
    21  H    0.042550   0.104247
    22  H    0.041546   0.167523
    23  H   -0.225820   0.401837
    24  H    0.239003  -0.101808
    25  H    0.082350   0.056506
    26  H   -0.205579   0.370215
    27  H   -0.117452   0.280952
    28  H   -0.636354   0.840159
    29  H   -0.125768   0.302470
    30  H   -0.105668   0.350644
    31  H    0.225899   0.001151
    32  H    0.417930  -0.313058
    33  H    0.014988   0.120775
    34  H    0.031838   0.144117
    35  H    0.150213  -0.018673
    36  H   -0.561224   0.741818
    37  H    0.067668   0.067254
    38  H   -0.389682   0.572154
    39  H    0.110964   0.028889
    40  H   -0.066640   0.243162
    41  H   -0.073500   0.247400
    42  H    0.017890   0.117090
 Sum of Mulliken charges =  -1.00000   1.00000

 Dipole moment (field-independent basis, Debye):
    X=              0.7149    Y=             -4.3306    Z=              0.2004  Tot=              4.3938
 Quadrupole moment (field-independent basis, Debye-Ang):
   XX=           -229.2165   YY=           -159.7494   ZZ=           -144.3193
   XY=              4.9021   XZ=              0.2930   YZ=              1.4747

 Summary of Natural Population Analysis:

                                       Natural Population
                Natural  -----------------------------------------------
    Atom  No    Charge         Core      Valence    Rydberg      Total
 -----------------------------------------------------------------------
      C    1   -0.18003      0.99964     2.17374    0.00665     3.18003
      N    2   -0.28129      0.99966     2.76912    0.01251     3.78129
      C    3    0.00329      0.99954     1.98336    0.01380     2.99671
      C    4   -0.20128      0.99962     2.19345    0.00821     3.20128
      C    5   -0.19545      0.99964     2.18778    0.00804     3.19545
      C    6   -0.19975      0.99961     2.19061    0.00953     3.19975
      C    7   -0.01599      0.99955     2.00224    0.01420     3.01599
      N    8   -0.42399      0.99976     2.91391    0.01031     3.92399
      C    9    0.09213      0.99946     1.89683    0.01158     2.90787
      C   10   -0.10894      0.99947     2.10087    0.00860     3.10894
      C   11   -0.00754      0.99947     1.99968    0.00839     3.00754
      C   12   -0.02674      0.99947     2.01819    0.00909     3.02674
      C   13   -0.19481      0.99960     2.18608    0.00913     3.19481
      C   14   -0.18769      0.99964     2.17975    0.00830     3.18769
      C   15   -0.18792      0.99964     2.17979    0.00849     3.18792
      C   16   -0.19552      0.99960     2.18696    0.00896     3.19552
      C   17   -0.09107      0.99953     2.08294    0.00861     3.09107
      C   18   -0.12167      0.99951     2.11428    0.00788     3.12167
      H   19    0.10922      0.00000     0.38939    0.00139     0.39078
      H   20    0.08007      0.00000     0.41828    0.00165     0.41993
      H   21    0.09673      0.00000     0.40234    0.00093     0.40327
      H   22    0.09371      0.00000     0.40486    0.00143     0.40629
      H   23    0.10292      0.00000     0.39605    0.00103     0.39708
      H   24    0.11011      0.00000     0.38875    0.00114     0.38989
      H   25    0.09931      0.00000     0.39962    0.00107     0.40069
      H   26    0.09899      0.00000     0.39975    0.00126     0.40101
      H   27    0.09268      0.00000     0.40531    0.00201     0.40732
      H   28    0.10351      0.00000     0.39443    0.00207     0.39649
      H   29    0.09157      0.00000     0.40662    0.00181     0.40843
      H   30    0.17690      0.00000     0.32137    0.00174     0.32310
      H   31    0.17543      0.00000     0.32249    0.00208     0.32457
      H   32    0.10211      0.00000     0.39556    0.00233     0.39789
      H   33    0.10127      0.00000     0.39766    0.00107     0.39873
      H   34    0.09970      0.00000     0.39907    0.00123     0.40030
      H   35    0.09290      0.00000     0.40578    0.00131     0.40710
      H   36    0.10057      0.00000     0.39794    0.00149     0.39943
      H   37    0.09334      0.00000     0.40536    0.00130     0.40666
      H   38    0.10073      0.00000     0.39795    0.00132     0.39927
      H   39    0.10305      0.00000     0.39577    0.00118     0.39695
      H   40    0.10147      0.00000     0.39730    0.00122     0.39853
      H   41    0.09612      0.00000     0.40262    0.00125     0.40388
      H   42    0.10184      0.00000     0.39697    0.00119     0.39816
 =======================================================================
   * Total *   -0.00000     17.99242    48.80079    0.20679    67.00000

 Normal termination of Gaussian 16 at Thu Dec 17 21:34:16 2020.
