 Gaussian 16, Revision A.03,

 -----------------------------------------------------------
 # opt freq B3LYP/6-31G(d) empiricaldispersion=gd3bj scf=xqc
 -----------------------------------------------------------

 ------------------------------
 CID_59666281_JID_5364_neutraal
 ------------------------------
 Symbolic Z-matrix:
 Charge =  0 Multiplicity = 1

 SCF Done:  E(RB3LYP) =  -758.054614207     A.U. after   18 cycles
 SCF Done:  E(RB3LYP) =  -758.060003884     A.U. after   15 cycles
 SCF Done:  E(RB3LYP) =  -758.056088032     A.U. after   15 cycles
 SCF Done:  E(RB3LYP) =  -758.061226401     A.U. after   16 cycles
 SCF Done:  E(RB3LYP) =  -758.062463331     A.U. after   15 cycles
 SCF Done:  E(RB3LYP) =  -758.062682265     A.U. after   14 cycles
 SCF Done:  E(RB3LYP) =  -758.062722804     A.U. after   14 cycles
 SCF Done:  E(RB3LYP) =  -758.062764283     A.U. after   12 cycles
 SCF Done:  E(RB3LYP) =  -758.062767058     A.U. after   10 cycles
 SCF Done:  E(RB3LYP) =  -758.062768451     A.U. after   11 cycles
 SCF Done:  E(RB3LYP) =  -758.062769167     A.U. after   10 cycles
 SCF Done:  E(RB3LYP) =  -758.062770111     A.U. after   11 cycles
 SCF Done:  E(RB3LYP) =  -758.062770560     A.U. after   10 cycles
 SCF Done:  E(RB3LYP) =  -758.062770606     A.U. after    8 cycles
 Optimization completed.
    -- Stationary point found.
 Normal termination of Gaussian 16 at Thu Dec 10 15:41:29 2020.

 --------------------------------------------------------------------
 #N Geom=AllCheck Guess=TCheck SCRF=Check GenChk RB3LYP/6-31G(d) Freq
 --------------------------------------------------------------------

 Structure from the checkpoint file:  "JID_5364.chk"
 ------------------------------
 CID_59666281_JID_5364_neutraal
 ------------------------------
 Charge =  0 Multiplicity = 1

 SCF Done:  E(RB3LYP) =  -758.062770606     A.U. after    1 cycles

  Exact polarizability: 154.522   9.590 152.614   0.454  -0.877  59.757
 Approx polarizability: 269.070  46.382 309.721  -1.475  -5.494  98.517

                      1                      2                      3
                      A                      A                      A
 Frequencies --     28.3722                62.0935               108.5496
 Red. masses --     11.4702                 6.0277                 6.3762
 Frc consts  --      0.0054                 0.0137                 0.0443
 IR Inten    --      0.6059                 1.0748                11.5451

                      4                      5                      6
                      A                      A                      A
 Frequencies --    113.4116               165.4142               202.1977
 Red. masses --      3.5797                 3.0184                 7.7537
 Frc consts  --      0.0271                 0.0487                 0.1868
 IR Inten    --      3.4714                 0.8068                 1.8535

                      7                      8                      9
                      A                      A                      A
 Frequencies --    255.4582               301.2648               320.7995
 Red. masses --      2.9254                 7.3938                 5.6784
 Frc consts  --      0.1125                 0.3954                 0.3443
 IR Inten    --      2.2003                 5.0864                 3.5874

                     10                     11                     12
                      A                      A                      A
 Frequencies --    343.6380               385.9225               403.5044
 Red. masses --      8.1486                 7.4735                 3.5712
 Frc consts  --      0.5669                 0.6558                 0.3426
 IR Inten    --      0.5379                 1.4842                10.1700

                     13                     14                     15
                      A                      A                      A
 Frequencies --    484.0633               491.0764               512.8590
 Red. masses --      3.2508                 3.9871                 4.5150
 Frc consts  --      0.4488                 0.5665                 0.6997
 IR Inten    --     11.2212                 0.6790                 2.5586

                     16                     17                     18
                      A                      A                      A
 Frequencies --    535.0778               582.2359               607.9251
 Red. masses --      4.3496                 4.6845                 5.1821
 Frc consts  --      0.7337                 0.9356                 1.1284
 IR Inten    --      1.2769                 2.1482                 6.7519

                     19                     20                     21
                      A                      A                      A
 Frequencies --    630.8609               696.1086               713.3303
 Red. masses --      4.6768                 3.6848                 4.8150
 Frc consts  --      1.0966                 1.0520                 1.4435
 IR Inten    --      9.0545                 4.0231                 7.0392

                     22                     23                     24
                      A                      A                      A
 Frequencies --    737.6760               756.6469               796.3203
 Red. masses --      5.7478                 6.5711                 2.4825
 Frc consts  --      1.8428                 2.2165                 0.9275
 IR Inten    --     12.6203                17.0356                 0.8885

                     25                     26                     27
                      A                      A                      A
 Frequencies --    828.4335               842.9233               868.5912
 Red. masses --      6.7951                 1.5979                 3.0678
 Frc consts  --      2.7477                 0.6689                 1.3637
 IR Inten    --     11.5745                30.2086                 6.8663

                     28                     29                     30
                      A                      A                      A
 Frequencies --    889.4141               965.9732               975.3175
 Red. masses --      1.8246                 1.2853                 3.6992
 Frc consts  --      0.8504                 0.7066                 2.0732
 IR Inten    --      2.8591                 1.2654                14.1577

                     31                     32                     33
                      A                      A                      A
 Frequencies --   1022.6959              1056.6214              1064.0157
 Red. masses --      2.2460                 2.3848                 3.1530
 Frc consts  --      1.3840                 1.5687                 2.1032
 IR Inten    --     29.7575                 3.7583                 4.8879

                     34                     35                     36
                      A                      A                      A
 Frequencies --   1153.7656              1168.0973              1197.8739
 Red. masses --      1.4482                 1.4061                 1.9219
 Frc consts  --      1.1359                 1.1304                 1.6248
 IR Inten    --      3.1397                29.1780                10.2837

                     37                     38                     39
                      A                      A                      A
 Frequencies --   1205.9476              1238.7603              1241.6013
 Red. masses --      2.9425                 1.2367                 2.0982
 Frc consts  --      2.5213                 1.1181                 1.9057
 IR Inten    --     17.3942                 8.8874                64.2893

                     40                     41                     42
                      A                      A                      A
 Frequencies --   1276.7586              1285.2814              1322.3260
 Red. masses --      1.9700                 3.3133                 1.8047
 Frc consts  --      1.8920                 3.2248                 1.8592
 IR Inten    --     30.7535                 1.8701                20.8644

                     43                     44                     45
                      A                      A                      A
 Frequencies --   1347.1024              1372.1406              1382.6195
 Red. masses --      1.5547                 2.3789                 5.4544
 Frc consts  --      1.6623                 2.6388                 6.1433
 IR Inten    --     40.4593               160.8090               357.0555

                     46                     47                     48
                      A                      A                      A
 Frequencies --   1417.2673              1441.2458              1474.7235
 Red. masses --      2.9996                 1.2043                 3.5230
 Frc consts  --      3.5499                 1.4739                 4.5142
 IR Inten    --      5.1773                41.9786                55.2202

                     49                     50                     51
                      A                      A                      A
 Frequencies --   1492.5845              1500.9505              1522.8187
 Red. masses --      1.4400                 1.2237                 1.7819
 Frc consts  --      1.8901                 1.6242                 2.4346
 IR Inten    --     13.4172                10.8853                 0.6214

                     52                     53                     54
                      A                      A                      A
 Frequencies --   1579.7353              1641.6005              1664.0116
 Red. masses --      8.9382                11.9830                 6.6130
 Frc consts  --     13.1422                19.0261                10.7886
 IR Inten    --     44.5195               200.7600                72.2916

                     55                     56                     57
                      A                      A                      A
 Frequencies --   1834.5312              3038.5431              3049.9472
 Red. masses --     11.3381                 1.0710                 1.0687
 Frc consts  --     22.4824                 5.8261                 5.8573
 IR Inten    --    203.1336                 2.9161                12.2968

                     58                     59                     60
                      A                      A                      A
 Frequencies --   3067.8326              3114.6523              3129.5935
 Red. masses --      1.0692                 1.0908                 1.0921
 Frc consts  --      5.9288                 6.2345                 6.3022
 IR Inten    --      0.7195                 1.7447                 1.2795

                     61                     62                     63
                      A                      A                      A
 Frequencies --   3143.0100              3266.2340              3282.7713
 Red. masses --      1.0957                 1.0900                 1.0965
 Frc consts  --      6.3775                 6.8510                 6.9621
 IR Inten    --     11.1239                 5.4684                 2.5633

 - Thermochemistry -
 -------------------
 Temperature   298.150 Kelvin.  Pressure   1.00000 Atm.
 Atom     1 has atomic number  6 and mass  12.00000

 Molecular mass:   208.04841 amu.
 Principal axes and moments of inertia in atomic units:
                           1         2         3
     Eigenvalues --  2344.048033076.326195286.70847
           X            0.99955  -0.02903   0.00700
           Y            0.02905   0.99957  -0.00260
           Z           -0.00692   0.00280   0.99997
 This molecule is an asymmetric top.
 Rotational symmetry number  1.
 Warning -- assumption of classical behavior for rotation
           may cause significant error
 Rotational temperatures (Kelvin)      0.03695     0.02815     0.01638
 Rotational constants (GHZ):           0.76993     0.58665     0.34137
 Zero-point vibrational energy     446225.8 (Joules/Mol)
                                  106.65051 (Kcal/Mol)
 Warning -- explicit consideration of  18 degrees of freedom as
           vibrations may cause significant error
 Vibrational temperatures:     40.82    89.34   156.18   163.17   237.99
          (Kelvin)            290.92   367.55   433.45   461.56   494.42
                              555.26   580.55   696.46   706.55   737.89
                              769.86   837.71   874.67   907.67  1001.55
                             1026.32  1061.35  1088.65  1145.73  1191.93
                             1212.78  1249.71  1279.67  1389.82  1403.26
                             1471.43  1520.24  1530.88  1660.01  1680.63
                             1723.47  1735.09  1782.30  1786.39  1836.97
                             1849.23  1902.53  1938.18  1974.20  1989.28
                             2039.13  2073.63  2121.80  2147.50  2159.53
                             2191.00  2272.89  2361.90  2394.14  2639.48
                             4371.79  4388.19  4413.93  4481.29  4502.79
                             4522.09  4699.38  4723.18

 Zero-point correction=                           0.169958 (Hartree/Particle)
 Thermal correction to Energy=                    0.181848
 Thermal correction to Enthalpy=                  0.182793
 Thermal correction to Gibbs Free Energy=         0.130650
 Sum of electronic and zero-point Energies=           -757.892812
 Sum of electronic and thermal Energies=              -757.880922
 Sum of electronic and thermal Enthalpies=            -757.879978
 Sum of electronic and thermal Free Energies=         -757.932120

                     E (Thermal)             CV                S
                      KCal/Mol        Cal/Mol-Kelvin    Cal/Mol-Kelvin
 Total                  114.112             45.664            109.743
 Electronic               0.000              0.000              0.000
 Translational            0.889              2.981             41.902
 Rotational               0.889              2.981             32.011
 Vibrational            112.334             39.703             35.830
 Vibration     1          0.593              1.984              5.940
 Vibration     2          0.597              1.972              4.390
 Vibration     3          0.606              1.942              3.295
 Vibration     4          0.607              1.938              3.210
 Vibration     5          0.624              1.885              2.487
 Vibration     6          0.639              1.837              2.113
 Vibration     7          0.666              1.754              1.693
 Vibration     8          0.693              1.671              1.410
 Vibration     9          0.706              1.634              1.306
 Vibration    10          0.722              1.588              1.195
 Vibration    11          0.755              1.500              1.016
 Vibration    12          0.769              1.463              0.950
 Vibration    13          0.840              1.285              0.699
 Vibration    14          0.847              1.270              0.681
 Vibration    15          0.868              1.222              0.627
 Vibration    16          0.890              1.172              0.576
 Vibration    17          0.939              1.070              0.481
 Vibration    18          0.967              1.015              0.436

                           ! Non-Optimized Parameters !
 Normal termination of Gaussian 16 at Thu Dec 10 15:48:28 2020.

 ----------------------------------------------------------------------
 # B3LYP/6-311++G(d,p) empiricaldispersion=gd3bj scf=xqc pop=npa geom=c
 heck
 ----------------------------------------------------------------------

 --------------------------------------
 CID_59666281_JID_5364_Energie_neutraal
 --------------------------------------
 Structure from the checkpoint file:  "JID_5364.chk"
 Charge =  0 Multiplicity = 1

 SCF Done:  E(RB3LYP) =  -758.277387849     A.U. after   17 cycles
 Normal termination of Gaussian 16 at Thu Dec 10 15:52:02 2020.

 ----------------------------------------------------------------------
 # B3LYP/6-311++G(d,p) empiricaldispersion=gd3bj scf=xqc pop=npa geom=c
 heck
 ----------------------------------------------------------------------

 ------------------------------------
 CID_59666281_JID_5364_Energie_kation
 ------------------------------------
 Structure from the checkpoint file:  "JID_5364.chk"
 Charge =  1 Multiplicity = 2

 SCF Done:  E(UB3LYP) =  -757.948431540     A.U. after   31 cycles
 Normal termination of Gaussian 16 at Thu Dec 10 16:00:06 2020.
 Gaussian 16:  ES64L-G16RevA.03 25-Dec-2016

 ----------------------------------------------------------------------
 # B3LYP/6-311++G(d,p) empiricaldispersion=gd3bj scf=xqc pop=npa geom=c
 heck
 ----------------------------------------------------------------------

 -----------------------------------
 CID_59666281_JID_5364_Energie_anion
 -----------------------------------
 Structure from the checkpoint file:  "JID_5364.chk"
 Charge = -1 Multiplicity = 2

                         Standard orientation:
 ---------------------------------------------------------------------
 Center     Atomic      Atomic             Coordinates (Angstroms)
 Number     Number       Type             X           Y           Z
 ---------------------------------------------------------------------
      1          6           0        2.801513   -0.414299    0.604008
      2          6           0        2.251594    0.904394    0.046022
      3          6           0        0.751898    0.918378    0.008292
      4          7           0        0.198277    2.188101   -0.064187
      5          6           0       -1.164673    2.344175   -0.075873
      6          6           0       -1.994285    1.254235   -0.039141
      7          6           0       -1.453861   -0.031564    0.015317
      8          6           0       -0.056284   -0.220431    0.030467
      9          6           0        0.602563   -1.586572    0.007522
     10          6           0        2.123367   -1.580991   -0.074739
     11          8           0        2.722635   -2.478459   -0.629660
     12          7           0       -2.411364   -1.134955    0.056029
     13          8           0       -1.992944   -2.272448    0.283547
     14          8           0       -3.598355   -0.861303   -0.129803
     15          8           0        0.949717    3.210379   -0.125412
     16          1           0        2.582809   -0.467907    1.680077
     17          1           0        3.882242   -0.487972    0.466809
     18          1           0        2.585180    1.758610    0.641569
     19          1           0        2.639498    1.088626   -0.965382
     20          1           0       -1.487893    3.374218   -0.124597
     21          1           0       -3.067970    1.382373   -0.057623
     22          1           0        0.214298   -2.188984   -0.817178
     23          1           0        0.324036   -2.140295    0.912805
 ---------------------------------------------------------------------

 SCF Done:  E(UB3LYP) =  -758.341754191     A.U. after   22 cycles

 The electronic state is 2-A.
 Alpha  occ. eigenvalues --  -19.01684 -18.96684 -18.96669 -18.96068 -14.35232
 Alpha  occ. eigenvalues --  -14.30722 -10.16189 -10.10072 -10.08827 -10.08519
 Alpha  occ. eigenvalues --  -10.08369 -10.08279 -10.08085 -10.07114 -10.06076
 Alpha  occ. eigenvalues --   -1.04883  -0.98350  -0.95001  -0.87658  -0.77918
 Alpha  occ. eigenvalues --   -0.72413  -0.69098  -0.65315  -0.63736  -0.57199
 Alpha  occ. eigenvalues --   -0.54494  -0.52052  -0.46728  -0.43127  -0.40408
 Alpha  occ. eigenvalues --   -0.39893  -0.38373  -0.37142  -0.36060  -0.35322
 Alpha  occ. eigenvalues --   -0.34954  -0.34611  -0.33421  -0.32303  -0.31499
 Alpha  occ. eigenvalues --   -0.30326  -0.29253  -0.28344  -0.26577  -0.25267
 Alpha  occ. eigenvalues --   -0.24893  -0.21316  -0.15890  -0.15690  -0.14796
 Alpha  occ. eigenvalues --   -0.14231  -0.12966  -0.12173  -0.10538   0.00123
 Alpha virt. eigenvalues --    0.06746   0.08293   0.09445   0.09695   0.10325
 Alpha virt. eigenvalues --    0.10715   0.11317   0.11666   0.12810   0.13703
 Alpha virt. eigenvalues --    0.14000   0.15548   0.15615   0.16574   0.17824

  Beta  occ. eigenvalues --  -19.01687 -18.96273 -18.96215 -18.95620 -14.34761
  Beta  occ. eigenvalues --  -14.30161 -10.16188 -10.10185 -10.08939 -10.08519
  Beta  occ. eigenvalues --  -10.08224 -10.08171 -10.08081 -10.07126 -10.05934
  Beta  occ. eigenvalues --   -1.04020  -0.97464  -0.95004  -0.86850  -0.77537
  Beta  occ. eigenvalues --   -0.72300  -0.68546  -0.65161  -0.63589  -0.56490
  Beta  occ. eigenvalues --   -0.54168  -0.51873  -0.46432  -0.43007  -0.40152
  Beta  occ. eigenvalues --   -0.39525  -0.38104  -0.35844  -0.35088  -0.34966
  Beta  occ. eigenvalues --   -0.34200  -0.33650  -0.33022  -0.31915  -0.31283
  Beta  occ. eigenvalues --   -0.30130  -0.29008  -0.28047  -0.26440  -0.25221
  Beta  occ. eigenvalues --   -0.24804  -0.20053  -0.15752  -0.14423  -0.13883
  Beta  occ. eigenvalues --   -0.12657  -0.12573  -0.11740  -0.08319
  Beta virt. eigenvalues --    0.06760   0.06943   0.08408   0.09647   0.09793
  Beta virt. eigenvalues --    0.10332   0.11270   0.11603   0.12784   0.13299
  Beta virt. eigenvalues --    0.13698   0.14175   0.15542   0.15700   0.16664

 Mulliken charges and spin densities:
               1          2
     1  C   -0.324114   0.008251
     2  C   -0.422968   0.018098
     3  C   -1.277025  -0.073399
     4  N   -0.010918   0.180621
     5  C   -0.165623  -0.064594
     6  C   -0.656823   0.158162
     7  C    0.248977  -0.009254
     8  C    2.087987   0.142733
     9  C   -0.964757  -0.008886
    10  C   -0.084475  -0.009723
    11  O   -0.286577  -0.000655
    12  N   -0.205563   0.161643
    13  O   -0.189805   0.170182
    14  O   -0.156857   0.149311
    15  O   -0.217455   0.174551
    16  H    0.155145  -0.003495
    17  H    0.173348   0.002726
    18  H    0.191903  -0.000366
    19  H    0.183986  -0.003191
    20  H    0.176665   0.002551
    21  H    0.247177  -0.006535
    22  H    0.255181   0.005424
    23  H    0.242590   0.005845
 Sum of Mulliken charges =  -1.00000   1.00000

 Dipole moment (field-independent basis, Debye):
    X=              4.4512    Y=              1.7898    Z=              1.4235  Tot=              5.0043
 Quadrupole moment (field-independent basis, Debye-Ang):
   XX=           -127.4565   YY=           -130.5088   ZZ=            -89.7321
   XY=            -12.0561   XZ=              4.6108   YZ=             -1.6929

 Summary of Natural Population Analysis:

                                       Natural Population
                Natural  -----------------------------------------------
    Atom  No    Charge         Core      Valence    Rydberg      Total
 -----------------------------------------------------------------------
      C    1   -0.23426      0.99959     2.22758    0.00709     3.23426
      C    2   -0.20484      0.99960     2.19635    0.00889     3.20484
      C    3    0.05088      0.99948     1.93993    0.00971     2.94912
      N    4    0.10548      0.99956     2.37922    0.01574     3.39452
      C    5   -0.03640      0.99957     2.02520    0.01163     3.03640
      C    6   -0.07415      0.99954     2.06557    0.00903     3.07415
      C    7    0.04104      0.99937     1.94788    0.01172     2.95896
      C    8    0.01845      0.99945     1.97409    0.00801     2.98155
      C    9   -0.25034      0.99955     2.24190    0.00888     3.25034
      C   10    0.30127      0.99965     1.67773    0.02135     2.69873
      O   11   -0.29298      0.99987     3.28439    0.00872     4.29298
      N   12    0.28595      0.99972     2.18477    0.02956     3.21405
      O   13   -0.19069      0.99990     3.18284    0.00795     4.19069
      O   14   -0.19938      0.99990     3.19184    0.00764     4.19938
      O   15   -0.23621      0.99992     3.22833    0.00797     4.23621
      H   16    0.10714      0.00000     0.39162    0.00124     0.39286
      H   17    0.10494      0.00000     0.39359    0.00147     0.39506
      H   18    0.11921      0.00000     0.37908    0.00171     0.38079
      H   19    0.10368      0.00000     0.39479    0.00152     0.39632
      H   20    0.10247      0.00000     0.39625    0.00128     0.39753
      H   21    0.11950      0.00000     0.37918    0.00131     0.38050
      H   22    0.12726      0.00000     0.37121    0.00153     0.37274
      H   23    0.13199      0.00000     0.36657    0.00144     0.36801
 =======================================================================
   * Total *   -0.00000     14.99467    38.81995    0.18538    54.00000

 Normal termination of Gaussian 16 at Thu Dec 10 16:05:45 2020.
