 Gaussian 16, Revision A.03,

 -----------------------------------------------------------
 # opt freq B3LYP/6-31G(d) empiricaldispersion=gd3bj scf=xqc
 -----------------------------------------------------------

 -------------------------------
 CID_105756039_JID_2796_neutraal
 -------------------------------
 Symbolic Z-matrix:
 Charge =  0 Multiplicity = 1

 SCF Done:  E(RB3LYP) =  -570.592719041     A.U. after   14 cycles
 SCF Done:  E(RB3LYP) =  -570.593836607     A.U. after   13 cycles
 SCF Done:  E(RB3LYP) =  -570.598746135     A.U. after   12 cycles
 SCF Done:  E(RB3LYP) =  -570.599229988     A.U. after   13 cycles
 SCF Done:  E(RB3LYP) =  -570.597405341     A.U. after   12 cycles
 SCF Done:  E(RB3LYP) =  -570.603018162     A.U. after   11 cycles
 SCF Done:  E(RB3LYP) =  -570.604407766     A.U. after   11 cycles
 SCF Done:  E(RB3LYP) =  -570.604937333     A.U. after   11 cycles
 SCF Done:  E(RB3LYP) =  -570.605034682     A.U. after   10 cycles
 SCF Done:  E(RB3LYP) =  -570.605048605     A.U. after    9 cycles
 SCF Done:  E(RB3LYP) =  -570.605053842     A.U. after    8 cycles
 SCF Done:  E(RB3LYP) =  -570.605054993     A.U. after    7 cycles
 SCF Done:  E(RB3LYP) =  -570.605055361     A.U. after    7 cycles
 SCF Done:  E(RB3LYP) =  -570.605055592     A.U. after    7 cycles
 Optimization completed.
    -- Stationary point found.
 Normal termination of Gaussian 16 at Wed Dec  9 18:07:17 2020.

 --------------------------------------------------------------------
 #N Geom=AllCheck Guess=TCheck SCRF=Check GenChk RB3LYP/6-31G(d) Freq
 --------------------------------------------------------------------

 Structure from the checkpoint file:  "JID_2796.chk"
 -------------------------------
 CID_105756039_JID_2796_neutraal
 -------------------------------
 Charge =  0 Multiplicity = 1

 SCF Done:  E(RB3LYP) =  -570.605055592     A.U. after    1 cycles

  Exact polarizability: 114.373  -7.034  91.344   4.181  -1.747  98.895
 Approx polarizability: 148.374 -11.201 124.310   9.157  -6.381 157.715

                      1                      2                      3
                      A                      A                      A
 Frequencies --     57.7032                94.9811               130.5426
 Red. masses --      4.1407                 3.4244                 3.1074
 Frc consts  --      0.0081                 0.0182                 0.0312
 IR Inten    --      0.4460                 1.0385                 0.8989

                      4                      5                      6
                      A                      A                      A
 Frequencies --    172.0977               186.2315               199.6591
 Red. masses --      2.6667                 3.2860                 2.4310
 Frc consts  --      0.0465                 0.0671                 0.0571
 IR Inten    --      2.8522                 7.6965                 9.3828

                      7                      8                      9
                      A                      A                      A
 Frequencies --    231.9099               247.7232               254.5814
 Red. masses --      1.2364                 1.4487                 2.4109
 Frc consts  --      0.0392                 0.0524                 0.0921
 IR Inten    --      2.3307                21.3505                 4.1563

                     10                     11                     12
                      A                      A                      A
 Frequencies --    298.0205               342.6557               381.2709
 Red. masses --      2.2638                 3.0639                 2.4120
 Frc consts  --      0.1185                 0.2120                 0.2066
 IR Inten    --      5.3774                 0.3551                12.3176

                     13                     14                     15
                      A                      A                      A
 Frequencies --    390.1261               450.9535               476.1961
 Red. masses --      2.7752                 3.5766                 3.5711
 Frc consts  --      0.2489                 0.4285                 0.4771
 IR Inten    --     10.7749                 6.8578                12.9929

                     16                     17                     18
                      A                      A                      A
 Frequencies --    507.1390               546.4668               562.7624
 Red. masses --      1.3724                 2.6251                 2.4768
 Frc consts  --      0.2080                 0.4619                 0.4622
 IR Inten    --     63.4711                40.9423                 5.7051

                     19                     20                     21
                      A                      A                      A
 Frequencies --    621.4118               684.6844               739.7441
 Red. masses --      2.6978                 3.3315                 2.7106
 Frc consts  --      0.6138                 0.9202                 0.8739
 IR Inten    --    118.4680                 1.3542                64.1635

                     22                     23                     24
                      A                      A                      A
 Frequencies --    747.1112               766.9146               812.9811
 Red. masses --      2.8906                 2.4865                 2.6744
 Frc consts  --      0.9506                 0.8617                 1.0414
 IR Inten    --      5.9290                55.6756                 4.6773

                     25                     26                     27
                      A                      A                      A
 Frequencies --    857.3444               874.5750               889.6854
 Red. masses --      2.5261                 1.7494                 1.8059
 Frc consts  --      1.0940                 0.7884                 0.8422
 IR Inten    --      8.6638               134.5312                66.4135

                     28                     29                     30
                      A                      A                      A
 Frequencies --    930.6255               959.2116               998.3571
 Red. masses --      1.7848                 2.2258                 2.0675
 Frc consts  --      0.9107                 1.2066                 1.2141
 IR Inten    --     10.8440                 4.7634                21.5851

                     31                     32                     33
                      A                      A                      A
 Frequencies --   1015.3213              1030.7127              1071.8630
 Red. masses --      2.1331                 2.6102                 1.8478
 Frc consts  --      1.2956                 1.6338                 1.2508
 IR Inten    --     53.8714                 6.6875                 8.7399

                     34                     35                     36
                      A                      A                      A
 Frequencies --   1095.9567              1098.8990              1135.5753
 Red. masses --      3.6795                 2.2558                 1.7963
 Frc consts  --      2.6039                 1.6050                 1.3648
 IR Inten    --     94.2786                 9.3201                22.6399

                     37                     38                     39
                      A                      A                      A
 Frequencies --   1143.7941              1165.0587              1218.6254
 Red. masses --      1.6311                 1.8854                 2.5394
 Frc consts  --      1.2572                 1.5078                 2.2219
 IR Inten    --      7.2160                 6.0356                24.3763

                     40                     41                     42
                      A                      A                      A
 Frequencies --   1257.0299              1265.0055              1279.1320
 Red. masses --      1.3394                 1.8600                 1.5064
 Frc consts  --      1.2470                 1.7536                 1.4522
 IR Inten    --     19.9267               111.6585                30.5957

                     43                     44                     45
                      A                      A                      A
 Frequencies --   1306.3940              1330.0428              1372.0623
 Red. masses --      1.2618                 1.3632                 1.3576
 Frc consts  --      1.2688                 1.4208                 1.5058
 IR Inten    --     17.4202                19.0063                23.7194

                     46                     47                     48
                      A                      A                      A
 Frequencies --   1374.2777              1385.0093              1392.5057
 Red. masses --      1.2944                 1.2961                 1.3315
 Frc consts  --      1.4403                 1.4648                 1.5212
 IR Inten    --      4.2094                 1.5273                 8.7810

                     49                     50                     51
                      A                      A                      A
 Frequencies --   1399.4428              1410.8196              1424.5862
 Red. masses --      1.4150                 1.4803                 1.3004
 Frc consts  --      1.6328                 1.7360                 1.5549
 IR Inten    --     18.1131                24.1597                44.6076

                     52                     53                     54
                      A                      A                      A
 Frequencies --   1433.0906              1444.5129              1500.4830
 Red. masses --      1.2626                 1.3478                 1.3496
 Frc consts  --      1.5278                 1.6570                 1.7903
 IR Inten    --     29.3867                12.3596                83.4184

                     55                     56                     57
                      A                      A                      A
 Frequencies --   1513.2280              1521.4289              1523.9569
 Red. masses --      1.0790                 1.0878                 1.0626
 Frc consts  --      1.4557                 1.4836                 1.4540
 IR Inten    --      5.4354                 4.0096                 7.2734

                     58                     59                     60
                      A                      A                      A
 Frequencies --   1528.1718              1540.7517              1712.4594
 Red. masses --      1.0559                 1.0886                 1.2577
 Frc consts  --      1.4529                 1.5226                 2.1730
 IR Inten    --      1.2039                 4.7443                56.8620

                     61                     62                     63
                      A                      A                      A
 Frequencies --   1748.7848              1769.4780              2987.3486
 Red. masses --      1.1350                 3.2393                 1.0845
 Frc consts  --      2.0452                 5.9758                 5.7023
 IR Inten    --    105.2176               239.3182                58.9429

                     64                     65                     66
                      A                      A                      A
 Frequencies --   3012.0129              3034.8937              3051.9635
 Red. masses --      1.0711                 1.0823                 1.0684
 Frc consts  --      5.7250                 5.8731                 5.8633
 IR Inten    --     52.5080                17.4856                48.8888

                     67                     68                     69
                      A                      A                      A
 Frequencies --   3063.7499              3066.9800              3104.9447
 Red. masses --      1.0379                 1.0687                 1.0975
 Frc consts  --      5.7403                 5.9228                 6.2340
 IR Inten    --     30.3869                64.6518                32.9156

                     70                     71                     72
                      A                      A                      A
 Frequencies --   3108.0324              3127.0148              3130.0888
 Red. masses --      1.0953                 1.0985                 1.1024
 Frc consts  --      6.2337                 6.3287                 6.3634
 IR Inten    --     16.0674                21.7464                22.3818

                     73                     74                     75
                      A                      A                      A
 Frequencies --   3151.6600              3393.5886              3438.0687
 Red. masses --      1.1016                 1.0533                 1.0583
 Frc consts  --      6.4472                 7.1469                 7.3705
 IR Inten    --     20.5051                19.1794               261.0086

                     76                     77                     78
                      A                      A                      A
 Frequencies --   3492.8675              3532.3355              3582.3525
 Red. masses --      1.0863                 1.0756                 1.0885
 Frc consts  --      7.8082                 7.9069                 8.2305
 IR Inten    --      1.9466                 7.8585                46.1209

 - Thermochemistry -
 -------------------
 Temperature   298.150 Kelvin.  Pressure   1.00000 Atm.
 Atom     1 has atomic number  6 and mass  12.00000

 Molecular mass:   172.13241 amu.
 Principal axes and moments of inertia in atomic units:
                           1         2         3
     Eigenvalues --  1218.955432743.252072908.67092
           X            0.99997  -0.00536   0.00612
           Y            0.00523   0.99979   0.01995
           Z           -0.00623  -0.01992   0.99978
 This molecule is an asymmetric top.
 Rotational symmetry number  1.
 Warning -- assumption of classical behavior for rotation
           may cause significant error
 Rotational temperatures (Kelvin)      0.07106     0.03157     0.02978
 Rotational constants (GHZ):           1.48056     0.65788     0.62047
 Zero-point vibrational energy     658544.4 (Joules/Mol)
                                  157.39589 (Kcal/Mol)
 Warning -- explicit consideration of  18 degrees of freedom as
           vibrations may cause significant error
 Vibrational temperatures:     83.02   136.66   187.82   247.61   267.95
          (Kelvin)            287.26   333.67   356.42   366.29   428.79
                              493.01   548.56   561.30   648.82   685.14
                              729.66   786.24   809.69   894.07   985.11
                             1064.33  1074.93  1103.42  1169.70  1233.53
                             1258.32  1280.06  1338.96  1380.09  1436.41
                             1460.82  1482.97  1542.17  1576.84  1581.07
                             1633.84  1645.66  1676.26  1753.33  1808.59
                             1820.06  1840.39  1879.61  1913.63  1974.09
                             1977.28  1992.72  2003.51  2013.49  2029.85
                             2049.66  2061.90  2078.33  2158.86  2177.20
                             2189.00  2192.63  2198.70  2216.80  2463.85
                             2516.11  2545.88  4298.13  4333.61  4366.54
                             4391.09  4408.05  4412.70  4467.32  4471.77
                             4499.08  4503.50  4534.54  4882.62  4946.61
                             5025.46  5082.24  5154.21

 Zero-point correction=                           0.250826 (Hartree/Particle)
 Thermal correction to Energy=                    0.262980
 Thermal correction to Enthalpy=                  0.263924
 Thermal correction to Gibbs Free Energy=         0.213347
 Sum of electronic and zero-point Energies=           -570.354229
 Sum of electronic and thermal Energies=              -570.342075
 Sum of electronic and thermal Enthalpies=            -570.341131
 Sum of electronic and thermal Free Energies=         -570.391709

                     E (Thermal)             CV                S
                      KCal/Mol        Cal/Mol-Kelvin    Cal/Mol-Kelvin
 Total                  165.023             47.399            106.449
 Electronic               0.000              0.000              0.000
 Translational            0.889              2.981             41.337
 Rotational               0.889              2.981             30.654
 Vibrational            163.245             41.438             34.458
 Vibration     1          0.596              1.974              4.534
 Vibration     2          0.603              1.953              3.555
 Vibration     3          0.612              1.923              2.938
 Vibration     4          0.626              1.877              2.412
 Vibration     5          0.632              1.859              2.265
 Vibration     6          0.638              1.840              2.136
 Vibration     7          0.653              1.792              1.864
 Vibration     8          0.661              1.767              1.747
 Vibration     9          0.665              1.755              1.699
 Vibration    10          0.691              1.677              1.428
 Vibration    11          0.722              1.590              1.200
 Vibration    12          0.751              1.510              1.034
 Vibration    13          0.758              1.491              1.000
 Vibration    14          0.810              1.359              0.793
 Vibration    15          0.833              1.303              0.720
 Vibration    16          0.862              1.234              0.641
 Vibration    17          0.902              1.147              0.552
 Vibration    18          0.918              1.112              0.518

 Optimization completed.
    -- Stationary point found.
 Normal termination of Gaussian 16 at Wed Dec  9 18:15:25 2020.

 ----------------------------------------------------------------------
 # B3LYP/6-311++G(d,p) empiricaldispersion=gd3bj scf=xqc pop=npa geom=c
 heck
 ----------------------------------------------------------------------

 ---------------------------------------
 CID_105756039_JID_2796_Energie_neutraal
 ---------------------------------------
 Structure from the checkpoint file:  "JID_2796.chk"
 Charge =  0 Multiplicity = 1

 SCF Done:  E(RB3LYP) =  -570.783359733     A.U. after   14 cycles
 Normal termination of Gaussian 16 at Wed Dec  9 18:18:57 2020.

 ----------------------------------------------------------------------
 # B3LYP/6-311++G(d,p) empiricaldispersion=gd3bj scf=xqc pop=npa geom=c
 heck
 ----------------------------------------------------------------------

 -------------------------------------
 CID_105756039_JID_2796_Energie_kation
 -------------------------------------
 Structure from the checkpoint file:  "JID_2796.chk"
 Charge =  1 Multiplicity = 2

 SCF Done:  E(UB3LYP) =  -570.485838809     A.U. after   25 cycles
 Normal termination of Gaussian 16 at Wed Dec  9 18:27:27 2020.
 Gaussian 16:  ES64L-G16RevA.03 25-Dec-2016

 ----------------------------------------------------------------------
 # B3LYP/6-311++G(d,p) empiricaldispersion=gd3bj scf=xqc pop=npa geom=c
 heck
 ----------------------------------------------------------------------

 ------------------------------------
 CID_105756039_JID_2796_Energie_anion
 ------------------------------------
 Structure from the checkpoint file:  "JID_2796.chk"
 Charge = -1 Multiplicity = 2

                         Standard orientation:
 ---------------------------------------------------------------------
 Center     Atomic      Atomic             Coordinates (Angstroms)
 Number     Number       Type             X           Y           Z
 ---------------------------------------------------------------------
      1          6           0        1.081363    2.327797    0.026944
      2          6           0        1.846038    1.046093    0.327241
      3          6           0        1.257621    0.222831    1.495657
      4          6           0        0.328777   -0.931086    1.055535
      5          6           0        1.063981   -1.831034    0.011273
      6          6           0        2.224269   -1.089636   -0.665978
      7          8           0        1.887244    0.280520   -0.894864
      8          7           0       -1.015740   -0.478426    0.733046
      9          6           0       -1.459445   -0.125284   -0.415071
     10          7           0       -0.829704   -0.108455   -1.656778
     11          7           0       -2.801820    0.298075   -0.506784
     12          7           0       -3.639741    0.059846    0.618034
     13          1           0        1.176633    3.021785    0.868728
     14          1           0        0.018104    2.129379   -0.131002
     15          1           0        1.488397    2.811019   -0.867217
     16          1           0        2.887725    1.307519    0.572657
     17          1           0        2.078903   -0.218340    2.074177
     18          1           0        0.708611    0.881899    2.175579
     19          1           0        0.189011   -1.544216    1.953044
     20          1           0        0.346824   -2.178144   -0.736760
     21          1           0        1.459905   -2.722670    0.511749
     22          1           0        2.458037   -1.510803   -1.647800
     23          1           0        3.138741   -1.138249   -0.055658
     24          1           0       -1.269883    0.532462   -2.309062
     25          1           0        0.174802    0.061890   -1.595960
     26          1           0       -3.253139   -0.055079   -1.345384
     27          1           0       -3.152753   -0.645548    1.181854
     28          1           0       -3.594453    0.907564    1.183738
 ---------------------------------------------------------------------

 SCF Done:  E(UB3LYP) =  -570.768221633     A.U. after   30 cycles

 The electronic state is 2-A.
 Alpha  occ. eigenvalues --  -19.02623 -14.24355 -14.22415 -14.21069 -14.17072
 Alpha  occ. eigenvalues --  -10.16146 -10.11846 -10.11193 -10.09661 -10.05983
 Alpha  occ. eigenvalues --  -10.05937 -10.05534  -0.93787  -0.90084  -0.82166
 Alpha  occ. eigenvalues --   -0.76753  -0.68468  -0.68039  -0.66470  -0.59611
 Alpha  occ. eigenvalues --   -0.55246  -0.52042  -0.47663  -0.45489  -0.43035
 Alpha  occ. eigenvalues --   -0.39999  -0.39440  -0.38969  -0.38262  -0.37891
 Alpha  occ. eigenvalues --   -0.35227  -0.32755  -0.32285  -0.30420  -0.29327
 Alpha  occ. eigenvalues --   -0.28632  -0.27691  -0.26689  -0.26113  -0.24348
 Alpha  occ. eigenvalues --   -0.22915  -0.19982  -0.19036  -0.16211  -0.15413
 Alpha  occ. eigenvalues --   -0.14134  -0.12610   0.04638
 Alpha virt. eigenvalues --    0.06651   0.07585   0.07901   0.09069   0.09489
 Alpha virt. eigenvalues --    0.10107   0.10428   0.10503   0.12113   0.12481
 Alpha virt. eigenvalues --    0.13011   0.13351   0.13642   0.14250   0.14560

  Beta  occ. eigenvalues --  -19.02606 -14.24340 -14.22406 -14.21041 -14.17068
  Beta  occ. eigenvalues --  -10.16145 -10.11829 -10.11165 -10.09654 -10.05963
  Beta  occ. eigenvalues --  -10.05912 -10.05508  -0.93760  -0.90066  -0.82142
  Beta  occ. eigenvalues --   -0.76723  -0.68429  -0.67999  -0.66429  -0.59558
  Beta  occ. eigenvalues --   -0.55194  -0.51991  -0.47619  -0.45440  -0.42989
  Beta  occ. eigenvalues --   -0.39968  -0.39409  -0.38922  -0.38208  -0.37834
  Beta  occ. eigenvalues --   -0.35191  -0.32715  -0.32245  -0.30388  -0.29294
  Beta  occ. eigenvalues --   -0.28591  -0.27658  -0.26648  -0.26068  -0.24309
  Beta  occ. eigenvalues --   -0.22878  -0.19937  -0.19016  -0.16152  -0.15383
  Beta  occ. eigenvalues --   -0.14117  -0.12591
  Beta virt. eigenvalues --    0.06942   0.07808   0.08246   0.08411   0.09703
  Beta virt. eigenvalues --    0.10072   0.10558   0.10838   0.10960   0.12530
  Beta virt. eigenvalues --    0.13192   0.13376   0.13750   0.13803   0.14381

 Mulliken charges and spin densities:
               1          2
     1  C    1.114804  -1.799405
     2  C   -0.997583   1.073772
     3  C    1.110563  -1.603140
     4  C   -0.400565   0.476040
     5  C    0.299817  -0.670416
     6  C    0.479544  -0.851628
     7  O   -0.117300  -0.012702
     8  N   -0.021585  -0.094337
     9  C    0.261236  -0.694018
    10  N   -0.343100   0.031489
    11  N   -0.279305   0.169812
    12  N   -0.255617  -0.080541
    13  H   -0.148556   0.284639
    14  H   -0.231132   0.428090
    15  H   -0.176631   0.330624
    16  H   -0.532322   0.709851
    17  H   -0.415459   0.582605
    18  H    0.057588   0.116197
    19  H   -0.371641   0.612837
    20  H    0.257690  -0.056542
    21  H   -0.474695   0.632405
    22  H   -0.425041   0.606723
    23  H   -0.148455   0.292192
    24  H   -0.164233   0.417190
    25  H    0.467646  -0.189163
    26  H    0.062321   0.202083
    27  H    0.231286   0.005287
    28  H    0.160724   0.080059
 Sum of Mulliken charges =  -1.00000   1.00000

 Dipole moment (field-independent basis, Debye):
    X=             -3.3028    Y=              0.2364    Z=             -1.1265  Tot=              3.4976
 Quadrupole moment (field-independent basis, Debye-Ang):
   XX=           -135.2584   YY=           -115.2785   ZZ=           -112.3979
   XY=              2.7122   XZ=             -7.1226   YZ=              4.9363

 Summary of Natural Population Analysis:

                                       Natural Population
                Natural  -----------------------------------------------
    Atom  No    Charge         Core      Valence    Rydberg      Total
 -----------------------------------------------------------------------
      C    1   -0.29127      0.99963     2.28508    0.00656     3.29127
      C    2    0.06798      0.99956     1.91811    0.01434     2.93202
      C    3   -0.20825      0.99958     2.19852    0.01014     3.20825
      C    4   -0.01589      0.99957     2.00024    0.01608     3.01589
      C    5   -0.21328      0.99961     2.20556    0.00811     3.21328
      C    6   -0.01301      0.99959     2.00112    0.01230     3.01301
      O    7   -0.31475      0.99988     3.30496    0.00991     4.31475
      N    8   -0.31717      0.99962     2.80591    0.01164     3.81717
      C    9    0.30188      0.99959     1.68225    0.01627     2.69812
      N   10   -0.42520      0.99970     2.91486    0.01064     3.92520
      N   11   -0.24661      0.99969     2.73277    0.01415     3.74661
      N   12   -0.32464      0.99978     2.81417    0.01070     3.82464
      H   13    0.10079      0.00000     0.39813    0.00108     0.39921
      H   14    0.10139      0.00000     0.39673    0.00188     0.39861
      H   15    0.10219      0.00000     0.39648    0.00134     0.39781
      H   16    0.08270      0.00000     0.41539    0.00192     0.41730
      H   17    0.10457      0.00000     0.39267    0.00277     0.39543
      H   18    0.10747      0.00000     0.39095    0.00158     0.39253
      H   19    0.09790      0.00000     0.40041    0.00169     0.40210
      H   20    0.10432      0.00000     0.39408    0.00159     0.39568
      H   21    0.10458      0.00000     0.39370    0.00171     0.39542
      H   22    0.09200      0.00000     0.40673    0.00127     0.40800
      H   23    0.08406      0.00000     0.41374    0.00220     0.41594
      H   24    0.18632      0.00000     0.31075    0.00293     0.31368
      H   25    0.20465      0.00000     0.29192    0.00343     0.29535
      H   26    0.17740      0.00000     0.31922    0.00338     0.32260
      H   27    0.18061      0.00000     0.31671    0.00268     0.31939
      H   28    0.16925      0.00000     0.32831    0.00245     0.33075
 =======================================================================
   * Total *    0.00000     11.99581    34.82947    0.17472    47.00000

 Normal termination of Gaussian 16 at Wed Dec  9 18:37:23 2020.
