 Gaussian 16, Revision A.03,

 -----------------------------------------------------------
 # opt freq B3LYP/6-31G(d) empiricaldispersion=gd3bj scf=xqc
 -----------------------------------------------------------

 -----------------------------
 CID_23260320_JID_721_neutraal
 -----------------------------
 Symbolic Z-matrix:
 Charge =  0 Multiplicity = 1

 SCF Done:  E(RB3LYP) =  -440.230239276     A.U. after   14 cycles
 SCF Done:  E(RB3LYP) =  -440.232490780     A.U. after   12 cycles
 SCF Done:  E(RB3LYP) =  -440.232475514     A.U. after   12 cycles
 SCF Done:  E(RB3LYP) =  -440.232776579     A.U. after   10 cycles
 SCF Done:  E(RB3LYP) =  -440.232804648     A.U. after   10 cycles
 SCF Done:  E(RB3LYP) =  -440.232874957     A.U. after   12 cycles
 SCF Done:  E(RB3LYP) =  -440.232500508     A.U. after   13 cycles
 SCF Done:  E(RB3LYP) =  -440.233105113     A.U. after   12 cycles
 SCF Done:  E(RB3LYP) =  -440.233231163     A.U. after   13 cycles
 SCF Done:  E(RB3LYP) =  -440.233791532     A.U. after   12 cycles
 SCF Done:  E(RB3LYP) =  -440.234360635     A.U. after   11 cycles
 SCF Done:  E(RB3LYP) =  -440.234415192     A.U. after   12 cycles
 SCF Done:  E(RB3LYP) =  -440.234469278     A.U. after   11 cycles
 SCF Done:  E(RB3LYP) =  -440.234512254     A.U. after   11 cycles
 SCF Done:  E(RB3LYP) =  -440.234513182     A.U. after    9 cycles
 Optimization completed.
    -- Stationary point found.
 Normal termination of Gaussian 16 at Tue Dec  8 12:51:59 2020.

 --------------------------------------------------------------------
 #N Geom=AllCheck Guess=TCheck SCRF=Check GenChk RB3LYP/6-31G(d) Freq
 --------------------------------------------------------------------

 Structure from the checkpoint file:  "JID_721.chk"
 -----------------------------
 CID_23260320_JID_721_neutraal
 -----------------------------
 Charge =  0 Multiplicity = 1

 SCF Done:  E(RB3LYP) =  -440.234513182     A.U. after    1 cycles

  Exact polarizability: 129.328   3.864  86.403  10.818  -6.196  55.342
 Approx polarizability: 200.097   5.490 145.513  22.340 -20.569  87.298

                      1                      2                      3
                      A                      A                      A
 Frequencies --     58.1704                83.5490               112.7375
 Red. masses --      4.0883                 4.3504                 3.3923
 Frc consts  --      0.0082                 0.0179                 0.0254
 IR Inten    --      0.4724                 2.1621                 0.7390

                      4                      5                      6
                      A                      A                      A
 Frequencies --    204.0879               264.9332               272.4425
 Red. masses --      1.4357                 2.1742                 2.6819
 Frc consts  --      0.0352                 0.0899                 0.1173
 IR Inten    --      0.5740                 6.7464                 2.1508

                      7                      8                      9
                      A                      A                      A
 Frequencies --    319.4603               422.5267               458.3355
 Red. masses --      3.5505                 3.3194                 3.9823
 Frc consts  --      0.2135                 0.3492                 0.4929
 IR Inten    --      1.0349                 1.0546                 4.3743

                     10                     11                     12
                      A                      A                      A
 Frequencies --    536.8789               564.7497               641.6124
 Red. masses --      5.0037                 4.0068                 7.3941
 Frc consts  --      0.8498                 0.7529                 1.7934
 IR Inten    --      2.6368                13.1532                 3.9109

                     13                     14                     15
                      A                      A                      A
 Frequencies --    734.3918               758.5679               786.5679
 Red. masses --      2.2236                 1.5486                 3.3809
 Frc consts  --      0.7066                 0.5250                 1.2324
 IR Inten    --     15.8228                10.4454                13.5830

                     16                     17                     18
                      A                      A                      A
 Frequencies --    808.7392               862.2680               937.5348
 Red. masses --      2.2167                 3.0797                 2.7598
 Frc consts  --      0.8542                 1.3491                 1.4292
 IR Inten    --     25.1983                14.1382                21.8532

                     19                     20                     21
                      A                      A                      A
 Frequencies --    950.9448               954.3363               980.7589
 Red. masses --      1.3578                 1.3497                 1.5447
 Frc consts  --      0.7235                 0.7242                 0.8754
 IR Inten    --      0.3066                 0.8188                 3.8532

                     22                     23                     24
                      A                      A                      A
 Frequencies --    993.5473              1044.3193              1073.3317
 Red. masses --      1.3599                 4.2498                 2.7992
 Frc consts  --      0.7909                 2.7308                 1.9000
 IR Inten    --      0.0663                 7.7936                 1.5426

                     25                     26                     27
                      A                      A                      A
 Frequencies --   1131.6309              1151.3931              1183.3523
 Red. masses --      2.4963                 1.4475                 1.2584
 Frc consts  --      1.8834                 1.1306                 1.0382
 IR Inten    --     65.3487                14.6801                 1.8616

                     28                     29                     30
                      A                      A                      A
 Frequencies --   1224.6089              1236.5692              1255.4515
 Red. masses --      1.5059                 1.4580                 1.9910
 Frc consts  --      1.3306                 1.3135                 1.8489
 IR Inten    --      1.9629                 6.5473                15.2808

                     31                     32                     33
                      A                      A                      A
 Frequencies --   1303.5961              1355.8456              1380.9003
 Red. masses --      5.5702                 1.7349                 1.2473
 Frc consts  --      5.5771                 1.8791                 1.4013
 IR Inten    --     12.9347               105.4609                12.4761

                     34                     35                     36
                      A                      A                      A
 Frequencies --   1455.1854              1462.6546              1502.2599
 Red. masses --      1.3101                 2.3818                 1.2044
 Frc consts  --      1.6346                 3.0022                 1.6014
 IR Inten    --     12.7892                22.8893                 3.6202

                     37                     38                     39
                      A                      A                      A
 Frequencies --   1518.4748              1527.3725              1534.8387
 Red. masses --      1.1113                 1.8071                 1.1287
 Frc consts  --      1.5098                 2.4838                 1.5666
 IR Inten    --      9.3071                12.5366                17.7906

                     40                     41                     42
                      A                      A                      A
 Frequencies --   1617.3514              1647.3186              1714.0582
 Red. masses --      4.7897                 5.6406                 6.6059
 Frc consts  --      7.3819                 9.0184                11.4350
 IR Inten    --     15.2991                 1.2225               156.0856

                     43                     44                     45
                      A                      A                      A
 Frequencies --   3057.9093              3132.4270              3154.4394
 Red. masses --      1.0303                 1.1055                 1.1059
 Frc consts  --      5.6763                 6.3910                 6.4835
 IR Inten    --     31.9489                19.8302                32.9399

                     46                     47                     48
                      A                      A                      A
 Frequencies --   3163.7177              3172.5660              3175.7960
 Red. masses --      1.0848                 1.0876                 1.0912
 Frc consts  --      6.3975                 6.4495                 6.4845
 IR Inten    --      2.3230                28.0501                 7.9807

                     49                     50                     51
                      A                      A                      A
 Frequencies --   3188.1894              3195.5115              3210.7887
 Red. masses --      1.0897                 1.0939                 1.0966
 Frc consts  --      6.5259                 6.5811                 6.6610
 IR Inten    --     14.4182                33.2425                22.5536

 - Thermochemistry -
 -------------------
 Temperature   298.150 Kelvin.  Pressure   1.00000 Atm.
 Atom     1 has atomic number  6 and mass  12.00000

 Molecular mass:   135.06841 amu.
 Principal axes and moments of inertia in atomic units:
                           1         2         3
     Eigenvalues --   635.462152028.996922324.16777
           X            0.99996  -0.00843   0.00297
           Y            0.00835   0.99962   0.02612
           Z           -0.00319  -0.02610   0.99965
 This molecule is an asymmetric top.
 Rotational symmetry number  1.
 Warning -- assumption of classical behavior for rotation
           may cause significant error
 Rotational temperatures (Kelvin)      0.13630     0.04269     0.03727
 Rotational constants (GHZ):           2.84005     0.88947     0.77651
 Zero-point vibrational energy     409595.4 (Joules/Mol)
                                   97.89564 (Kcal/Mol)
 Warning -- explicit consideration of  11 degrees of freedom as
           vibrations may cause significant error
 Vibrational temperatures:     83.69   120.21   162.20   293.64   381.18
          (Kelvin)            391.98   459.63   607.92   659.44   772.45
                              812.55   923.14  1056.63  1091.41  1131.70
                             1163.60  1240.61  1348.90  1368.20  1373.08
                             1411.09  1429.49  1502.54  1544.28  1628.16
                             1656.60  1702.58  1761.94  1779.15  1806.31
                             1875.58  1950.76  1986.81  2093.69  2104.43
                             2161.42  2184.75  2197.55  2208.29  2327.01
                             2370.12  2466.15  4399.65  4506.86  4538.53
                             4551.88  4564.61  4569.26  4587.09  4597.63
                             4619.61

 Zero-point correction=                           0.156007 (Hartree/Particle)
 Thermal correction to Energy=                    0.164920
 Thermal correction to Enthalpy=                  0.165864
 Thermal correction to Gibbs Free Energy=         0.121400
 Sum of electronic and zero-point Energies=           -440.078507
 Sum of electronic and thermal Energies=              -440.069593
 Sum of electronic and thermal Enthalpies=            -440.068649
 Sum of electronic and thermal Free Energies=         -440.113113

                     E (Thermal)             CV                S
                      KCal/Mol        Cal/Mol-Kelvin    Cal/Mol-Kelvin
 Total                  103.489             33.049             93.583
 Electronic               0.000              0.000              0.000
 Translational            0.889              2.981             40.614
 Rotational               0.889              2.981             29.484
 Vibrational            101.711             27.087             23.485
 Vibration     1          0.596              1.974              4.518
 Vibration     2          0.600              1.961              3.806
 Vibration     3          0.607              1.939              3.221
 Vibration     4          0.640              1.834              2.096
 Vibration     5          0.671              1.737              1.629
 Vibration     6          0.675              1.724              1.581
 Vibration     7          0.705              1.636              1.313
 Vibration     8          0.785              1.421              0.883
 Vibration     9          0.816              1.342              0.771
 Vibration    10          0.892              1.168              0.572
 Vibration    11          0.921              1.108              0.514

 Optimization completed.
    -- Stationary point found.
 Normal termination of Gaussian 16 at Tue Dec  8 13:09:18 2020.

 ----------------------------------------------------------------------
 # B3LYP/6-311++G(d,p) empiricaldispersion=gd3bj scf=xqc pop=npa geom=c
 heck
 ----------------------------------------------------------------------

 -------------------------------------
 CID_23260320_JID_721_Energie_neutraal
 -------------------------------------
 Structure from the checkpoint file:  "JID_721.chk"
 Charge =  0 Multiplicity = 1

 SCF Done:  E(RB3LYP) =  -440.355082863     A.U. after   14 cycles
 Normal termination of Gaussian 16 at Tue Dec  8 13:12:48 2020.

 ----------------------------------------------------------------------
 # B3LYP/6-311++G(d,p) empiricaldispersion=gd3bj scf=xqc pop=npa geom=c
 heck
 ----------------------------------------------------------------------

 -----------------------------------
 CID_23260320_JID_721_Energie_kation
 -----------------------------------
 Structure from the checkpoint file:  "JID_721.chk"
 Charge =  1 Multiplicity = 2

 SCF Done:  E(UB3LYP) =  -440.051980342     A.U. after   23 cycles
 Normal termination of Gaussian 16 at Tue Dec  8 13:23:57 2020.
 Gaussian 16:  ES64L-G16RevA.03 25-Dec-2016

 ----------------------------------------------------------------------
 # B3LYP/6-311++G(d,p) empiricaldispersion=gd3bj scf=xqc pop=npa geom=c
 heck
 ----------------------------------------------------------------------

 ----------------------------------
 CID_23260320_JID_721_Energie_anion
 ----------------------------------
 Structure from the checkpoint file:  "JID_721.chk"
 Charge = -1 Multiplicity = 2

                         Standard orientation:
 ---------------------------------------------------------------------
 Center     Atomic      Atomic             Coordinates (Angstroms)
 Number     Number       Type             X           Y           Z
 ---------------------------------------------------------------------
      1          6           0       -1.997799    1.214757    0.942968
      2          8           0       -2.753995    0.432753    0.020405
      3          6           0       -2.290765   -0.776717   -0.374008
      4          6           0       -1.043151   -1.280585   -0.416326
      5          6           0        0.253528   -0.616050   -0.221664
      6          6           0        0.551999    0.624794   -0.813427
      7          7           0        1.718360    1.264300   -0.688931
      8          6           0        2.675635    0.666278    0.029971
      9          6           0        2.513699   -0.584924    0.627778
     10          6           0        1.290032   -1.232454    0.495896
     11          1           0       -2.718578    1.868610    1.438608
     12          1           0       -1.240435    1.822379    0.439568
     13          1           0       -1.505145    0.572044    1.680281
     14          1           0       -3.127783   -1.402253   -0.675012
     15          1           0       -0.997394   -2.337231   -0.672627
     16          1           0       -0.196295    1.108870   -1.438205
     17          1           0        3.616320    1.206071    0.121480
     18          1           0        3.328800   -1.036112    1.185677
     19          1           0        1.124891   -2.205098    0.952389
 ---------------------------------------------------------------------

 SCF Done:  E(UB3LYP) =  -440.342779708     A.U. after   33 cycles
 SCF Done:  E(UB3LYP) =  -440.342779708     a.u. after    1 cycles

 The electronic state is 2-A.
 Alpha  occ. eigenvalues --  -19.03410 -14.16538 -10.10920 -10.09392 -10.06776
 Alpha  occ. eigenvalues --  -10.05699 -10.04427 -10.04374 -10.03763 -10.03638
 Alpha  occ. eigenvalues --   -0.94769  -0.80250  -0.68058  -0.64570  -0.62483
 Alpha  occ. eigenvalues --   -0.57687  -0.49922  -0.48937  -0.44446  -0.39487
 Alpha  occ. eigenvalues --   -0.38117  -0.36349  -0.35016  -0.34019  -0.30838
 Alpha  occ. eigenvalues --   -0.30237  -0.27062  -0.26281  -0.25937  -0.23942
 Alpha  occ. eigenvalues --   -0.22679  -0.21123  -0.15957  -0.13877  -0.12315
 Alpha  occ. eigenvalues --   -0.09499   0.05652
 Alpha virt. eigenvalues --    0.08163   0.08331   0.08959   0.10047   0.10619
 Alpha virt. eigenvalues --    0.11109   0.11826   0.12509   0.12968   0.13896
 Alpha virt. eigenvalues --    0.15318   0.15932   0.17063   0.17286   0.18234

  Beta  occ. eigenvalues --  -19.03358 -14.16376 -10.10916 -10.09241 -10.06822
  Beta  occ. eigenvalues --  -10.05495 -10.04487 -10.04219 -10.03654 -10.03539
  Beta  occ. eigenvalues --   -0.94657  -0.79949  -0.67707  -0.64339  -0.62307
  Beta  occ. eigenvalues --   -0.57546  -0.49781  -0.48497  -0.44327  -0.39341
  Beta  occ. eigenvalues --   -0.37992  -0.36194  -0.34862  -0.33852  -0.30729
  Beta  occ. eigenvalues --   -0.30156  -0.26760  -0.25966  -0.25548  -0.23756
  Beta  occ. eigenvalues --   -0.22515  -0.20867  -0.15026  -0.13389  -0.12059
  Beta  occ. eigenvalues --   -0.08854
  Beta virt. eigenvalues --    0.08105   0.08768   0.09393   0.10298   0.10589
  Beta virt. eigenvalues --    0.10838   0.11635   0.11858   0.12870   0.13245
  Beta virt. eigenvalues --    0.13886   0.15648   0.16141   0.17116   0.17271

 Mulliken charges and spin densities:
               1          2
     1  C   -0.308903  -0.055060
     2  O   -0.146236  -0.001271
     3  C    0.165548  -0.413296
     4  C    0.802803  -1.395530
     5  C    0.628936   0.522847
     6  C   -1.019610   0.230554
     7  N   -0.065635   0.080943
     8  C    0.066166  -0.275674
     9  C    0.270787  -0.402472
    10  C   -0.134477   0.047033
    11  H    0.096988   0.037259
    12  H    0.166149   0.013651
    13  H    0.173276  -0.034983
    14  H   -0.409852   0.566480
    15  H   -0.548494   0.734419
    16  H    0.126706   0.048908
    17  H    0.093394   0.024427
    18  H   -0.431857   0.579443
    19  H   -0.525688   0.692322
 Sum of Mulliken charges =  -1.00000   1.00000

 Dipole moment (field-independent basis, Debye):
    X=             -1.4486    Y=              4.8043    Z=              1.9212  Tot=              5.3732
 Quadrupole moment (field-independent basis, Debye-Ang):
   XX=           -101.9934   YY=            -96.8267   ZZ=            -76.8226
   XY=             -5.2069   XZ=             -6.4718   YZ=              0.9471

 Summary of Natural Population Analysis:

                                       Natural Population
                Natural  -----------------------------------------------
    Atom  No    Charge         Core      Valence    Rydberg      Total
 -----------------------------------------------------------------------
      C    1   -0.09932      0.99960     2.09195    0.00777     3.09932
      O    2   -0.27765      0.99987     3.26798    0.00980     4.27765
      C    3    0.10989      0.99944     1.87449    0.01617     2.89011
      C    4   -0.16785      0.99953     2.15613    0.01219     3.16785
      C    5   -0.03907      0.99949     2.02823    0.01135     3.03907
      C    6    0.01365      0.99954     1.97269    0.01411     2.98635
      N    7   -0.22506      0.99971     2.71363    0.01172     3.72506
      C    8    0.04720      0.99959     1.93707    0.01614     2.95280
      C    9   -0.13792      0.99956     2.12850    0.00986     3.13792
      C   10   -0.04079      0.99952     2.03061    0.01066     3.04079
      H   11    0.08228      0.00000     0.41681    0.00091     0.41772
      H   12    0.08962      0.00000     0.40903    0.00135     0.41038
      H   13    0.08925      0.00000     0.40979    0.00096     0.41075
      H   14    0.08324      0.00000     0.41495    0.00182     0.41676
      H   15    0.11083      0.00000     0.38458    0.00459     0.38917
      H   16    0.08518      0.00000     0.41293    0.00189     0.41482
      H   17    0.08002      0.00000     0.41881    0.00117     0.41998
      H   18    0.09835      0.00000     0.40049    0.00115     0.40165
      H   19    0.09814      0.00000     0.40026    0.00160     0.40186
 =======================================================================
   * Total *   -0.00000      9.99585    25.86893    0.13522    36.00000

 Normal termination of Gaussian 16 at Tue Dec  8 13:30:44 2020.
