 Gaussian 16, Revision A.03,

 -----------------------------------------------------------
 # opt freq B3LYP/6-31G(d) empiricaldispersion=gd3bj scf=xqc
 -----------------------------------------------------------

 -----------------------------
 CID_6466649_JID_8448_neutraal
 -----------------------------
 Symbolic Z-matrix:
 Charge =  0 Multiplicity = 1

 SCF Done:  E(RB3LYP) =  -787.091845641     A.U. after   15 cycles
 SCF Done:  E(RB3LYP) =  -787.096100620     A.U. after   13 cycles
 SCF Done:  E(RB3LYP) =  -787.096511330     A.U. after   13 cycles
 SCF Done:  E(RB3LYP) =  -787.097156866     A.U. after   12 cycles
 SCF Done:  E(RB3LYP) =  -787.097314258     A.U. after   12 cycles
 SCF Done:  E(RB3LYP) =  -787.097597097     A.U. after   12 cycles
 SCF Done:  E(RB3LYP) =  -787.097292913     A.U. after   15 cycles
 SCF Done:  E(RB3LYP) =  -787.097930873     A.U. after   12 cycles
 SCF Done:  E(RB3LYP) =  -787.098072395     A.U. after   12 cycles
 SCF Done:  E(RB3LYP) =  -787.098189706     A.U. after   12 cycles
 SCF Done:  E(RB3LYP) =  -787.098279123     A.U. after    9 cycles
 SCF Done:  E(RB3LYP) =  -787.098279230     A.U. after    8 cycles
 SCF Done:  E(RB3LYP) =  -787.098279224     A.U. after    7 cycles
 SCF Done:  E(RB3LYP) =  -787.098279226     A.U. after    6 cycles
 Optimization completed.
    -- Stationary point found.
 Normal termination of Gaussian 16 at Fri Dec 11 20:13:45 2020.

 --------------------------------------------------------------------
 #N Geom=AllCheck Guess=TCheck SCRF=Check GenChk RB3LYP/6-31G(d) Freq
 --------------------------------------------------------------------

 Structure from the checkpoint file:  "JID_8448.chk"
 -----------------------------
 CID_6466649_JID_8448_neutraal
 -----------------------------
 Charge =  0 Multiplicity = 1

 SCF Done:  E(RB3LYP) =  -787.098279226     A.U. after    1 cycles

  Exact polarizability: 225.391  14.004 155.004  16.881  -4.617 113.999
 Approx polarizability: 297.271  25.838 260.496  23.537 -18.589 194.330

                      1                      2                      3
                      A                      A                      A
 Frequencies --     22.8558                25.9438                35.4622
 Red. masses --      3.7665                 1.0617                 4.6143
 Frc consts  --      0.0012                 0.0004                 0.0034
 IR Inten    --      0.3421                 0.3612                 0.0515

                      4                      5                      6
                      A                      A                      A
 Frequencies --     47.2243                79.9674               113.4555
 Red. masses --      5.2208                 5.1387                 4.9308
 Frc consts  --      0.0069                 0.0194                 0.0374
 IR Inten    --      1.6684                 1.5742                 0.5442

                      7                      8                      9
                      A                      A                      A
 Frequencies --    120.8659               143.0965               197.1912
 Red. masses --      3.3808                 2.9879                 4.4546
 Frc consts  --      0.0291                 0.0360                 0.1021
 IR Inten    --      0.9280                 0.7870                 0.3516

                     10                     11                     12
                      A                      A                      A
 Frequencies --    199.6494               211.8322               223.9692
 Red. masses --      3.0452                 1.2395                 3.9240
 Frc consts  --      0.0715                 0.0328                 0.1160
 IR Inten    --      0.3407                 0.8661                 2.1375

                     13                     14                     15
                      A                      A                      A
 Frequencies --    275.4433               293.7165               299.0572
 Red. masses --      2.6946                 1.9437                 1.5915
 Frc consts  --      0.1205                 0.0988                 0.0839
 IR Inten    --      1.5165                 0.9455                 0.4810

                     16                     17                     18
                      A                      A                      A
 Frequencies --    334.7330               351.7635               409.1386
 Red. masses --      3.3507                 2.8747                 4.0421
 Frc consts  --      0.2212                 0.2096                 0.3987
 IR Inten    --      1.3328                 1.8142                 5.2029

                     19                     20                     21
                      A                      A                      A
 Frequencies --    420.3754               462.6689               473.6084
 Red. masses --      4.0288                 3.3079                 4.1565
 Frc consts  --      0.4195                 0.4172                 0.5493
 IR Inten    --      2.0790                 4.1415                 2.0763

                     22                     23                     24
                      A                      A                      A
 Frequencies --    508.5971               529.8226               567.8363
 Red. masses --      3.2725                 5.2221                 3.6282
 Frc consts  --      0.4987                 0.8637                 0.6893
 IR Inten    --      0.4144                 6.1276                 7.2914

                     25                     26                     27
                      A                      A                      A
 Frequencies --    597.1921               613.7829               635.2034
 Red. masses --      2.1690                 3.0605                 5.1170
 Frc consts  --      0.4558                 0.6793                 1.2165
 IR Inten    --     20.6084                 4.5993                 3.3038

                     28                     29                     30
                      A                      A                      A
 Frequencies --    670.9581               702.1973               734.2604
 Red. masses --      3.7957                 2.5519                 3.9251
 Frc consts  --      1.0068                 0.7414                 1.2468
 IR Inten    --     29.9105                51.7317                 9.8238

                     31                     32                     33
                      A                      A                      A
 Frequencies --    756.5239               760.3045               769.3434
 Red. masses --      3.5598                 1.5508                 2.8723
 Frc consts  --      1.2004                 0.5282                 1.0016
 IR Inten    --      6.8973                10.6075                70.0919

                     34                     35                     36
                      A                      A                      A
 Frequencies --    780.9246               830.6623               832.8018
 Red. masses --      3.2339                 1.3362                 1.2823
 Frc consts  --      1.1620                 0.5432                 0.5240
 IR Inten    --      2.8007                 3.5509                19.4470

                     37                     38                     39
                      A                      A                      A
 Frequencies --    878.5333               906.4848               910.6728
 Red. masses --      1.3307                 1.4142                 5.9770
 Frc consts  --      0.6051                 0.6847                 2.9205
 IR Inten    --      0.9402                 2.5004                 6.3035

                     40                     41                     42
                      A                      A                      A
 Frequencies --    919.3738               939.5379               958.5517
 Red. masses --      2.3951                 3.3054                 1.3049
 Frc consts  --      1.1928                 1.7191                 0.7064
 IR Inten    --      2.9649                 9.7379                 0.2281

                     43                     44                     45
                      A                      A                      A
 Frequencies --    966.0560              1018.4192              1044.2005
 Red. masses --      2.3035                 1.5394                 1.3498
 Frc consts  --      1.2666                 0.9407                 0.8671
 IR Inten    --      8.5620                 9.0417                 1.3558

                     46                     47                     48
                      A                      A                      A
 Frequencies --   1052.4571              1069.0822              1077.1052
 Red. masses --      1.3352                 1.5699                 1.5176
 Frc consts  --      0.8713                 1.0572                 1.0374
 IR Inten    --     26.1115                 8.4935                 8.7637

                     49                     50                     51
                      A                      A                      A
 Frequencies --   1083.7525              1100.4590              1125.2894
 Red. masses --      2.7033                 1.7187                 2.1037
 Frc consts  --      1.8707                 1.2263                 1.5695
 IR Inten    --      9.3938                 1.4986                 5.1644

                     52                     53                     54
                      A                      A                      A
 Frequencies --   1150.0116              1171.1226              1180.6246
 Red. masses --      3.2793                 2.2552                 2.7605
 Frc consts  --      2.5553                 1.8223                 2.2671
 IR Inten    --      9.8131                25.9089                39.5899

                     55                     56                     57
                      A                      A                      A
 Frequencies --   1198.6543              1227.6412              1246.9139
 Red. masses --      1.5940                 3.4888                 1.8236
 Frc consts  --      1.3493                 3.0979                 1.6705
 IR Inten    --      8.9677                35.2787                 2.4688

                     58                     59                     60
                      A                      A                      A
 Frequencies --   1266.9209              1276.7852              1325.2982
 Red. masses --      1.7688                 3.2836                 1.8399
 Frc consts  --      1.6728                 3.1538                 1.9041
 IR Inten    --      6.4515                 1.0435                 5.7887

                     61                     62                     63
                      A                      A                      A
 Frequencies --   1340.1913              1354.4747              1385.3315
 Red. masses --      1.8748                 1.8038                 4.1601
 Frc consts  --      1.9840                 1.9497                 4.7040
 IR Inten    --      2.7811                 9.0783               249.7728

                     64                     65                     66
                      A                      A                      A
 Frequencies --   1391.5478              1437.3452              1441.7555
 Red. masses --      1.4765                 1.3450                 2.5929
 Frc consts  --      1.6845                 1.6372                 3.1755
 IR Inten    --     13.6821                 8.4041                54.3519

                     67                     68                     69
                      A                      A                      A
 Frequencies --   1443.0315              1449.2234              1462.0276
 Red. masses --      1.2524                 1.2627                 2.5306
 Frc consts  --      1.5366                 1.5625                 3.1871
 IR Inten    --      0.0471                 0.9961                 6.3111

                     70                     71                     72
                      A                      A                      A
 Frequencies --   1478.8102              1518.1538              1518.8915
 Red. masses --      1.4650                 1.0498                 1.0910
 Frc consts  --      1.8876                 1.4256                 1.4829
 IR Inten    --     85.7581                 5.0837                 2.0171

                     73                     74                     75
                      A                      A                      A
 Frequencies --   1521.4330              1522.1425              1523.7940
 Red. masses --      1.1513                 3.4607                 1.0724
 Frc consts  --      1.5702                 4.7241                 1.4671
 IR Inten    --      5.0124                79.1837                11.4403

                     76                     77                     78
                      A                      A                      A
 Frequencies --   1532.8353              1534.5983              1552.6370
 Red. masses --      1.1398                 1.0925                 2.4128
 Frc consts  --      1.5778                 1.5159                 3.4270
 IR Inten    --     24.3723                 6.1309                25.6984

                     79                     80                     81
                      A                      A                      A
 Frequencies --   1621.8419              1632.9990              1677.4703
 Red. masses --      5.5286                 5.2560                 5.8301
 Frc consts  --      8.5681                 8.2581                 9.6658
 IR Inten    --     31.1978                 1.8120                 4.1716

                     82                     83                     84
                      A                      A                      A
 Frequencies --   1762.8804              3041.1171              3053.4720
 Red. masses --      8.3756                 1.0405                 1.0370
 Frc consts  --     15.3359                 5.6699                 5.6965
 IR Inten    --    326.5942                37.1335                20.7142

                     85                     86                     87
                      A                      A                      A
 Frequencies --   3060.5269              3098.0922              3107.8338
 Red. masses --      1.0355                 1.0956                 1.0891
 Frc consts  --      5.7145                 6.1958                 6.1976
 IR Inten    --     14.7926                21.5289                 4.9298

                     88                     89                     90
                      A                      A                      A
 Frequencies --   3109.9769              3124.8077              3128.4896
 Red. masses --      1.0964                 1.1027                 1.1014
 Frc consts  --      6.2478                 6.3439                 6.3515
 IR Inten    --      8.4527                16.8939                20.3796

                     91                     92                     93
                      A                      A                      A
 Frequencies --   3133.1226              3135.6573              3174.4785
 Red. masses --      1.0998                 1.1030                 1.0868
 Frc consts  --      6.3611                 6.3898                 6.4528
 IR Inten    --     31.3559                31.8980                11.6768

                     94                     95                     96
                      A                      A                      A
 Frequencies --   3191.9721              3201.2682              3270.7618
 Red. masses --      1.0943                 1.0886                 1.0908
 Frc consts  --      6.5689                 6.5730                 6.8756
 IR Inten    --     33.3894                 9.7278                 3.7370

                     97                     98                     99
                      A                      A                      A
 Frequencies --   3287.5982              3303.7909              3570.3599
 Red. masses --      1.0968                 1.1053                 1.0752
 Frc consts  --      6.9847                 7.1078                 8.0751
 IR Inten    --      0.8739                 0.8969                25.0632

 - Thermochemistry -
 -------------------
 Temperature   298.150 Kelvin.  Pressure   1.00000 Atm.
 Atom     1 has atomic number  6 and mass  12.00000

 Molecular mass:   243.12593 amu.
 Principal axes and moments of inertia in atomic units:
                           1         2         3
     Eigenvalues --  1937.150308060.543508581.93844
           X            0.99995   0.00401   0.00919
           Y           -0.00406   0.99998   0.00469
           Z           -0.00917  -0.00473   0.99995
 This molecule is an asymmetric top.
 Rotational symmetry number  1.
 Warning -- assumption of classical behavior for rotation
           may cause significant error
 Rotational temperatures (Kelvin)      0.04471     0.01075     0.01009
 Rotational constants (GHZ):           0.93165     0.22390     0.21030
 Zero-point vibrational energy     766944.6 (Joules/Mol)
                                  183.30415 (Kcal/Mol)
 Warning -- explicit consideration of  26 degrees of freedom as
           vibrations may cause significant error
 Vibrational temperatures:     32.88    37.33    51.02    67.95   115.06
          (Kelvin)            163.24   173.90   205.88   283.71   287.25
                              304.78   322.24   396.30   422.59   430.28
                              481.61   506.11   588.66   604.83   665.68
                              681.42   731.76   762.30   816.99   859.23
                              883.10   913.92   965.36  1010.31  1056.44
                             1088.47  1093.91  1106.91  1123.58  1195.14
                             1198.22  1264.01  1304.23  1310.26  1322.77
                             1351.79  1379.14  1389.94  1465.28  1502.37
                             1514.25  1538.17  1549.71  1559.28  1583.31
                             1619.04  1654.61  1684.98  1698.66  1724.60
                             1766.30  1794.03  1822.82  1837.01  1906.81
                             1928.24  1948.79  1993.18  2002.13  2068.02
                             2074.36  2076.20  2085.11  2103.53  2127.68
                             2184.28  2185.35  2189.00  2190.02  2192.40
                             2205.41  2207.94  2233.90  2333.47  2349.52
                             2413.51  2536.39  4375.49  4393.27  4403.42
                             4457.46  4471.48  4474.56  4495.90  4501.20
                             4507.86  4511.51  4567.37  4592.54  4605.91
                             4705.90  4730.12  4753.42  5136.95

 Zero-point correction=                           0.292114 (Hartree/Particle)
 Thermal correction to Energy=                    0.309294
 Thermal correction to Enthalpy=                  0.310238
 Thermal correction to Gibbs Free Energy=         0.245059
 Sum of electronic and zero-point Energies=           -786.806165
 Sum of electronic and thermal Energies=              -786.788985
 Sum of electronic and thermal Enthalpies=            -786.788041
 Sum of electronic and thermal Free Energies=         -786.853220

                     E (Thermal)             CV                S
                      KCal/Mol        Cal/Mol-Kelvin    Cal/Mol-Kelvin
 Total                  194.085             64.890            137.180
 Electronic               0.000              0.000              0.000
 Translational            0.889              2.981             42.366
 Rotational               0.889              2.981             33.260
 Vibrational            192.307             58.928             61.554
 Vibration     1          0.593              1.985              6.369
 Vibration     2          0.593              1.985              6.118
 Vibration     3          0.594              1.982              5.498
 Vibration     4          0.595              1.979              4.930
 Vibration     5          0.600              1.963              3.892
 Vibration     6          0.607              1.938              3.209
 Vibration     7          0.609              1.932              3.086
 Vibration     8          0.616              1.910              2.762
 Vibration     9          0.637              1.844              2.159
 Vibration    10          0.638              1.840              2.136
 Vibration    11          0.643              1.823              2.028
 Vibration    12          0.649              1.805              1.927
 Vibration    13          0.677              1.719              1.562
 Vibration    14          0.689              1.685              1.452
 Vibration    15          0.692              1.675              1.422
 Vibration    16          0.716              1.606              1.237
 Vibration    17          0.728              1.572              1.158
 Vibration    18          0.774              1.450              0.930
 Vibration    19          0.783              1.426              0.891
 Vibration    20          0.820              1.333              0.758
 Vibration    21          0.830              1.309              0.728
 Vibration    22          0.864              1.231              0.637
 Vibration    23          0.885              1.184              0.588
 Vibration    24          0.924              1.101              0.508
 Vibration    25          0.955              1.038              0.455
 Vibration    26          0.973              1.003              0.427

 Optimization completed.
    -- Stationary point found.
 Normal termination of Gaussian 16 at Fri Dec 11 20:28:30 2020.

 ----------------------------------------------------------------------
 # B3LYP/6-311++G(d,p) empiricaldispersion=gd3bj scf=xqc pop=npa geom=c
 heck
 ----------------------------------------------------------------------

 -------------------------------------
 CID_6466649_JID_8448_Energie_neutraal
 -------------------------------------
 Structure from the checkpoint file:  "JID_8448.chk"
 Charge =  0 Multiplicity = 1

 SCF Done:  E(RB3LYP) =  -787.313062746     A.U. after   16 cycles
 Normal termination of Gaussian 16 at Fri Dec 11 20:34:30 2020.

 ----------------------------------------------------------------------
 # B3LYP/6-311++G(d,p) empiricaldispersion=gd3bj scf=xqc pop=npa geom=c
 heck
 ----------------------------------------------------------------------

 -----------------------------------
 CID_6466649_JID_8448_Energie_kation
 -----------------------------------
 Structure from the checkpoint file:  "JID_8448.chk"
 Charge =  1 Multiplicity = 2

 SCF Done:  E(UB3LYP) =  -787.014770546     A.U. after   33 cycles
 SCF Done:  E(UB3LYP) =  -787.014770546     a.u. after    1 cycles
 Normal termination of Gaussian 16 at Fri Dec 11 20:51:50 2020.
 Gaussian 16:  ES64L-G16RevA.03 25-Dec-2016

 ----------------------------------------------------------------------
 # B3LYP/6-311++G(d,p) empiricaldispersion=gd3bj scf=xqc pop=npa geom=c
 heck
 ----------------------------------------------------------------------

 ----------------------------------
 CID_6466649_JID_8448_Energie_anion
 ----------------------------------
 Structure from the checkpoint file:  "JID_8448.chk"
 Charge = -1 Multiplicity = 2

                         Standard orientation:
 ---------------------------------------------------------------------
 Center     Atomic      Atomic             Coordinates (Angstroms)
 Number     Number       Type             X           Y           Z
 ---------------------------------------------------------------------
      1          6           0       -5.229136   -0.799800   -0.094012
      2          6           0       -3.906187   -0.098816    0.096684
      3          6           0       -2.705068   -0.816871    0.079302
      4          6           0       -1.459982   -0.198409    0.221914
      5          6           0       -1.400526    1.203008    0.392669
      6          6           0       -2.602704    1.915317    0.421179
      7          6           0       -3.835964    1.283453    0.275289
      8          6           0       -0.096154    1.951553    0.532975
      9          6           0       -0.170314   -1.012003    0.163719
     10          6           0       -0.346885   -2.519392    0.366372
     11          7           0        0.512773   -0.750878   -1.116564
     12          6           0        1.699422   -0.090812   -1.331657
     13          8           0        1.938238    0.476628   -2.392507
     14          6           0        2.705892   -0.129386   -0.245188
     15          6           0        3.020828   -0.995124    0.771077
     16          6           0        4.193160   -0.478308    1.404012
     17          6           0        4.506077    0.665233    0.728718
     18          8           0        3.622025    0.887280   -0.274155
     19          1           0       -5.499643   -0.857368   -1.156723
     20          1           0       -5.198424   -1.825357    0.289004
     21          1           0       -6.039176   -0.270630    0.418607
     22          1           0       -2.755451   -1.894236   -0.043202
     23          1           0       -2.569638    2.992404    0.565836
     24          1           0       -4.750123    1.871490    0.305505
     25          1           0        0.586500    1.475418    1.245718
     26          1           0        0.437581    2.020357   -0.421827
     27          1           0       -0.277853    2.972378    0.881562
     28          1           0        0.494532   -0.643674    0.947768
     29          1           0       -0.917500   -2.969652   -0.452038
     30          1           0        0.632348   -3.006703    0.381787
     31          1           0       -0.861389   -2.734145    1.308742
     32          1           0       -0.102978   -0.655325   -1.917343
     33          1           0        2.499180   -1.906715    1.021485
     34          1           0        4.728285   -0.903313    2.241178
     35          1           0        5.287479    1.402076    0.834866
 ---------------------------------------------------------------------

 SCF Done:  E(UB3LYP) =  -787.307941954     A.U. after   33 cycles
 SCF Done:  E(UB3LYP) =  -787.307941954     a.u. after    1 cycles

 The electronic state is 2-A.
 Alpha  occ. eigenvalues --  -19.06498 -18.95240 -14.21207 -10.13799 -10.11328
 Alpha  occ. eigenvalues --  -10.10795 -10.10092 -10.08195 -10.08170 -10.07843
 Alpha  occ. eigenvalues --  -10.07169 -10.07144 -10.06959 -10.06838 -10.06563
 Alpha  occ. eigenvalues --  -10.06514 -10.06437 -10.05748  -0.99725  -0.90660
 Alpha  occ. eigenvalues --   -0.80843  -0.76046  -0.69214  -0.68965  -0.67418
 Alpha  occ. eigenvalues --   -0.64324  -0.62881  -0.61990  -0.56228  -0.54382
 Alpha  occ. eigenvalues --   -0.51662  -0.49266  -0.49070  -0.47177  -0.44356
 Alpha  occ. eigenvalues --   -0.42224  -0.39687  -0.38227  -0.37481  -0.35564
 Alpha  occ. eigenvalues --   -0.34769  -0.33914  -0.32752  -0.32470  -0.32184
 Alpha  occ. eigenvalues --   -0.31547  -0.31214  -0.30244  -0.29992  -0.29518
 Alpha  occ. eigenvalues --   -0.29043  -0.27855  -0.27624  -0.27016  -0.25966
 Alpha  occ. eigenvalues --   -0.25663  -0.24800  -0.23668  -0.23344  -0.17606
 Alpha  occ. eigenvalues --   -0.16212  -0.14534  -0.13415  -0.12991  -0.12303
 Alpha  occ. eigenvalues --    0.04399
 Alpha virt. eigenvalues --    0.05894   0.07069   0.07382   0.08074   0.08125
 Alpha virt. eigenvalues --    0.08173   0.08900   0.09634   0.09999   0.10347
 Alpha virt. eigenvalues --    0.10784   0.11319   0.11986   0.12727   0.13009

  Beta  occ. eigenvalues --  -19.06293 -18.95012 -14.21203 -10.13611 -10.11323
  Beta  occ. eigenvalues --  -10.10643 -10.09983 -10.08205 -10.08169 -10.07807
  Beta  occ. eigenvalues --  -10.07152 -10.07111 -10.06911 -10.06802 -10.06621
  Beta  occ. eigenvalues --  -10.06492 -10.06434 -10.05628  -0.99386  -0.90268
  Beta  occ. eigenvalues --   -0.80723  -0.75986  -0.69126  -0.68821  -0.67328
  Beta  occ. eigenvalues --   -0.63986  -0.62820  -0.61949  -0.56160  -0.54283
  Beta  occ. eigenvalues --   -0.51229  -0.49173  -0.49010  -0.47115  -0.44166
  Beta  occ. eigenvalues --   -0.42076  -0.39635  -0.38172  -0.37400  -0.35371
  Beta  occ. eigenvalues --   -0.34138  -0.33815  -0.32606  -0.32262  -0.32039
  Beta  occ. eigenvalues --   -0.31475  -0.31126  -0.30201  -0.29954  -0.29424
  Beta  occ. eigenvalues --   -0.28893  -0.27735  -0.27522  -0.26858  -0.25503
  Beta  occ. eigenvalues --   -0.25375  -0.24674  -0.23566  -0.23218  -0.16953
  Beta  occ. eigenvalues --   -0.15878  -0.14305  -0.13123  -0.12642  -0.11362
  Beta virt. eigenvalues --    0.06469   0.07124   0.07565   0.08031   0.08139
  Beta virt. eigenvalues --    0.08312   0.08990   0.09199   0.09702   0.10190
  Beta virt. eigenvalues --    0.10544   0.10920   0.11495   0.11997   0.12883

 Mulliken charges and spin densities:
               1          2
     1  C    1.763323  -2.270496
     2  C   -0.578599   1.116644
     3  C   -0.657153   0.077581
     4  C   -0.120057   0.299295
     5  C    0.264880   0.031975
     6  C   -0.292548  -0.116879
     7  C   -0.611163  -0.099630
     8  C   -0.527712   0.072297
     9  C    0.291950  -0.045152
    10  C   -0.041472  -0.467158
    11  N   -0.045014   0.061830
    12  C   -0.405485  -0.097757
    13  O   -0.351447   0.083407
    14  C   -0.281648   0.033127
    15  C    0.356529   0.334751
    16  C   -0.393782  -0.238743
    17  C    0.048531   0.190642
    18  O    0.034060   0.032683
    19  H    0.035430   0.129886
    20  H   -0.309214   0.453817
    21  H   -0.369132   0.512176
    22  H    0.199311  -0.102820
    23  H    0.084762   0.026160
    24  H   -0.127492   0.257855
    25  H    0.120155   0.015652
    26  H    0.292512  -0.029954
    27  H    0.117119   0.036470
    28  H    0.205353  -0.114378
    29  H   -0.175651   0.335551
    30  H   -0.018616   0.156607
    31  H   -0.019725   0.159401
    32  H    0.271103   0.005608
    33  H    0.036226   0.085475
    34  H    0.072359   0.069454
    35  H    0.132308   0.004623
 Sum of Mulliken charges =  -1.00000   1.00000

 Dipole moment (field-independent basis, Debye):
    X=              1.9782    Y=              1.5676    Z=              3.2973  Tot=              4.1524
 Quadrupole moment (field-independent basis, Debye-Ang):
   XX=           -194.5439   YY=           -132.9601   ZZ=           -136.3282
   XY=             -7.0248   XZ=             14.8944   YZ=              2.3934

 Summary of Natural Population Analysis:

                                       Natural Population
                Natural  -----------------------------------------------
    Atom  No    Charge         Core      Valence    Rydberg      Total
 -----------------------------------------------------------------------
      C    1   -0.29233      0.99964     2.28691    0.00578     3.29233
      C    2   -0.01938      0.99952     2.01103    0.00883     3.01938
      C    3   -0.09760      0.99947     2.08932    0.00881     3.09760
      C    4   -0.00971      0.99945     2.00101    0.00925     3.00971
      C    5   -0.01243      0.99947     2.00394    0.00902     3.01243
      C    6   -0.09609      0.99952     2.08757    0.00900     3.09609
      C    7   -0.09618      0.99951     2.08702    0.00965     3.09618
      C    8   -0.29806      0.99964     2.29381    0.00462     3.29806
      C    9   -0.02397      0.99956     2.01316    0.01125     3.02397
      C   10   -0.28694      0.99965     2.28140    0.00589     3.28694
      N   11   -0.32125      0.99967     2.81163    0.00994     3.82125
      C   12    0.33592      0.99961     1.64295    0.02152     2.66408
      O   13   -0.29900      0.99988     3.29394    0.00518     4.29900
      C   14    0.11985      0.99943     1.86487    0.01585     2.88015
      C   15   -0.12587      0.99953     2.11862    0.00773     3.12587
      C   16   -0.17574      0.99957     2.16699    0.00918     3.17574
      C   17    0.08758      0.99954     1.89885    0.01404     2.91242
      O   18   -0.20407      0.99986     3.19616    0.00805     4.20407
      H   19    0.10299      0.00000     0.39612    0.00089     0.39701
      H   20    0.10274      0.00000     0.39618    0.00108     0.39726
      H   21    0.10296      0.00000     0.39562    0.00143     0.39704
      H   22    0.10059      0.00000     0.39823    0.00118     0.39941
      H   23    0.09421      0.00000     0.40449    0.00131     0.40579
      H   24    0.09692      0.00000     0.40223    0.00085     0.40308
      H   25    0.10523      0.00000     0.39370    0.00107     0.39477
      H   26    0.11604      0.00000     0.38288    0.00108     0.38396
      H   27    0.09786      0.00000     0.40133    0.00081     0.40214
      H   28    0.10853      0.00000     0.38901    0.00246     0.39147
      H   29    0.09962      0.00000     0.39914    0.00125     0.40038
      H   30    0.10255      0.00000     0.39647    0.00099     0.39745
      H   31    0.09898      0.00000     0.40024    0.00078     0.40102
      H   32    0.19042      0.00000     0.30739    0.00220     0.30958
      H   33    0.10521      0.00000     0.39388    0.00090     0.39479
      H   34    0.10295      0.00000     0.39622    0.00082     0.39705
      H   35    0.08747      0.00000     0.41164    0.00089     0.41253
 =======================================================================
   * Total *   -0.00000     17.99251    46.81391    0.19358    65.00000

 Normal termination of Gaussian 16 at Fri Dec 11 21:09:08 2020.
