 Gaussian 16, Revision A.03,

 -----------------------------------------------------------
 # opt freq B3LYP/6-31G(d) empiricaldispersion=gd3bj scf=xqc
 -----------------------------------------------------------

 ------------------------------
 CID_134533926_JID_530_neutraal
 ------------------------------
 Symbolic Z-matrix:
 Charge =  0 Multiplicity = 1

 SCF Done:  E(RB3LYP) =  -438.793515220     A.U. after   15 cycles
 SCF Done:  E(RB3LYP) =  -438.799959076     A.U. after   14 cycles
 SCF Done:  E(RB3LYP) =  -438.802161453     A.U. after   14 cycles
 SCF Done:  E(RB3LYP) =  -438.804027845     A.U. after   15 cycles
 SCF Done:  E(RB3LYP) =  -438.804800688     A.U. after   13 cycles
 SCF Done:  E(RB3LYP) =  -438.805200194     A.U. after   12 cycles
 SCF Done:  E(RB3LYP) =  -438.805293661     A.U. after   12 cycles
 SCF Done:  E(RB3LYP) =  -438.805401456     A.U. after   11 cycles
 SCF Done:  E(RB3LYP) =  -438.805444884     A.U. after   10 cycles
 SCF Done:  E(RB3LYP) =  -438.805460286     A.U. after   10 cycles
 SCF Done:  E(RB3LYP) =  -438.805490938     A.U. after    9 cycles
 SCF Done:  E(RB3LYP) =  -438.805495057     A.U. after   10 cycles
 SCF Done:  E(RB3LYP) =  -438.805497854     A.U. after    9 cycles
 SCF Done:  E(RB3LYP) =  -438.805498791     A.U. after    8 cycles
 SCF Done:  E(RB3LYP) =  -438.805498991     A.U. after    8 cycles
 SCF Done:  E(RB3LYP) =  -438.805499079     A.U. after    8 cycles
 Optimization completed.
    -- Stationary point found.

 1\1\GINC-NODE372\FOpt\RB3LYP\6-31G(d)\C7H13N3\VSC10255\08-Dec-2020\0\\
 # opt freq B3LYP/6-31G(d) empiricaldispersion=gd3bj scf=xqc\\CID_13453
 3926_JID_530_neutraal\\0,1\C,1.3042780326,-0.4669963102,0.1820613552\C
 ,-0.1462387069,-0.839966898,0.1025909917\C,-1.0810342385,-0.3702055279
 ,0.9558180728\N,-0.763851128,0.5040412668,1.9879684995\C,-1.6727986415
 ,0.9214901827,2.7970046823\C,-3.1440125575,0.5703979786,2.777196949\N,
 -1.303944072,1.7481530853,3.8790178001\C,-0.441016738,2.6615124919,3.6
 77204681\C,-0.5549826846,-1.7726524421,-1.0091956616\N,-0.2593972022,-

 Normal termination of Gaussian 16 at Tue Dec  8 12:23:51 2020.

 --------------------------------------------------------------------
 #N Geom=AllCheck Guess=TCheck SCRF=Check GenChk RB3LYP/6-31G(d) Freq
 --------------------------------------------------------------------

 Structure from the checkpoint file:  "JID_530.chk"
 ------------------------------
 CID_134533926_JID_530_neutraal
 ------------------------------
 Charge =  0 Multiplicity = 1

 SCF Done:  E(RB3LYP) =  -438.805499079     A.U. after    1 cycles

  Exact polarizability: 168.273  -0.089  95.535  -6.787  -4.241  62.959
 Approx polarizability: 238.663 -12.163 138.183 -10.830  -9.039  94.046

                      1                      2                      3
                      A                      A                      A
 Frequencies --     40.5275                58.9754                95.4134
 Red. masses --      2.6122                 3.7939                 2.8216
 Frc consts  --      0.0025                 0.0078                 0.0151
 IR Inten    --      0.5129                 0.0376                 3.8121

                      4                      5                      6
                      A                      A                      A
 Frequencies --     96.2302               116.6602               156.3349
 Red. masses --      1.1933                 2.1312                 1.8972
 Frc consts  --      0.0065                 0.0171                 0.0273
 IR Inten    --      1.1735                11.8857                 7.4743

                      7                      8                      9
                      A                      A                      A
 Frequencies --    168.5490               233.6631               257.8290
 Red. masses --      1.5793                 2.5655                 1.6878
 Frc consts  --      0.0264                 0.0825                 0.0661
 IR Inten    --      3.2095                 5.5793                31.4949

                     10                     11                     12
                      A                      A                      A
 Frequencies --    279.3607               300.7675               373.8070
 Red. masses --      3.0356                 1.9810                 2.2908
 Frc consts  --      0.1396                 0.1056                 0.1886
 IR Inten    --      0.6806                40.7288                 0.1875

                     13                     14                     15
                      A                      A                      A
 Frequencies --    425.9018               471.7128               495.2972
 Red. masses --      2.2077                 4.2497                 2.6994
 Frc consts  --      0.2359                 0.5571                 0.3902
 IR Inten    --      8.2041                 1.7201                 6.9678

                     16                     17                     18
                      A                      A                      A
 Frequencies --    532.0104               605.9014               634.2324
 Red. masses --      2.7162                 2.9068                 3.3283
 Frc consts  --      0.4530                 0.6287                 0.7888
 IR Inten    --     19.8749                 5.6717                 8.8704

                     19                     20                     21
                      A                      A                      A
 Frequencies --    742.7548               829.5374               863.8944
 Red. masses --      1.6553                 2.6688                 2.0287
 Frc consts  --      0.5381                 1.0820                 0.8921
 IR Inten    --      8.7253                 4.5767                77.1749

                     22                     23                     24
                      A                      A                      A
 Frequencies --    869.7547               916.4199               964.1624
 Red. masses --      1.7693                 1.4816                 1.4925
 Frc consts  --      0.7886                 0.7331                 0.8175
 IR Inten    --     52.4898                10.5355                41.3712

                     25                     26                     27
                      A                      A                      A
 Frequencies --   1010.1508              1050.0444              1063.5963
 Red. masses --      2.0086                 2.8353                 1.5197
 Frc consts  --      1.2076                 1.8419                 1.0129
 IR Inten    --      4.0814                 5.0428                 6.9673

                     28                     29                     30
                      A                      A                      A
 Frequencies --   1067.2083              1069.5645              1085.0935
 Red. masses --      1.4019                 1.4261                 1.5899
 Frc consts  --      0.9408                 0.9612                 1.1030
 IR Inten    --     14.1224                 2.1528                22.5839

                     31                     32                     33
                      A                      A                      A
 Frequencies --   1178.3926              1209.2242              1240.2509
 Red. masses --      1.6293                 1.6200                 2.4707
 Frc consts  --      1.3330                 1.3957                 2.2392
 IR Inten    --      3.9914                 9.1696                21.0661

                     34                     35                     36
                      A                      A                      A
 Frequencies --   1248.2530              1276.7660              1324.7881
 Red. masses --      2.4122                 3.0229                 1.2144
 Frc consts  --      2.2145                 2.9033                 1.2558
 IR Inten    --     25.7907                37.3133                 6.1126

                     37                     38                     39
                      A                      A                      A
 Frequencies --   1406.6077              1424.0146              1435.6511
 Red. masses --      1.2018                 1.2778                 1.5047
 Frc consts  --      1.4010                 1.5267                 1.8273
 IR Inten    --     14.8625                18.1486                46.2286

                     40                     41                     42
                      A                      A                      A
 Frequencies --   1451.2981              1502.6816              1508.4192
 Red. masses --      1.4272                 1.1078                 1.0893
 Frc consts  --      1.7711                 1.4738                 1.4602
 IR Inten    --      7.0691                 7.0311                15.1011

                     43                     44                     45
                      A                      A                      A
 Frequencies --   1513.1529              1518.0207              1519.3941
 Red. masses --      1.0599                 1.0584                 1.1026
 Frc consts  --      1.4298                 1.4370                 1.4998
 IR Inten    --      5.6248                 6.9749                21.7426

                     46                     47                     48
                      A                      A                      A
 Frequencies --   1532.6011              1649.0805              1690.0024
 Red. masses --      1.0903                 9.3630                 1.1054
 Frc consts  --      1.5089                15.0020                 1.8601
 IR Inten    --      0.2197                68.1885                27.4202

                     49                     50                     51
                      A                      A                      A
 Frequencies --   1716.9486              1727.4549              2966.1853
 Red. masses --      5.5671                 6.1878                 1.0701
 Frc consts  --      9.6693                10.8794                 5.5472
 IR Inten    --     30.4439                42.3440                70.8948

                     52                     53                     54
                      A                      A                      A
 Frequencies --   3034.3305              3040.5977              3053.5322
 Red. masses --      1.0567                 1.0821                 1.0396
 Frc consts  --      5.7322                 5.8942                 5.7111
 IR Inten    --      6.6231                74.5580                 6.8899

                     55                     56                     57
                      A                      A                      A
 Frequencies --   3073.5098              3098.5155              3106.9662
 Red. masses --      1.0574                 1.0879                 1.0872
 Frc consts  --      5.8853                 6.1541                 6.1832
 IR Inten    --     24.5059                12.7483                44.9850

                     58                     59                     60
                      A                      A                      A
 Frequencies --   3109.0277              3164.1416              3169.5312
 Red. masses --      1.0988                 1.1000                 1.0995
 Frc consts  --      6.2576                 6.4888                 6.5077
 IR Inten    --     15.7131                 8.2821                 5.7874

                     61                     62                     63
                      A                      A                      A
 Frequencies --   3181.6516              3461.6818              3550.7152
 Red. masses --      1.1138                 1.0495                 1.0929
 Frc consts  --      6.6429                 7.4096                 8.1181
 IR Inten    --     31.5458                 6.1177                 1.7307

 - Thermochemistry -
 -------------------
 Temperature   298.150 Kelvin.  Pressure   1.00000 Atm.
 Atom     1 has atomic number  6 and mass  12.00000

 Molecular mass:   139.11095 amu.
 Principal axes and moments of inertia in atomic units:
                           1         2         3
     Eigenvalues --   657.978753053.028833508.52977
           X            0.99999  -0.00274  -0.00383
           Y            0.00274   1.00000  -0.00017
           Z            0.00383   0.00016   0.99999
 This molecule is an asymmetric top.
 Rotational symmetry number  1.
 Warning -- assumption of classical behavior for rotation
           may cause significant error
 Rotational temperatures (Kelvin)      0.13164     0.02837     0.02469
 Rotational constants (GHZ):           2.74286     0.59113     0.51439
 Zero-point vibrational energy     520128.8 (Joules/Mol)
                                  124.31377 (Kcal/Mol)
 Warning -- explicit consideration of  17 degrees of freedom as
           vibrations may cause significant error
 Vibrational temperatures:     58.31    84.85   137.28   138.45   167.85
          (Kelvin)            224.93   242.50   336.19   370.96   401.94
                              432.74   537.82   612.78   678.69   712.62
                              765.44   871.76   912.52  1068.66  1193.52
                             1242.95  1251.38  1318.52  1387.21  1453.38
                             1510.78  1530.28  1535.47  1538.86  1561.21
                             1695.44  1739.80  1784.44  1795.96  1836.98
                             1906.07  2023.79  2048.84  2065.58  2088.09
                             2162.02  2170.28  2177.09  2184.09  2186.07
                             2205.07  2372.66  2431.54  2470.31  2485.42
                             4267.68  4365.72  4374.74  4393.35  4422.10
                             4458.07  4470.23  4473.20  4552.49  4560.25
                             4577.69  4980.59  5108.69

 Zero-point correction=                           0.198107 (Hartree/Particle)
 Thermal correction to Energy=                    0.210196
 Thermal correction to Enthalpy=                  0.211140
 Thermal correction to Gibbs Free Energy=         0.159315
 Sum of electronic and zero-point Energies=           -438.607392
 Sum of electronic and thermal Energies=              -438.595303
 Sum of electronic and thermal Enthalpies=            -438.594359
 Sum of electronic and thermal Free Energies=         -438.646184

                     E (Thermal)             CV                S
                      KCal/Mol        Cal/Mol-Kelvin    Cal/Mol-Kelvin
 Total                  131.900             42.414            109.075
 Electronic               0.000              0.000              0.000
 Translational            0.889              2.981             40.702
 Rotational               0.889              2.981             30.334
 Vibrational            130.122             36.453             38.040
 Vibration     1          0.594              1.981              5.233
 Vibration     2          0.596              1.974              4.491
 Vibration     3          0.603              1.952              3.546
 Vibration     4          0.603              1.952              3.529
 Vibration     5          0.608              1.936              3.155
 Vibration     6          0.620              1.896              2.594
 Vibration     7          0.625              1.881              2.452
 Vibration     8          0.654              1.789              1.851
 Vibration     9          0.667              1.750              1.676
 Vibration    10          0.680              1.712              1.538
 Vibration    11          0.693              1.672              1.413
 Vibration    12          0.745              1.526              1.064
 Vibration    13          0.788              1.414              0.872
 Vibration    14          0.829              1.313              0.733
 Vibration    15          0.851              1.260              0.670
 Vibration    16          0.887              1.179              0.583
 Vibration    17          0.965              1.019              0.440

 Optimization completed.
    -- Stationary point found.

 1\1\GINC-NODE372\Freq\RB3LYP\6-31G(d)\C7H13N3\VSC10255\08-Dec-2020\0\\
 #N Geom=AllCheck Guess=TCheck SCRF=Check GenChk RB3LYP/6-31G(d) Freq\\
 CID_134533926_JID_530_neutraal\\0,1\C,1.3042780326,-0.4669963102,0.182
 0613552\C,-0.1462387069,-0.839966898,0.1025909917\C,-1.0810342385,-0.3
 702055279,0.9558180728\N,-0.763851128,0.5040412668,1.9879684995\C,-1.6
 727986415,0.9214901827,2.7970046823\C,-3.1440125575,0.5703979786,2.777
 196949\N,-1.303944072,1.7481530853,3.8790178001\C,-0.441016738,2.66151
 24919,3.677204681\C,-0.5549826846,-1.7726524421,-1.0091956616\N,-0.259

 Normal termination of Gaussian 16 at Tue Dec  8 12:28:01 2020.

 ----------------------------------------------------------------------
 # B3LYP/6-311++G(d,p) empiricaldispersion=gd3bj scf=xqc pop=npa geom=c
 heck
 ----------------------------------------------------------------------

 --------------------------------------
 CID_134533926_JID_530_Energie_neutraal
 --------------------------------------
 Structure from the checkpoint file:  "JID_530.chk"
 Charge =  0 Multiplicity = 1

 SCF Done:  E(RB3LYP) =  -438.936879634     A.U. after   15 cycles
 Normal termination of Gaussian 16 at Tue Dec  8 12:32:38 2020.

 ----------------------------------------------------------------------
 # B3LYP/6-311++G(d,p) empiricaldispersion=gd3bj scf=xqc pop=npa geom=c
 heck
 ----------------------------------------------------------------------

 ------------------------------------
 CID_134533926_JID_530_Energie_kation
 ------------------------------------
 Structure from the checkpoint file:  "JID_530.chk"
 Charge =  1 Multiplicity = 2

 SCF Done:  E(UB3LYP) =  -438.645493755     A.U. after   25 cycles
 Normal termination of Gaussian 16 at Tue Dec  8 12:40:23 2020.
 Gaussian 16:  ES64L-G16RevA.03 25-Dec-2016

 -----------------------------------
 CID_134533926_JID_530_Energie_anion
 -----------------------------------
 Structure from the checkpoint file:  "JID_530.chk"
 Charge = -1 Multiplicity = 2

                         Standard orientation:
 ---------------------------------------------------------------------
 Center     Atomic      Atomic             Coordinates (Angstroms)
 Number     Number       Type             X           Y           Z
 ---------------------------------------------------------------------
      1          6           0        1.676123   -1.701893   -0.399571
      2          6           0        1.569412   -0.208658   -0.308556
      3          6           0        0.393817    0.445981   -0.199290
      4          7           0       -0.822611   -0.224405   -0.165620
      5          6           0       -1.928629    0.426886   -0.078838
      6          6           0       -2.100741    1.927616    0.000638
      7          7           0       -3.148699   -0.279970   -0.123123
      8          6           0       -3.234920   -1.380375    0.510337
      9          6           0        2.858281    0.573443   -0.321919
     10          7           0        3.702416    0.196695    0.824400
     11          1           0        0.694496   -2.170073   -0.315934
     12          1           0        2.341670   -2.078594    0.384748
     13          1           0        2.127139   -1.993817   -1.358668
     14          1           0        0.408522    1.536919   -0.133043
     15          1           0       -3.160260    2.176898    0.075918
     16          1           0       -1.575770    2.335648    0.871792
     17          1           0       -1.691075    2.420426   -0.889304
     18          1           0       -2.420697   -1.777302    1.127448
     19          1           0       -4.152758   -1.964444    0.433166
     20          1           0        3.423733    0.318796   -1.229763
     21          1           0        2.631966    1.652493   -0.378974
     22          1           0        4.597526    0.679179    0.763468
     23          1           0        3.257716    0.519622    1.682742
 ---------------------------------------------------------------------

 SCF Done:  E(UB3LYP) =  -438.943255866     A.U. after   25 cycles

 The electronic state is 2-A.
 Alpha  occ. eigenvalues --  -14.17420 -14.14805 -14.13353 -10.06859 -10.06743
 Alpha  occ. eigenvalues --  -10.04049 -10.03768 -10.03661 -10.01995 -10.01962
 Alpha  occ. eigenvalues --   -0.79932  -0.76292  -0.73121  -0.64604  -0.59717
 Alpha  occ. eigenvalues --   -0.54745  -0.52865  -0.48447  -0.40506  -0.37106
 Alpha  occ. eigenvalues --   -0.36655  -0.34566  -0.33498  -0.31730  -0.30182
 Alpha  occ. eigenvalues --   -0.29796  -0.27877  -0.26847  -0.25539  -0.24697
 Alpha  occ. eigenvalues --   -0.22795  -0.21438  -0.20643  -0.17198  -0.12800
 Alpha  occ. eigenvalues --   -0.12230  -0.10097  -0.07607   0.04519
 Alpha virt. eigenvalues --    0.07399   0.09238   0.10059   0.10245   0.11035
 Alpha virt. eigenvalues --    0.11396   0.12717   0.13054   0.13528   0.13890
 Alpha virt. eigenvalues --    0.14256   0.15177   0.16560   0.16836   0.17483

  Beta  occ. eigenvalues --  -14.17367 -14.14744 -14.13229 -10.06752 -10.06549
  Beta  occ. eigenvalues --  -10.04057 -10.03676 -10.03325 -10.02000 -10.01745
  Beta  occ. eigenvalues --   -0.79462  -0.76163  -0.72751  -0.64290  -0.59452
  Beta  occ. eigenvalues --   -0.54690  -0.52662  -0.47741  -0.40112  -0.36845
  Beta  occ. eigenvalues --   -0.36512  -0.34264  -0.33386  -0.31452  -0.29738
  Beta  occ. eigenvalues --   -0.29585  -0.27752  -0.26686  -0.25349  -0.24597
  Beta  occ. eigenvalues --   -0.22702  -0.21316  -0.19760  -0.15904  -0.12710
  Beta  occ. eigenvalues --   -0.11840  -0.09871  -0.06409
  Beta virt. eigenvalues --    0.07578   0.09284   0.09886   0.10180   0.10635
  Beta virt. eigenvalues --    0.10983   0.11466   0.12845   0.13379   0.13459
  Beta virt. eigenvalues --    0.13947   0.14571   0.15220   0.16465   0.17237

 Mulliken charges and spin densities:
               1          2
     1  C   -0.564308  -0.048147
     2  C    1.406000   0.198288
     3  C   -1.069871  -0.103119
     4  N   -0.077616   0.072601
     5  C   -0.131764   0.230563
     6  C   -0.485000  -0.137396
     7  N   -0.030771  -0.005767
     8  C   -0.252370   0.403401
     9  C   -0.368804  -0.430787
    10  N   -0.317978  -0.015382
    11  H    0.118984   0.049918
    12  H    0.167534  -0.019813
    13  H    0.041428   0.054814
    14  H    0.094609  -0.045219
    15  H    0.140470   0.021220
    16  H    0.135575   0.002471
    17  H    0.053904   0.095486
    18  H    0.069438  -0.023934
    19  H    0.097295  -0.007071
    20  H   -0.060947   0.182021
    21  H   -0.009865   0.160616
    22  H   -0.101342   0.312679
    23  H    0.145398   0.052559
 Sum of Mulliken charges =  -1.00000   1.00000

 Dipole moment (field-independent basis, Debye):
    X=              0.6735    Y=              1.8652    Z=              0.8842  Tot=              2.1713
 Quadrupole moment (field-independent basis, Debye-Ang):
   XX=           -121.4794   YY=            -76.9522   ZZ=            -72.9855
   XY=             -2.0530   XZ=             -2.9118   YZ=              0.6358

 Summary of Natural Population Analysis:

                                       Natural Population
                Natural  -----------------------------------------------
    Atom  No    Charge         Core      Valence    Rydberg      Total
 -----------------------------------------------------------------------
      C    1   -0.30486      0.99963     2.29977    0.00546     3.30486
      C    2    0.01628      0.99952     1.97300    0.01120     2.98372
      C    3   -0.01996      0.99942     2.00938    0.01116     3.01996
      N    4   -0.25974      0.99961     2.74841    0.01172     3.75974
      C    5    0.26636      0.99959     1.71722    0.01683     2.73364
      C    6   -0.32268      0.99963     2.31825    0.00479     3.32268
      N    7   -0.25044      0.99966     2.73693    0.01385     3.75044
      C    8    0.07511      0.99967     1.91281    0.01241     2.92489
      C    9   -0.10019      0.99959     2.08740    0.01319     3.10019
      N   10   -0.42334      0.99977     2.91180    0.01177     3.92334
      H   11    0.11346      0.00000     0.38525    0.00129     0.38654
      H   12    0.10312      0.00000     0.39538    0.00150     0.39688
      H   13    0.09365      0.00000     0.40483    0.00152     0.40635
      H   14    0.07145      0.00000     0.42579    0.00276     0.42855
      H   15    0.10597      0.00000     0.39270    0.00133     0.39403
      H   16    0.10007      0.00000     0.39898    0.00096     0.39993
      H   17    0.10340      0.00000     0.39477    0.00183     0.39660
      H   18    0.06504      0.00000     0.43303    0.00192     0.43496
      H   19    0.06186      0.00000     0.43641    0.00173     0.43814
      H   20    0.08780      0.00000     0.41051    0.00169     0.41220
      H   21    0.07817      0.00000     0.42021    0.00163     0.42183
      H   22    0.16970      0.00000     0.32709    0.00321     0.33030
      H   23    0.16977      0.00000     0.32846    0.00177     0.33023
 =======================================================================
   * Total *    0.00000      9.99610    27.86838    0.13553    38.00000

 Normal termination of Gaussian 16 at Tue Dec  8 12:50:17 2020.
