 Gaussian 16, Revision A.03,

 -----------------------------------------------------------
 # opt freq B3LYP/6-31G(d) empiricaldispersion=gd3bj scf=xqc
 -----------------------------------------------------------

 ------------------------------
 CID_80373136_JID_6947_neutraal
 ------------------------------
 Symbolic Z-matrix:
 Charge =  0 Multiplicity = 1

 SCF Done:  E(RB3LYP) =  -720.670826109     A.U. after   15 cycles
 SCF Done:  E(RB3LYP) =  -720.676066234     A.U. after   13 cycles
 SCF Done:  E(RB3LYP) =  -720.676601299     A.U. after   13 cycles
 SCF Done:  E(RB3LYP) =  -720.678360628     A.U. after   12 cycles
 SCF Done:  E(RB3LYP) =  -720.679214766     A.U. after   12 cycles
 SCF Done:  E(RB3LYP) =  -720.679619200     A.U. after   12 cycles
 SCF Done:  E(RB3LYP) =  -720.679653016     A.U. after   13 cycles
 SCF Done:  E(RB3LYP) =  -720.680076587     A.U. after   11 cycles
 SCF Done:  E(RB3LYP) =  -720.680465732     A.U. after   15 cycles
 SCF Done:  E(RB3LYP) =  -720.680935439     A.U. after   12 cycles
 SCF Done:  E(RB3LYP) =  -720.682604960     A.U. after   12 cycles
 SCF Done:  E(RB3LYP) =  -720.682685531     A.U. after   12 cycles
 SCF Done:  E(RB3LYP) =  -720.682709307     A.U. after   11 cycles
 SCF Done:  E(RB3LYP) =  -720.682715511     A.U. after    8 cycles
 SCF Done:  E(RB3LYP) =  -720.682716462     A.U. after    8 cycles
 SCF Done:  E(RB3LYP) =  -720.682716549     A.U. after    7 cycles
 Optimization completed.
    -- Stationary point found.
 Normal termination of Gaussian 16 at Thu Dec 10 23:52:11 2020.

 --------------------------------------------------------------------
 #N Geom=AllCheck Guess=TCheck SCRF=Check GenChk RB3LYP/6-31G(d) Freq
 --------------------------------------------------------------------

 Structure from the checkpoint file:  "JID_6947.chk"
 ------------------------------
 CID_80373136_JID_6947_neutraal
 ------------------------------
 Charge =  0 Multiplicity = 1

 SCF Done:  E(RB3LYP) =  -720.682716549     A.U. after    1 cycles

  Exact polarizability: 216.129  -2.571 135.226   2.461   2.798  76.251
 Approx polarizability: 288.401  -1.320 240.868   2.067  -1.142 123.945

                      1                      2                      3
                      A                      A                      A
 Frequencies --     23.4238                31.2138                33.5952
 Red. masses --      1.0216                 4.4567                 4.8355
 Frc consts  --      0.0003                 0.0026                 0.0032
 IR Inten    --      0.3504                 0.2039                 0.1052

                      4                      5                      6
                      A                      A                      A
 Frequencies --     63.5175                91.0804               132.4199
 Red. masses --      5.9778                 4.5631                 1.7926
 Frc consts  --      0.0142                 0.0223                 0.0185
 IR Inten    --      5.2810                 0.4157                 0.4820

                      7                      8                      9
                      A                      A                      A
 Frequencies --    170.4225               208.6705               211.6510
 Red. masses --      1.8642                 3.4577                 5.4515
 Frc consts  --      0.0319                 0.0887                 0.1439
 IR Inten    --      1.7463                 1.4777                 3.4109

                     10                     11                     12
                      A                      A                      A
 Frequencies --    220.2861               248.4219               318.7405
 Red. masses --      4.7789                 4.6401                 4.0501
 Frc consts  --      0.1366                 0.1687                 0.2424
 IR Inten    --      9.6000                 1.2848                 5.2671

                     13                     14                     15
                      A                      A                      A
 Frequencies --    335.0368               379.7632               444.5593
 Red. masses --      4.9273                 2.9957                 3.9661
 Frc consts  --      0.3259                 0.2546                 0.4618
 IR Inten    --      9.1976                 5.9060                 0.8517

                     16                     17                     18
                      A                      A                      A
 Frequencies --    451.8951               487.2861               528.6824
 Red. masses --      3.2634                 6.9293                 4.9400
 Frc consts  --      0.3926                 0.9694                 0.8135
 IR Inten    --      3.7642                 1.1041                 0.8455

                     19                     20                     21
                      A                      A                      A
 Frequencies --    583.0552               616.6603               632.6365
 Red. masses --      4.4535                 5.9906                 4.8750
 Frc consts  --      0.8920                 1.3422                 1.1496
 IR Inten    --      3.5074                 4.3843                22.8472

                     22                     23                     24
                      A                      A                      A
 Frequencies --    676.9486               691.5926               715.4346
 Red. masses --      3.0311                 4.6704                 2.6156
 Frc consts  --      0.8184                 1.3161                 0.7888
 IR Inten    --      0.7459                 9.4961                15.8207

                     25                     26                     27
                      A                      A                      A
 Frequencies --    731.3845               755.1410               773.9195
 Red. masses --      1.6350                 3.7091                 5.9528
 Frc consts  --      0.5153                 1.2462                 2.1007
 IR Inten    --     78.9698                13.6326                 8.6486

                     28                     29                     30
                      A                      A                      A
 Frequencies --    805.2199               886.2909               890.3907
 Red. masses --      1.6640                 1.3291                 1.3540
 Frc consts  --      0.6357                 0.6151                 0.6325
 IR Inten    --     20.1295                 5.1082                10.8676

                     31                     32                     33
                      A                      A                      A
 Frequencies --    914.1927               932.3609               974.8923
 Red. masses --      1.4498                 3.3614                 1.2818
 Frc consts  --      0.7139                 1.7216                 0.7178
 IR Inten    --      2.5549                 1.1180                 0.1878

                     34                     35                     36
                      A                      A                      A
 Frequencies --    990.8613              1022.9220              1027.4170
 Red. masses --      6.8781                 4.1111                 2.6805
 Frc consts  --      3.9787                 2.5345                 1.6671
 IR Inten    --     25.0666                16.5538                30.1554

                     37                     38                     39
                      A                      A                      A
 Frequencies --   1042.5453              1075.5518              1115.7642
 Red. masses --      2.2227                 1.5164                 2.3125
 Frc consts  --      1.4234                 1.0336                 1.6962
 IR Inten    --     57.0494                 9.3355                 9.1174

                     40                     41                     42
                      A                      A                      A
 Frequencies --   1133.3858              1149.1126              1152.6232
 Red. masses --      1.6086                 3.0986                 1.5758
 Frc consts  --      1.2175                 2.4107                 1.2334
 IR Inten    --      8.8346               113.3763                53.2102

                     43                     44                     45
                      A                      A                      A
 Frequencies --   1162.4312              1209.5470              1220.1970
 Red. masses --      1.3593                 1.1404                 2.0538
 Frc consts  --      1.0821                 0.9830                 1.8016
 IR Inten    --     19.2908                 0.8172                 3.3389

                     46                     47                     48
                      A                      A                      A
 Frequencies --   1227.9433              1267.4305              1307.8730
 Red. masses --      2.2543                 2.7515                 3.6881
 Frc consts  --      2.0027                 2.6042                 3.7169
 IR Inten    --      9.9400                35.7243                12.6122

                     49                     50                     51
                      A                      A                      A
 Frequencies --   1322.5414              1343.6881              1367.5865
 Red. masses --      5.4664                 2.2078                 2.4411
 Frc consts  --      5.6334                 2.3486                 2.6900
 IR Inten    --     34.1225                25.5411                 1.6766

                     52                     53                     54
                      A                      A                      A
 Frequencies --   1395.3221              1437.7462              1443.0168
 Red. masses --      4.7964                 3.4950                 1.2493
 Frc consts  --      5.5019                 4.2566                 1.5327
 IR Inten    --     66.4741               199.1205                 1.0018

                     55                     56                     57
                      A                      A                      A
 Frequencies --   1470.2331              1486.3346              1507.9586
 Red. masses --      2.8535                 2.3274                 1.4016
 Frc consts  --      3.6342                 3.0294                 1.8779
 IR Inten    --     17.9408                33.7934                54.9578

                     58                     59                     60
                      A                      A                      A
 Frequencies --   1518.2121              1522.1635              1526.6244
 Red. masses --      1.0502                 1.0571                 1.2702
 Frc consts  --      1.4262                 1.4431                 1.7442
 IR Inten    --      4.6567                16.0512                10.3396

                     61                     62                     63
                      A                      A                      A
 Frequencies --   1546.1012              1553.7430              1569.9391
 Red. masses --      2.0202                 1.1974                 4.0532
 Frc consts  --      2.8453                 1.7032                 5.8858
 IR Inten    --     71.8388                25.3228                28.7569

                     64                     65                     66
                      A                      A                      A
 Frequencies --   1648.8678              1668.1960              1722.3698
 Red. masses --      5.5570                 5.8129                11.2548
 Frc consts  --      8.9016                 9.5310                19.6716
 IR Inten    --     14.4196                37.0231               227.8769

                     67                     68                     69
                      A                      A                      A
 Frequencies --   3043.8889              3055.6672              3100.8421
 Red. masses --      1.0398                 1.0472                 1.0967
 Frc consts  --      5.6764                 5.7611                 6.2129
 IR Inten    --     31.0431                35.5406                20.4402

                     70                     71                     72
                      A                      A                      A
 Frequencies --   3127.4348              3136.7888              3183.9953
 Red. masses --      1.1026                 1.0938                 1.0874
 Frc consts  --      6.3538                 6.3410                 6.4952
 IR Inten    --     16.7450                24.2467                 9.0104

                     73                     74                     75
                      A                      A                      A
 Frequencies --   3201.0952              3203.5698              3212.5388
 Red. masses --      1.0905                 1.0931                 1.1005
 Frc consts  --      6.5840                 6.6094                 6.6918
 IR Inten    --     25.9279                10.5128                 7.6923

                     76                     77                     78
                      A                      A                      A
 Frequencies --   3255.2469              3284.4045              3647.4139
 Red. masses --      1.0930                 1.0975                 1.0819
 Frc consts  --      6.8238                 6.9753                 8.4806
 IR Inten    --      2.0620                 7.9190               101.1191

 - Thermochemistry -
 -------------------
 Temperature   298.150 Kelvin.  Pressure   1.00000 Atm.
 Atom     1 has atomic number  6 and mass  12.00000

 Molecular mass:   216.10111 amu.
 Principal axes and moments of inertia in atomic units:
                           1         2         3
     Eigenvalues --  1133.710537077.556507806.30620
           X            0.99998   0.00402   0.00558
           Y           -0.00410   0.99988   0.01519
           Z           -0.00552  -0.01521   0.99987
 This molecule is an asymmetric top.
 Rotational symmetry number  1.
 Warning -- assumption of classical behavior for rotation
           may cause significant error
 Rotational temperatures (Kelvin)      0.07640     0.01224     0.01110
 Rotational constants (GHZ):           1.59189     0.25499     0.23119
 Zero-point vibrational energy     589579.1 (Joules/Mol)
                                  140.91278 (Kcal/Mol)
 Warning -- explicit consideration of  20 degrees of freedom as
           vibrations may cause significant error
 Vibrational temperatures:     33.70    44.91    48.34    91.39   131.04
          (Kelvin)            190.52   245.20   300.23   304.52   316.94
                              357.42   458.60   482.04   546.39   639.62
                              650.18   701.10   760.66   838.89   887.24
                              910.22   973.98   995.05  1029.35  1052.30
                             1086.48  1113.50  1158.53  1275.17  1281.07
                             1315.32  1341.46  1402.65  1425.63  1471.76
                             1478.22  1499.99  1547.48  1605.34  1630.69
                             1653.32  1658.37  1672.48  1740.27  1755.59
                             1766.74  1823.55  1881.74  1902.84  1933.27
                             1967.65  2007.56  2068.60  2076.18  2115.34
                             2138.50  2169.62  2184.37  2190.05  2196.47
                             2224.49  2235.49  2258.79  2372.35  2400.16
                             2478.11  4379.48  4396.42  4461.42  4499.68
                             4513.14  4581.06  4605.66  4609.22  4622.13
                             4683.57  4725.53  5247.82

 Zero-point correction=                           0.224559 (Hartree/Particle)
 Thermal correction to Energy=                    0.238903
 Thermal correction to Enthalpy=                  0.239847
 Thermal correction to Gibbs Free Energy=         0.180600
 Sum of electronic and zero-point Energies=           -720.458158
 Sum of electronic and thermal Energies=              -720.443814
 Sum of electronic and thermal Enthalpies=            -720.442869
 Sum of electronic and thermal Free Energies=         -720.502116

                     E (Thermal)             CV                S
                      KCal/Mol        Cal/Mol-Kelvin    Cal/Mol-Kelvin
 Total                  149.914             52.836            124.695
 Electronic               0.000              0.000              0.000
 Translational            0.889              2.981             42.015
 Rotational               0.889              2.981             32.504
 Vibrational            148.136             46.874             50.176
 Vibration     1          0.593              1.985              6.320
 Vibration     2          0.594              1.983              5.751
 Vibration     3          0.594              1.983              5.605
 Vibration     4          0.597              1.972              4.345
 Vibration     5          0.602              1.956              3.637
 Vibration     6          0.613              1.921              2.911
 Vibration     7          0.626              1.879              2.431
 Vibration     8          0.642              1.827              2.055
 Vibration     9          0.643              1.823              2.029
 Vibration    10          0.647              1.810              1.957
 Vibration    11          0.662              1.765              1.742
 Vibration    12          0.705              1.638              1.317
 Vibration    13          0.716              1.606              1.236
 Vibration    14          0.750              1.513              1.040
 Vibration    15          0.804              1.373              0.812
 Vibration    16          0.811              1.357              0.790
 Vibration    17          0.843              1.278              0.691
 Vibration    18          0.884              1.187              0.590
 Vibration    19          0.940              1.068              0.480
 Vibration    20          0.976              0.997              0.422

                           ! Non-Optimized Parameters !
 Normal termination of Gaussian 16 at Thu Dec 10 23:59:50 2020.

 ----------------------------------------------------------------------
 # B3LYP/6-311++G(d,p) empiricaldispersion=gd3bj scf=xqc pop=npa geom=c
 heck
 ----------------------------------------------------------------------

 --------------------------------------
 CID_80373136_JID_6947_Energie_neutraal
 --------------------------------------
 Structure from the checkpoint file:  "JID_6947.chk"
 Charge =  0 Multiplicity = 1

 SCF Done:  E(RB3LYP) =  -720.876380174     A.U. after   16 cycles
 Normal termination of Gaussian 16 at Fri Dec 11 00:02:57 2020.

 ----------------------------------------------------------------------
 # B3LYP/6-311++G(d,p) empiricaldispersion=gd3bj scf=xqc pop=npa geom=c
 heck
 ----------------------------------------------------------------------

 ------------------------------------
 CID_80373136_JID_6947_Energie_kation
 ------------------------------------
 Structure from the checkpoint file:  "JID_6947.chk"
 Charge =  1 Multiplicity = 2

 SCF Done:  E(UB3LYP) =  -720.575450366     A.U. after   25 cycles
 Normal termination of Gaussian 16 at Fri Dec 11 00:09:27 2020.
 Gaussian 16:  ES64L-G16RevA.03 25-Dec-2016

 ----------------------------------------------------------------------
 # B3LYP/6-311++G(d,p) empiricaldispersion=gd3bj scf=xqc pop=npa geom=c
 heck
 ----------------------------------------------------------------------

 -----------------------------------
 CID_80373136_JID_6947_Energie_anion
 -----------------------------------
 Structure from the checkpoint file:  "JID_6947.chk"
 Charge = -1 Multiplicity = 2

                         Standard orientation:
 ---------------------------------------------------------------------
 Center     Atomic      Atomic             Coordinates (Angstroms)
 Number     Number       Type             X           Y           Z
 ---------------------------------------------------------------------
      1          6           0       -4.614080   -1.389968   -0.845920
      2          6           0       -3.582271   -0.436521   -0.293225
      3          6           0       -2.234180   -0.807442   -0.239753
      4          6           0       -1.260550    0.073650    0.237767
      5          6           0       -1.632019    1.350093    0.674828
      6          6           0       -2.971247    1.723523    0.621986
      7          6           0       -3.941328    0.840827    0.146028
      8          7           0        0.100303   -0.370463    0.327753
      9          6           0        0.317825   -1.753113    0.773187
     10          6           0        1.099836    0.448888   -0.122187
     11          8           0        0.906495    1.574322   -0.587445
     12          6           0        2.528292    0.007477   -0.063091
     13          7           0        3.162721   -1.075821    0.383929
     14          6           0        4.469093   -0.796514    0.130232
     15          7           0        4.690162    0.382371   -0.446560
     16          7           0        3.443678    0.873098   -0.557727
     17          1           0       -4.671932   -1.319786   -1.939977
     18          1           0       -4.373018   -2.429585   -0.599638
     19          1           0       -5.611205   -1.170038   -0.451589
     20          1           0       -1.944706   -1.795356   -0.584213
     21          1           0       -0.881096    2.034987    1.044645
     22          1           0       -3.262013    2.711987    0.966000
     23          1           0       -4.984500    1.144653    0.116696
     24          1           0        0.196168   -2.463769   -0.052908
     25          1           0        1.323184   -1.864351    1.169969
     26          1           0       -0.418883   -1.980395    1.546133
     27          1           0        5.276646   -1.473043    0.372021
     28          1           0        3.245119    1.780428   -0.958461
 ---------------------------------------------------------------------

 SCF Done:  E(UB3LYP) =  -720.883540996     A.U. after   32 cycles

 The electronic state is 2-A.
 Alpha  occ. eigenvalues --  -18.92029 -14.23010 -14.20655 -14.19120 -14.15559
 Alpha  occ. eigenvalues --  -10.10307 -10.08066 -10.07884 -10.07824 -10.07089
 Alpha  occ. eigenvalues --  -10.06916 -10.06539 -10.05128 -10.04495 -10.04413
 Alpha  occ. eigenvalues --  -10.04167  -0.93206  -0.88148  -0.80160  -0.74956
 Alpha  occ. eigenvalues --   -0.73092  -0.68267  -0.65755  -0.62256  -0.58451
 Alpha  occ. eigenvalues --   -0.56770  -0.52303  -0.48343  -0.48098  -0.47715
 Alpha  occ. eigenvalues --   -0.43417  -0.39241  -0.38140  -0.35894  -0.34366
 Alpha  occ. eigenvalues --   -0.34053  -0.32760  -0.32162  -0.31932  -0.31011
 Alpha  occ. eigenvalues --   -0.30481  -0.29223  -0.28286  -0.27242  -0.25709
 Alpha  occ. eigenvalues --   -0.24967  -0.23642  -0.23391  -0.22642  -0.18906
 Alpha  occ. eigenvalues --   -0.16433  -0.15371  -0.14257  -0.13123  -0.12560
 Alpha  occ. eigenvalues --   -0.10855  -0.09419   0.05038
 Alpha virt. eigenvalues --    0.07180   0.08837   0.09365   0.09812   0.10100
 Alpha virt. eigenvalues --    0.10744   0.11192   0.11581   0.12058   0.12396
 Alpha virt. eigenvalues --    0.13052   0.13764   0.14362   0.15053   0.15738

  Beta  occ. eigenvalues --  -18.91631 -14.22691 -14.20662 -14.18888 -14.15349
  Beta  occ. eigenvalues --  -10.09935 -10.07934 -10.07912 -10.07756 -10.07087
  Beta  occ. eigenvalues --  -10.06906 -10.06566 -10.05119 -10.04429 -10.04282
  Beta  occ. eigenvalues --  -10.04142  -0.92787  -0.87500  -0.79861  -0.74499
  Beta  occ. eigenvalues --   -0.72958  -0.67808  -0.65687  -0.62024  -0.58343
  Beta  occ. eigenvalues --   -0.56580  -0.51630  -0.48249  -0.47812  -0.47663
  Beta  occ. eigenvalues --   -0.43144  -0.39073  -0.37991  -0.35756  -0.34173
  Beta  occ. eigenvalues --   -0.33643  -0.32200  -0.32132  -0.31511  -0.30619
  Beta  occ. eigenvalues --   -0.30379  -0.29187  -0.28230  -0.27171  -0.25299
  Beta  occ. eigenvalues --   -0.24159  -0.23439  -0.22649  -0.22130  -0.18544
  Beta  occ. eigenvalues --   -0.14988  -0.14475  -0.13977  -0.12776  -0.11218
  Beta  occ. eigenvalues --   -0.10403  -0.08607
  Beta virt. eigenvalues --    0.07115   0.08774   0.09308   0.09799   0.10068
  Beta virt. eigenvalues --    0.10332   0.11114   0.11393   0.12031   0.12247
  Beta virt. eigenvalues --    0.13022   0.13222   0.13752   0.14418   0.15347

 Mulliken charges and spin densities:
               1          2
     1  C   -0.461556  -0.024711
     2  C    0.720777  -0.006942
     3  C    0.173204   0.096372
     4  C   -0.923497  -0.004165
     5  C    0.254450   0.024928
     6  C   -0.199798   0.019225
     7  C   -0.824106   0.097774
     8  N    0.249809  -0.014157
     9  C   -0.393419  -0.000164
    10  C   -0.094248   0.224987
    11  O   -0.425734   0.147818
    12  C   -0.166760   0.101055
    13  N   -0.258078   0.102643
    14  C   -0.002436  -0.047794
    15  N   -0.219622   0.124001
    16  N   -0.143901   0.108550
    17  H    0.150818  -0.001546
    18  H    0.132381  -0.003154
    19  H    0.115108   0.011358
    20  H    0.063056   0.032084
    21  H    0.172542   0.004768
    22  H    0.136272  -0.000716
    23  H    0.088257  -0.009482
    24  H    0.120060   0.019277
    25  H    0.178643   0.003540
    26  H    0.129242  -0.002746
    27  H    0.118671   0.005210
    28  H    0.309864  -0.008012
 Sum of Mulliken charges =  -1.00000   1.00000

 Dipole moment (field-independent basis, Debye):
    X=             -5.2073    Y=             -2.1935    Z=              0.9617  Tot=              5.7317
 Quadrupole moment (field-independent basis, Debye-Ang):
   XX=           -151.4053   YY=           -104.9532   ZZ=           -103.6228
   XY=              0.7195   XZ=              3.3615   YZ=              2.8043

 Summary of Natural Population Analysis:

                                       Natural Population
                Natural  -----------------------------------------------
    Atom  No    Charge         Core      Valence    Rydberg      Total
 -----------------------------------------------------------------------
      C    1   -0.28890      0.99964     2.28462    0.00463     3.28890
      C    2   -0.02756      0.99952     2.02005    0.00799     3.02756
      C    3   -0.10631      0.99948     2.09940    0.00743     3.10631
      C    4    0.11754      0.99947     1.87291    0.01008     2.88246
      C    5   -0.09467      0.99952     2.08650    0.00865     3.09467
      C    6   -0.10163      0.99958     2.09271    0.00934     3.10163
      C    7   -0.09669      0.99952     2.08805    0.00912     3.09669
      N    8   -0.25085      0.99962     2.74020    0.01103     3.75085
      C    9   -0.17910      0.99965     2.17329    0.00617     3.17910
      C   10    0.37176      0.99961     1.60883    0.01981     2.62824
      O   11   -0.30081      0.99989     3.29471    0.00621     4.30081
      C   12    0.16831      0.99961     1.81518    0.01690     2.83169
      N   13   -0.25602      0.99969     2.74658    0.00974     3.75602
      C   14    0.04998      0.99973     1.92896    0.02133     2.95002
      N   15   -0.14026      0.99974     2.62691    0.01361     3.64026
      N   16   -0.12878      0.99965     2.61618    0.01295     3.62878
      H   17    0.09888      0.00000     0.40009    0.00104     0.40112
      H   18    0.09763      0.00000     0.40141    0.00096     0.40237
      H   19    0.09661      0.00000     0.40247    0.00091     0.40339
      H   20    0.09702      0.00000     0.40166    0.00131     0.40298
      H   21    0.11183      0.00000     0.38713    0.00103     0.38817
      H   22    0.09230      0.00000     0.40663    0.00107     0.40770
      H   23    0.08901      0.00000     0.40964    0.00135     0.41099
      H   24    0.08324      0.00000     0.41455    0.00221     0.41676
      H   25    0.12158      0.00000     0.37718    0.00124     0.37842
      H   26    0.08956      0.00000     0.40936    0.00108     0.41044
      H   27    0.08196      0.00000     0.41702    0.00102     0.41804
      H   28    0.20438      0.00000     0.29399    0.00163     0.29562
 =======================================================================
   * Total *   -0.00000     15.99391    40.81622    0.18987    57.00000

 Normal termination of Gaussian 16 at Fri Dec 11 00:17:44 2020.
