 Gaussian 16, Revision A.03,

 -----------------------------------------------------------
 # opt freq B3LYP/6-31G(d) empiricaldispersion=gd3bj scf=xqc
 -----------------------------------------------------------

 -----------------------------
 CID_9075042_JID_7559_neutraal
 -----------------------------
 Symbolic Z-matrix:
 Charge =  0 Multiplicity = 1

 SCF Done:  E(RB3LYP) =  -768.623242916     A.U. after   15 cycles
 SCF Done:  E(RB3LYP) =  -768.627878112     A.U. after   13 cycles
 SCF Done:  E(RB3LYP) =  -768.625077236     A.U. after   13 cycles
 SCF Done:  E(RB3LYP) =  -768.629448913     A.U. after   12 cycles
 SCF Done:  E(RB3LYP) =  -768.630277425     A.U. after   12 cycles
 SCF Done:  E(RB3LYP) =  -768.630696363     A.U. after   12 cycles
 SCF Done:  E(RB3LYP) =  -768.630824171     A.U. after   11 cycles
 SCF Done:  E(RB3LYP) =  -768.630876604     A.U. after   11 cycles
 SCF Done:  E(RB3LYP) =  -768.630895832     A.U. after    9 cycles
 SCF Done:  E(RB3LYP) =  -768.630900571     A.U. after    9 cycles
 SCF Done:  E(RB3LYP) =  -768.630904962     A.U. after    9 cycles
 SCF Done:  E(RB3LYP) =  -768.630905866     A.U. after    8 cycles
 SCF Done:  E(RB3LYP) =  -768.630906374     A.U. after    8 cycles
 SCF Done:  E(RB3LYP) =  -768.630906675     A.U. after    8 cycles
 SCF Done:  E(RB3LYP) =  -768.630906812     A.U. after    8 cycles
 Optimization completed.
    -- Stationary point found.
 Normal termination of Gaussian 16 at Sun Dec 13 12:36:45 2020.

 --------------------------------------------------------------------
 #N Geom=AllCheck Guess=TCheck SCRF=Check GenChk RB3LYP/6-31G(d) Freq
 --------------------------------------------------------------------

 Structure from the checkpoint file:  "JID_7559.chk"
 -----------------------------
 CID_9075042_JID_7559_neutraal
 -----------------------------
 Charge =  0 Multiplicity = 1

 SCF Done:  E(RB3LYP) =  -768.630906812     A.U. after    1 cycles

  Exact polarizability: 222.477 -15.342 142.287  -1.627  11.173 127.280
 Approx polarizability: 312.186 -22.370 191.028 -13.217  21.189 198.343

                      1                      2                      3
                      A                      A                      A
 Frequencies --     18.3758                35.3663                43.0048
 Red. masses --      4.0509                 3.9578                 3.2890
 Frc consts  --      0.0008                 0.0029                 0.0036
 IR Inten    --      0.2039                 0.1201                 0.0348

                      4                      5                      6
                      A                      A                      A
 Frequencies --     59.1933                76.5770                85.8053
 Red. masses --      3.2615                 3.5363                 3.2706
 Frc consts  --      0.0067                 0.0122                 0.0142
 IR Inten    --      0.3657                 0.1651                 0.4631

                      7                      8                      9
                      A                      A                      A
 Frequencies --    109.6101               118.2285               130.8359
 Red. masses --      2.6413                 2.2981                 1.6223
 Frc consts  --      0.0187                 0.0189                 0.0164
 IR Inten    --      2.9854                 0.0112                 0.5522

                     10                     11                     12
                      A                      A                      A
 Frequencies --    149.1501               156.6291               163.1119
 Red. masses --      2.2022                 1.3367                 1.6605
 Frc consts  --      0.0289                 0.0193                 0.0260
 IR Inten    --      2.8694                 0.5443                 0.4871

                     13                     14                     15
                      A                      A                      A
 Frequencies --    174.0938               205.3625               245.7655
 Red. masses --      1.9677                 4.6068                 1.8730
 Frc consts  --      0.0351                 0.1145                 0.0667
 IR Inten    --      0.8669                 1.3892                 0.2526

                     16                     17                     18
                      A                      A                      A
 Frequencies --    279.4866               309.8090               314.5755
 Red. masses --      1.8351                 2.3691                 3.6927
 Frc consts  --      0.0845                 0.1340                 0.2153
 IR Inten    --      0.6225                 0.4538                 6.1212

                     19                     20                     21
                      A                      A                      A
 Frequencies --    321.4018               334.0304               347.6123
 Red. masses --      2.9049                 4.7342                 2.1965
 Frc consts  --      0.1768                 0.3112                 0.1564
 IR Inten    --      9.4652                 4.0888                 0.4393

                     22                     23                     24
                      A                      A                      A
 Frequencies --    404.6639               426.1936               474.2434
 Red. masses --      1.9753                 3.8481                 2.6372
 Frc consts  --      0.1906                 0.4118                 0.3495
 IR Inten    --      2.2270                18.1100                 5.0236

                     25                     26                     27
                      A                      A                      A
 Frequencies --    513.8972               525.3337               562.7215
 Red. masses --      3.0228                 1.2384                 4.5573
 Frc consts  --      0.4703                 0.2014                 0.8502
 IR Inten    --      3.6802                98.4929                 7.3851

                     28                     29                     30
                      A                      A                      A
 Frequencies --    595.1641               636.7192               687.9065
 Red. masses --      4.3457                 4.0740                 2.3640
 Frc consts  --      0.9069                 0.9731                 0.6591
 IR Inten    --      4.7064                 9.0621                 1.2794

                     31                     32                     33
                      A                      A                      A
 Frequencies --    701.0607               750.3716               755.6948
 Red. masses --      3.8617                 1.3919                 9.9153
 Frc consts  --      1.1183                 0.4618                 3.3362
 IR Inten    --      4.4943                 6.6988                39.5246

                     34                     35                     36
                      A                      A                      A
 Frequencies --    773.2151               786.5312               853.0257
 Red. masses --      3.1600                 2.2529                 1.6271
 Frc consts  --      1.1131                 0.8212                 0.6976
 IR Inten    --      1.1526                 1.5939                 0.9145

                     37                     38                     39
                      A                      A                      A
 Frequencies --    854.2782               881.1363               900.6269
 Red. masses --      1.9151                 2.0797                 4.7095
 Frc consts  --      0.8234                 0.9514                 2.2507
 IR Inten    --      3.0717                 1.8255                18.4228

                     40                     41                     42
                      A                      A                      A
 Frequencies --    919.3573               952.9414               982.8118
 Red. masses --      2.1443                 1.6308                 1.9154
 Frc consts  --      1.0678                 0.8725                 1.0901
 IR Inten    --      0.1612                 0.6783                 0.4196

                     43                     44                     45
                      A                      A                      A
 Frequencies --    993.4184              1008.5137              1023.6767
 Red. masses --      1.4669                 1.8819                 1.7320
 Frc consts  --      0.8530                 1.1277                 1.0694
 IR Inten    --      6.8897                 1.7691                 0.1074

                     46                     47                     48
                      A                      A                      A
 Frequencies --   1058.9560              1080.7376              1085.7784
 Red. masses --      1.7724                 1.7171                 2.2146
 Frc consts  --      1.1711                 1.1816                 1.5382
 IR Inten    --      3.4351                 1.4713                 3.7035

                     49                     50                     51
                      A                      A                      A
 Frequencies --   1104.8803              1123.0039              1138.7996
 Red. masses --      3.7037                 3.5686                 2.0893
 Frc consts  --      2.6639                 2.6516                 1.5964
 IR Inten    --     86.4486               114.2084                14.6326

                     52                     53                     54
                      A                      A                      A
 Frequencies --   1140.8674              1157.1113              1179.4578
 Red. masses --      2.6333                 2.5573                 1.2801
 Frc consts  --      2.0194                 2.0173                 1.0492
 IR Inten    --      8.2413                31.3846                 4.0689

                     55                     56                     57
                      A                      A                      A
 Frequencies --   1189.9052              1215.5394              1225.3404
 Red. masses --      1.2664                 2.2621                 1.5314
 Frc consts  --      1.0564                 1.9693                 1.3547
 IR Inten    --      0.9253                30.6460                45.1314

                     58                     59                     60
                      A                      A                      A
 Frequencies --   1234.9920              1245.7505              1253.1130
 Red. masses --      1.4085                 1.3570                 1.2824
 Frc consts  --      1.2657                 1.2408                 1.1865
 IR Inten    --     12.9377                 2.4208                 1.7450

                     61                     62                     63
                      A                      A                      A
 Frequencies --   1304.5151              1312.5216              1328.6661
 Red. masses --      1.3851                 1.4168                 2.2390
 Frc consts  --      1.3887                 1.4380                 2.3288
 IR Inten    --      2.6744                 1.1820                83.6461

                     64                     65                     66
                      A                      A                      A
 Frequencies --   1340.0351              1363.7634              1387.8307
 Red. masses --      1.1801                 1.8469                 1.4093
 Frc consts  --      1.2485                 2.0238                 1.5993
 IR Inten    --      3.4221                 9.4232                 6.3682

                     67                     68                     69
                      A                      A                      A
 Frequencies --   1392.0768              1405.0277              1416.6763
 Red. masses --      1.9810                 1.8934                 1.3818
 Frc consts  --      2.2619                 2.2023                 1.6340
 IR Inten    --    401.6617               281.8959                 4.6536

                     70                     71                     72
                      A                      A                      A
 Frequencies --   1418.0634              1441.5219              1444.6597
 Red. masses --      1.4967                 1.3605                 1.2795
 Frc consts  --      1.7733                 1.6656                 1.5734
 IR Inten    --     38.6030                 3.3489                 6.7660

                     73                     74                     75
                      A                      A                      A
 Frequencies --   1475.1888              1501.0797              1502.2048
 Red. masses --      1.4639                 1.0871                 1.0741
 Frc consts  --      1.8770                 1.4432                 1.4281
 IR Inten    --     17.5720                 4.5667                 4.4176

                     76                     77                     78
                      A                      A                      A
 Frequencies --   1506.3922              1512.0657              1512.3476
 Red. masses --      1.3892                 1.0573                 1.0772
 Frc consts  --      1.8574                 1.4243                 1.4517
 IR Inten    --    160.2918                 5.6429                 6.8740

                     79                     80                     81
                      A                      A                      A
 Frequencies --   1513.4196              1521.4577              1522.1689
 Red. masses --      1.0488                 1.0715                 1.1072
 Frc consts  --      1.4153                 1.4613                 1.5115
 IR Inten    --      4.5432                 3.1586                 3.7918

                     82                     83                     84
                      A                      A                      A
 Frequencies --   1524.5677              1528.7886              1531.0884
 Red. masses --      1.0941                 1.0718                 1.0647
 Frc consts  --      1.4983                 1.4759                 1.4705
 IR Inten    --      8.1474                 5.1057                11.5600

                     85                     86                     87
                      A                      A                      A
 Frequencies --   1535.8636              1543.6180              1685.9938
 Red. masses --      1.0584                 1.0881                 7.0375
 Frc consts  --      1.4709                 1.5276                11.7864
 IR Inten    --      7.2207                 6.1148                38.9964

                     88                     89                     90
                      A                      A                      A
 Frequencies --   1710.7390              1818.1120              3024.3251
 Red. masses --     11.0550                 8.5862                 1.0658
 Frc consts  --     19.0623                16.7221                 5.7436
 IR Inten    --      4.1674               489.0145                32.4324

                     91                     92                     93
                      A                      A                      A
 Frequencies --   3027.6835              3032.6374              3040.6954
 Red. masses --      1.0624                 1.0435                 1.0493
 Frc consts  --      5.7379                 5.6546                 5.7161
 IR Inten    --     21.2921                41.1580                12.2202

                     94                     95                     96
                      A                      A                      A
 Frequencies --   3044.3572              3048.5333              3049.6072
 Red. masses --      1.0546                 1.0699                 1.0724
 Frc consts  --      5.7589                 5.8583                 5.8762
 IR Inten    --     21.6950                44.3534                18.3662

                     97                     98                     99
                      A                      A                      A
 Frequencies --   3055.5436              3064.0268              3072.5576
 Red. masses --      1.0690                 1.0977                 1.0913
 Frc consts  --      5.8803                 6.0718                 6.0702
 IR Inten    --     21.1172                41.7632                37.5920

                    100                    101                    102
                      A                      A                      A
 Frequencies --   3073.4433              3076.8316              3082.9119
 Red. masses --      1.0306                 1.0981                 1.1025
 Frc consts  --      5.7355                 6.1249                 6.1737
 IR Inten    --     41.2748                24.6083                46.8033

                    103                    104                    105
                      A                      A                      A
 Frequencies --   3094.9602              3115.1388              3115.7712
 Red. masses --      1.0953                 1.1017                 1.0982
 Frc consts  --      6.1816                 6.2987                 6.2814
 IR Inten    --     11.2150                55.7299                36.1033

                    106                    107                    108
                      A                      A                      A
 Frequencies --   3137.9674              3138.7058              3146.4205
 Red. masses --      1.0977                 1.0950                 1.1075
 Frc consts  --      6.3683                 6.3559                 6.4601
 IR Inten    --     17.9592                17.8671                24.2642

                    109                    110                    111
                      A                      A                      A
 Frequencies --   3150.3001              3179.4286              3576.6797
 Red. masses --      1.0891                 1.1067                 1.0758
 Frc consts  --      6.3686                 6.5913                 8.1085
 IR Inten    --     19.3527                18.3365                15.0964

 - Thermochemistry -
 -------------------
 Temperature   298.150 Kelvin.  Pressure   1.00000 Atm.
 Atom     1 has atomic number  6 and mass  12.00000

 Molecular mass:   238.16813 amu.
 Principal axes and moments of inertia in atomic units:
                           1         2         3
     Eigenvalues --  3000.820755955.869817617.64349
           X            0.99991  -0.00793   0.01088
           Y            0.00790   0.99996   0.00310
           Z           -0.01091  -0.00301   0.99994
 This molecule is an asymmetric top.
 Rotational symmetry number  1.
 Warning -- assumption of classical behavior for rotation
           may cause significant error
 Rotational temperatures (Kelvin)      0.02886     0.01454     0.01137
 Rotational constants (GHZ):           0.60142     0.30302     0.23692
 Zero-point vibrational energy     899739.8 (Joules/Mol)
                                  215.04296 (Kcal/Mol)
 Warning -- explicit consideration of  28 degrees of freedom as
           vibrations may cause significant error
 Vibrational temperatures:     26.44    50.88    61.87    85.17   110.18
          (Kelvin)            123.45   157.70   170.10   188.24   214.59
                              225.35   234.68   250.48   295.47   353.60
                              402.12   445.75   452.60   462.43   480.60
                              500.14   582.22   613.20   682.33   739.38
                              755.84   809.63   856.31   916.10   989.74
                             1008.67  1079.62  1087.28  1112.48  1131.64
                             1227.31  1229.12  1267.76  1295.80  1322.75
                             1371.07  1414.05  1429.31  1451.03  1472.84
                             1523.60  1554.94  1562.19  1589.68  1615.75
                             1638.48  1641.45  1664.83  1696.98  1712.01
                             1748.89  1762.99  1776.88  1792.36  1802.95
                             1876.91  1888.43  1911.65  1928.01  1962.15
                             1996.78  2002.89  2021.52  2038.28  2040.28
                             2074.03  2078.54  2122.47  2159.72  2161.34
                             2167.36  2175.53  2175.93  2177.47  2189.04
                             2190.06  2193.51  2199.59  2202.89  2209.77
                             2220.92  2425.77  2461.37  2615.86  4351.33
                             4356.16  4363.29  4374.88  4380.15  4386.16
                             4387.70  4396.25  4408.45  4420.73  4422.00
                             4426.87  4435.62  4452.96  4481.99  4482.90
                             4514.84  4515.90  4527.00  4532.58  4574.49
                             5146.04

 Zero-point correction=                           0.342693 (Hartree/Particle)
 Thermal correction to Energy=                    0.361809
 Thermal correction to Enthalpy=                  0.362753
 Thermal correction to Gibbs Free Energy=         0.293558
 Sum of electronic and zero-point Energies=           -768.288214
 Sum of electronic and thermal Energies=              -768.269098
 Sum of electronic and thermal Enthalpies=            -768.268153
 Sum of electronic and thermal Free Energies=         -768.337349

                     E (Thermal)             CV                S
                      KCal/Mol        Cal/Mol-Kelvin    Cal/Mol-Kelvin
 Total                  227.039             69.368            145.634
 Electronic               0.000              0.000              0.000
 Translational            0.889              2.981             42.305
 Rotational               0.889              2.981             33.276
 Vibrational            225.261             63.407             70.053
 Vibration     1          0.593              1.986              6.802
 Vibration     2          0.594              1.982              5.503
 Vibration     3          0.595              1.980              5.116
 Vibration     4          0.597              1.974              4.484
 Vibration     5          0.599              1.965              3.977
 Vibration     6          0.601              1.959              3.754
 Vibration     7          0.606              1.942              3.276
 Vibration     8          0.608              1.934              3.129
 Vibration     9          0.612              1.922              2.934
 Vibration    10          0.618              1.904              2.683
 Vibration    11          0.620              1.895              2.590
 Vibration    12          0.623              1.888              2.513
 Vibration    13          0.627              1.874              2.391
 Vibration    14          0.640              1.832              2.085
 Vibration    15          0.660              1.770              1.761
 Vibration    16          0.680              1.712              1.537
 Vibration    17          0.699              1.655              1.363
 Vibration    18          0.702              1.646              1.338
 Vibration    19          0.707              1.633              1.303
 Vibration    20          0.716              1.608              1.241
 Vibration    21          0.725              1.580              1.177
 Vibration    22          0.770              1.460              0.946
 Vibration    23          0.788              1.413              0.871
 Vibration    24          0.831              1.307              0.726
 Vibration    25          0.869              1.219              0.624
 Vibration    26          0.880              1.194              0.598
 Vibration    27          0.918              1.112              0.518
 Vibration    28          0.953              1.042              0.458

                           ! Non-Optimized Parameters !
 Normal termination of Gaussian 16 at Sun Dec 13 12:52:09 2020.

 ----------------------------------------------------------------------
 # B3LYP/6-311++G(d,p) empiricaldispersion=gd3bj scf=xqc pop=npa geom=c
 heck
 ----------------------------------------------------------------------

 -------------------------------------
 CID_9075042_JID_7559_Energie_neutraal
 -------------------------------------
 Structure from the checkpoint file:  "JID_7559.chk"
 Charge =  0 Multiplicity = 1

 SCF Done:  E(RB3LYP) =  -768.849002791     A.U. after   16 cycles
 Normal termination of Gaussian 16 at Sun Dec 13 13:01:00 2020.

 ----------------------------------------------------------------------
 # B3LYP/6-311++G(d,p) empiricaldispersion=gd3bj scf=xqc pop=npa geom=c
 heck
 ----------------------------------------------------------------------

 -----------------------------------
 CID_9075042_JID_7559_Energie_kation
 -----------------------------------
 Structure from the checkpoint file:  "JID_7559.chk"
 Charge =  1 Multiplicity = 2

 SCF Done:  E(UB3LYP) =  -768.568262621     A.U. after   23 cycles
 Normal termination of Gaussian 16 at Sun Dec 13 13:19:06 2020.
 Gaussian 16:  ES64L-G16RevA.03 25-Dec-2016

 ----------------------------------------------------------------------
 # B3LYP/6-311++G(d,p) empiricaldispersion=gd3bj scf=xqc pop=npa geom=c
 heck
 ----------------------------------------------------------------------

 ----------------------------------
 CID_9075042_JID_7559_Energie_anion
 ----------------------------------
 Structure from the checkpoint file:  "JID_7559.chk"
 Charge = -1 Multiplicity = 2

                         Standard orientation:
 ---------------------------------------------------------------------
 Center     Atomic      Atomic             Coordinates (Angstroms)
 Number     Number       Type             X           Y           Z
 ---------------------------------------------------------------------
      1          6           0       -0.716155    3.510121   -0.315310
      2          6           0       -0.145629    2.340506   -1.122281
      3          6           0        1.381045    2.197294   -1.024543
      4          6           0        1.939995    2.033347    0.396048
      5          6           0        1.365279    0.831133    1.178752
      6          6           0        1.575223   -0.479619    0.451980
      7          6           0        2.780739   -1.080570    0.297977
      8          6           0        2.713640   -2.275881   -0.626501
      9          6           0        1.328706   -2.140127   -1.290395
     10          6           0        0.570604   -1.228201   -0.341531
     11          7           0       -0.714127   -1.288026   -0.326069
     12          7           0       -1.395207   -0.561523    0.628904
     13          6           0       -2.772164   -0.525261    0.667004
     14          8           0       -3.383131   -0.129518    1.644444
     15          8           0       -3.327905   -0.917065   -0.492872
     16          6           0       -4.759699   -0.862586   -0.501951
     17          6           0        4.079434   -0.682660    0.921802
     18          1           0       -0.568272    3.371993    0.761902
     19          1           0       -1.793483    3.614423   -0.483787
     20          1           0       -0.238916    4.457810   -0.595533
     21          1           0       -0.630531    1.410614   -0.806521
     22          1           0       -0.408649    2.470165   -2.180225
     23          1           0        1.695584    1.338013   -1.631253
     24          1           0        1.853689    3.080907   -1.475841
     25          1           0        3.030350    1.931563    0.332628
     26          1           0        1.749298    2.942138    0.980534
     27          1           0        1.844141    0.793784    2.165413
     28          1           0        0.307824    1.025702    1.357413
     29          1           0        2.798792   -3.211556   -0.054206
     30          1           0        3.541145   -2.277411   -1.346655
     31          1           0        1.428140   -1.648386   -2.266792
     32          1           0        0.806553   -3.086188   -1.445772
     33          1           0       -0.972756   -0.390659    1.533836
     34          1           0       -5.177614   -1.510276    0.273382
     35          1           0       -5.108902    0.159941   -0.335095
     36          1           0       -5.054259   -1.211629   -1.492075
     37          1           0        4.779095   -0.311270    0.159974
     38          1           0        3.963833    0.095625    1.680417
     39          1           0        4.562458   -1.550760    1.389512
 ---------------------------------------------------------------------

 SCF Done:  E(UB3LYP) =  -768.841513730     A.U. after   33 cycles
 SCF Done:  E(UB3LYP) =  -768.841513731     a.u. after    1 cycles

 The electronic state is 2-A.
 Alpha  occ. eigenvalues --  -19.06268 -18.98824 -14.24725 -14.19015 -10.20660
 Alpha  occ. eigenvalues --  -10.13413 -10.07265 -10.05459 -10.05332 -10.05321
 Alpha  occ. eigenvalues --  -10.05196 -10.05095 -10.04845 -10.04822 -10.04811
 Alpha  occ. eigenvalues --  -10.03797 -10.03642  -1.00891  -0.91325  -0.87376
 Alpha  occ. eigenvalues --   -0.74607  -0.70121  -0.68877  -0.64730  -0.62956
 Alpha  occ. eigenvalues --   -0.61558  -0.59069  -0.55228  -0.53336  -0.50610
 Alpha  occ. eigenvalues --   -0.48940  -0.45652  -0.44423  -0.42875  -0.40442
 Alpha  occ. eigenvalues --   -0.39035  -0.37336  -0.36231  -0.35960  -0.34863
 Alpha  occ. eigenvalues --   -0.34111  -0.33356  -0.32095  -0.31920  -0.30537
 Alpha  occ. eigenvalues --   -0.29571  -0.28750  -0.28233  -0.27279  -0.26650
 Alpha  occ. eigenvalues --   -0.25776  -0.25584  -0.24987  -0.24407  -0.23861
 Alpha  occ. eigenvalues --   -0.23463  -0.21945  -0.20755  -0.20577  -0.20432
 Alpha  occ. eigenvalues --   -0.20261  -0.18000  -0.15852  -0.13435  -0.09156
 Alpha  occ. eigenvalues --    0.04948
 Alpha virt. eigenvalues --    0.06741   0.07259   0.07921   0.08688   0.09223
 Alpha virt. eigenvalues --    0.09835   0.10227   0.10437   0.10553   0.11269
 Alpha virt. eigenvalues --    0.11429   0.11713   0.12537   0.13004   0.13201

  Beta  occ. eigenvalues --  -19.06265 -18.98793 -14.24739 -14.18764 -10.20632
  Beta  occ. eigenvalues --  -10.13408 -10.07128 -10.05486 -10.05335 -10.05309
  Beta  occ. eigenvalues --  -10.05199 -10.05093 -10.04828 -10.04828 -10.04804
  Beta  occ. eigenvalues --  -10.03795 -10.03191  -1.00861  -0.91282  -0.87151
  Beta  occ. eigenvalues --   -0.74322  -0.69914  -0.68722  -0.64696  -0.62885
  Beta  occ. eigenvalues --   -0.61364  -0.58971  -0.55122  -0.53164  -0.50545
  Beta  occ. eigenvalues --   -0.48894  -0.45525  -0.44340  -0.42823  -0.40024
  Beta  occ. eigenvalues --   -0.38970  -0.37205  -0.36062  -0.35919  -0.34697
  Beta  occ. eigenvalues --   -0.34050  -0.33319  -0.31929  -0.31810  -0.30466
  Beta  occ. eigenvalues --   -0.29236  -0.28694  -0.28166  -0.27096  -0.26585
  Beta  occ. eigenvalues --   -0.25634  -0.25261  -0.24926  -0.24298  -0.23814
  Beta  occ. eigenvalues --   -0.23178  -0.21825  -0.20688  -0.20525  -0.20329
  Beta  occ. eigenvalues --   -0.20181  -0.17945  -0.15323  -0.12824  -0.08001
  Beta virt. eigenvalues --    0.06663   0.07509   0.08090   0.08777   0.09196
  Beta virt. eigenvalues --    0.09912   0.10037   0.10313   0.10470   0.10747
  Beta virt. eigenvalues --    0.11331   0.11700   0.11870   0.12530   0.13060

 Mulliken charges and spin densities:
               1          2
     1  C   -0.247083  -0.378995
     2  C   -0.185992  -0.008100
     3  C   -0.212936  -0.038950
     4  C    0.141917  -0.597072
     5  C   -0.332701   0.021009
     6  C    0.794588   0.128933
     7  C   -0.180673   0.698167
     8  C   -0.392983  -0.214951
     9  C   -0.468475   0.052241
    10  C   -0.858920   0.019514
    11  N    0.041681   0.117230
    12  N   -0.196274  -0.019348
    13  C    0.103744   0.024905
    14  O   -0.307709   0.009516
    15  O   -0.094665   0.001242
    16  C   -0.188780  -0.064615
    17  C    0.542333  -1.041504
    18  H    0.086044   0.056371
    19  H    0.099736   0.020335
    20  H   -0.002633   0.130844
    21  H    0.256304  -0.066664
    22  H    0.078036   0.065412
    23  H    0.131718  -0.006892
    24  H   -0.122972   0.287075
    25  H   -0.271237   0.421229
    26  H   -0.193010   0.337117
    27  H    0.136323   0.070022
    28  H    0.022852   0.020178
    29  H    0.121236   0.000949
    30  H    0.053784   0.094964
    31  H    0.146166   0.000778
    32  H    0.148362   0.004141
    33  H    0.292443   0.014706
    34  H    0.137019   0.025640
    35  H    0.133436   0.031223
    36  H    0.110353   0.016755
    37  H   -0.356967   0.557363
    38  H   -0.116127   0.238223
    39  H    0.152060  -0.028994
 Sum of Mulliken charges =  -1.00000   1.00000

 Dipole moment (field-independent basis, Debye):
    X=             -5.1255    Y=             -2.8535    Z=             -1.3907  Tot=              6.0289
 Quadrupole moment (field-independent basis, Debye-Ang):
   XX=           -169.2670   YY=           -141.6124   ZZ=           -126.4736
   XY=             -9.5429   XZ=              6.4754   YZ=             -2.7508

 Summary of Natural Population Analysis:

                                       Natural Population
                Natural  -----------------------------------------------
    Atom  No    Charge         Core      Valence    Rydberg      Total
 -----------------------------------------------------------------------
      C    1   -0.28724      0.99967     2.28242    0.00514     3.28724
      C    2   -0.19840      0.99963     2.19084    0.00793     3.19840
      C    3   -0.19001      0.99963     2.18131    0.00907     3.19001
      C    4   -0.18550      0.99962     2.17626    0.00962     3.18550
      C    5   -0.20405      0.99960     2.19397    0.01048     3.20405
      C    6   -0.07352      0.99936     2.06314    0.01103     3.07352
      C    7    0.10639      0.99946     1.88565    0.00851     2.89361
      C    8   -0.20199      0.99961     2.19430    0.00808     3.20199
      C    9   -0.19438      0.99961     2.18810    0.00666     3.19438
      C   10    0.14274      0.99954     1.84234    0.01537     2.85726
      N   11   -0.13961      0.99959     2.62612    0.01391     3.63961
      N   12   -0.23498      0.99966     2.72453    0.01079     3.73498
      C   13    0.45751      0.99972     1.51832    0.02445     2.54249
      O   14   -0.34016      0.99987     3.33514    0.00514     4.34016
      O   15   -0.27035      0.99986     3.26310    0.00739     4.27035
      C   16   -0.10273      0.99961     2.09458    0.00854     3.10273
      C   17   -0.30621      0.99963     2.30063    0.00596     3.30621
      H   18    0.09677      0.00000     0.40243    0.00080     0.40323
      H   19    0.09591      0.00000     0.40338    0.00071     0.40409
      H   20    0.09256      0.00000     0.40659    0.00085     0.40744
      H   21    0.10529      0.00000     0.39250    0.00221     0.39471
      H   22    0.09060      0.00000     0.40844    0.00095     0.40940
      H   23    0.09955      0.00000     0.39893    0.00152     0.40045
      H   24    0.09237      0.00000     0.40664    0.00099     0.40763
      H   25    0.09987      0.00000     0.39858    0.00156     0.40013
      H   26    0.09255      0.00000     0.40619    0.00126     0.40745
      H   27    0.10154      0.00000     0.39748    0.00098     0.39846
      H   28    0.09713      0.00000     0.40129    0.00158     0.40287
      H   29    0.09756      0.00000     0.40137    0.00107     0.40244
      H   30    0.09668      0.00000     0.40219    0.00114     0.40332
      H   31    0.09943      0.00000     0.39936    0.00121     0.40057
      H   32    0.10037      0.00000     0.39858    0.00105     0.39963
      H   33    0.18769      0.00000     0.30996    0.00235     0.31231
      H   34    0.08741      0.00000     0.41099    0.00160     0.41259
      H   35    0.08860      0.00000     0.40986    0.00154     0.41140
      H   36    0.08690      0.00000     0.41198    0.00112     0.41310
      H   37    0.11192      0.00000     0.38497    0.00311     0.38808
      H   38    0.10246      0.00000     0.39671    0.00083     0.39754
      H   39    0.09932      0.00000     0.39984    0.00083     0.40068
 =======================================================================
   * Total *   -0.00000     16.99367    47.80902    0.19731    65.00000

 Normal termination of Gaussian 16 at Sun Dec 13 13:45:50 2020.
