 Gaussian 16, Revision A.03,

 -----------------------------------------------------------
 # opt freq B3LYP/6-31G(d) empiricaldispersion=gd3bj scf=xqc
 -----------------------------------------------------------

 -------------------------------
 CID_106972154_JID_4724_neutraal
 -------------------------------
 Symbolic Z-matrix:
 Charge =  0 Multiplicity = 1

 SCF Done:  E(RB3LYP) =  -968.627301538     A.U. after   14 cycles
 SCF Done:  E(RB3LYP) =  -968.631892314     A.U. after   12 cycles
 SCF Done:  E(RB3LYP) =  -968.633981924     A.U. after   13 cycles
 SCF Done:  E(RB3LYP) =  -968.635658790     A.U. after   14 cycles
 SCF Done:  E(RB3LYP) =  -968.636249290     A.U. after   12 cycles
 SCF Done:  E(RB3LYP) =  -968.636545074     A.U. after   12 cycles
 SCF Done:  E(RB3LYP) =  -968.636604705     A.U. after   10 cycles
 SCF Done:  E(RB3LYP) =  -968.636619093     A.U. after    9 cycles
 SCF Done:  E(RB3LYP) =  -968.636624012     A.U. after    9 cycles
 SCF Done:  E(RB3LYP) =  -968.636626120     A.U. after    8 cycles
 SCF Done:  E(RB3LYP) =  -968.636627547     A.U. after    9 cycles
 SCF Done:  E(RB3LYP) =  -968.636628978     A.U. after    9 cycles
 SCF Done:  E(RB3LYP) =  -968.636629628     A.U. after    8 cycles
 SCF Done:  E(RB3LYP) =  -968.636629691     A.U. after    8 cycles
 Optimization completed.
    -- Stationary point found.
 Normal termination of Gaussian 16 at Thu Dec 10 10:26:50 2020.

 --------------------------------------------------------------------
 #N Geom=AllCheck Guess=TCheck SCRF=Check GenChk RB3LYP/6-31G(d) Freq
 --------------------------------------------------------------------

 Structure from the checkpoint file:  "JID_4724.chk"
 -------------------------------
 CID_106972154_JID_4724_neutraal
 -------------------------------
 Charge =  0 Multiplicity = 1

 SCF Done:  E(RB3LYP) =  -968.636629691     A.U. after    1 cycles

  Exact polarizability: 211.752  -3.978 135.338  -6.613  -2.688  82.097
 Approx polarizability: 279.201  -5.706 219.977 -11.303  -6.304 128.295

                      1                      2                      3
                      A                      A                      A
 Frequencies --     32.5808                50.7453                61.8053
 Red. masses --      3.7526                 3.4842                 3.7185
 Frc consts  --      0.0023                 0.0053                 0.0084
 IR Inten    --      0.9379                 0.2312                 4.1066

                      4                      5                      6
                      A                      A                      A
 Frequencies --    114.0595               126.8057               151.2244
 Red. masses --      3.7856                 1.2650                 2.9727
 Frc consts  --      0.0290                 0.0120                 0.0401
 IR Inten    --      0.5599                 0.2045                 0.5772

                      7                      8                      9
                      A                      A                      A
 Frequencies --    194.3302               208.5781               229.5763
 Red. masses --      7.4667                 2.8216                 2.7115
 Frc consts  --      0.1661                 0.0723                 0.0842
 IR Inten    --      1.5639                 2.7736                 0.3116

                     10                     11                     12
                      A                      A                      A
 Frequencies --    264.8427               287.0447               363.0461
 Red. masses --      2.7171                 3.7670                 5.6310
 Frc consts  --      0.1123                 0.1829                 0.4373
 IR Inten    --      7.2584                 4.8528                 3.2018

                     13                     14                     15
                      A                      A                      A
 Frequencies --    394.5595               442.0221               452.5302
 Red. masses --      1.6997                 8.8404                 2.7052
 Frc consts  --      0.1559                 1.0177                 0.3264
 IR Inten    --     14.7853                 2.0333                 5.8374

                     16                     17                     18
                      A                      A                      A
 Frequencies --    478.1143               506.4720               536.4447
 Red. masses --      2.7194                 4.4767                 3.1989
 Frc consts  --      0.3663                 0.6766                 0.5424
 IR Inten    --      2.3590                 2.2347                 1.8527

                     19                     20                     21
                      A                      A                      A
 Frequencies --    624.5636               655.9585               716.1903
 Red. masses --      2.2284                 6.6748                 6.0956
 Frc consts  --      0.5122                 1.6922                 1.8421
 IR Inten    --      8.4333                 0.4993                 2.3789

                     22                     23                     24
                      A                      A                      A
 Frequencies --    762.2817               773.9533               802.0759
 Red. masses --      6.2405                 2.5441                 5.4025
 Frc consts  --      2.1365                 0.8979                 2.0477
 IR Inten    --     20.7949                 3.2238                11.4532

                     25                     26                     27
                      A                      A                      A
 Frequencies --    819.9040               825.7000               849.8114
 Red. masses --      1.9680                 2.1315                 1.6230
 Frc consts  --      0.7795                 0.8562                 0.6906
 IR Inten    --    179.0279                39.4797                 1.5301

                     28                     29                     30
                      A                      A                      A
 Frequencies --    908.4615               939.1044               988.5026
 Red. masses --      1.8643                 2.3959                 1.4715
 Frc consts  --      0.9065                 1.2449                 0.8472
 IR Inten    --     66.4190                 4.1401                 1.0326

                     31                     32                     33
                      A                      A                      A
 Frequencies --    990.4145               998.8536              1004.2869
 Red. masses --      3.3981                 1.1832                 2.9653
 Frc consts  --      1.9639                 0.6955                 1.7621
 IR Inten    --      8.9981                 4.4348                77.6117

                     34                     35                     36
                      A                      A                      A
 Frequencies --   1007.4907              1033.6372              1044.4387
 Red. masses --      1.6474                 2.0742                 1.6916
 Frc consts  --      0.9852                 1.3057                 1.0872
 IR Inten    --     36.4636                 9.8046                 4.5031

                     37                     38                     39
                      A                      A                      A
 Frequencies --   1078.3167              1143.9491              1156.5715
 Red. masses --      2.2644                 2.1821                 3.8430
 Frc consts  --      1.5513                 1.6824                 3.0288
 IR Inten    --      5.5725               104.6507                61.7272

                     40                     41                     42
                      A                      A                      A
 Frequencies --   1179.2356              1207.7476              1224.4862
 Red. masses --      2.1952                 3.7432                 1.2128
 Frc consts  --      1.7986                 3.2170                 1.0714
 IR Inten    --     29.8546                14.2550                 1.8094

                     43                     44                     45
                      A                      A                      A
 Frequencies --   1272.8091              1302.9500              1308.0659
 Red. masses --      2.3891                 1.8726                 1.7853
 Frc consts  --      2.2804                 1.8731                 1.7998
 IR Inten    --     40.5446               113.9513                47.8151

                     46                     47                     48
                      A                      A                      A
 Frequencies --   1338.6387              1365.0308              1376.2945
 Red. masses --      1.9978                 1.3043                 1.2974
 Frc consts  --      2.1093                 1.4320                 1.4479
 IR Inten    --     16.8494                 5.5551                 2.0271

                     49                     50                     51
                      A                      A                      A
 Frequencies --   1385.1480              1391.4747              1397.9102
 Red. masses --      1.3793                 1.4435                 1.4006
 Frc consts  --      1.5593                 1.6467                 1.6126
 IR Inten    --      4.5047                41.5956                15.5208

                     52                     53                     54
                      A                      A                      A
 Frequencies --   1421.6052              1428.1688              1463.8056
 Red. masses --      1.3502                 1.4031                 2.3809
 Frc consts  --      1.6077                 1.6862                 3.0058
 IR Inten    --      1.1143                37.0418                40.5250

                     55                     56                     57
                      A                      A                      A
 Frequencies --   1487.2084              1498.7342              1502.2547
 Red. masses --      1.0524                 1.0833                 1.0580
 Frc consts  --      1.3715                 1.4337                 1.4068
 IR Inten    --      7.3954                 2.3691                24.2150

                     58                     59                     60
                      A                      A                      A
 Frequencies --   1504.0492              1510.0082              1517.6673
 Red. masses --      1.1574                 1.1319                 1.1437
 Frc consts  --      1.5426                 1.5206                 1.5520
 IR Inten    --     13.6087                40.4470                26.7801

                     61                     62                     63
                      A                      A                      A
 Frequencies --   1522.8772              1536.7865              1567.8598
 Red. masses --      1.2412                 2.2615                 8.6853
 Frc consts  --      1.6960                 3.1468                12.5791
 IR Inten    --     70.2158                80.8650               151.4105

                     64                     65                     66
                      A                      A                      A
 Frequencies --   1630.4603              2970.1671              2976.0335
 Red. masses --      5.9867                 1.0738                 1.0739
 Frc consts  --      9.3768                 5.5813                 5.6038
 IR Inten    --    935.4647                26.4994               108.3887

                     67                     68                     69
                      A                      A                      A
 Frequencies --   3050.2200              3054.9796              3084.5133
 Red. masses --      1.0610                 1.0621                 1.0297
 Frc consts  --      5.8162                 5.8403                 5.7719
 IR Inten    --     32.1075                47.2975                18.2764

                     70                     71                     72
                      A                      A                      A
 Frequencies --   3102.1081              3103.8155              3136.9727
 Red. masses --      1.1044                 1.1049                 1.0891
 Frc consts  --      6.2615                 6.2717                 6.3143
 IR Inten    --     35.7359                44.0220                17.2929

                     73                     74                     75
                      A                      A                      A
 Frequencies --   3172.6555              3174.8348              3175.5418
 Red. masses --      1.0886                 1.0929                 1.1024
 Frc consts  --      6.4560                 6.4901                 6.5498
 IR Inten    --      7.6619                44.0807                 4.1216

                     76                     77                     78
                      A                      A                      A
 Frequencies --   3186.3632              3240.5388              3460.9047
 Red. masses --      1.1080                 1.0901                 1.0735
 Frc consts  --      6.6278                 6.7446                 7.5759
 IR Inten    --      3.6324                 4.8260                 2.6049

 - Thermochemistry -
 -------------------
 Temperature   298.150 Kelvin.  Pressure   1.00000 Atm.
 Atom     1 has atomic number  6 and mass  12.00000

 Molecular mass:   210.09392 amu.
 Principal axes and moments of inertia in atomic units:
                           1         2         3
     Eigenvalues --  1068.864376351.834057289.28182
           X            0.99998   0.00644  -0.00163
           Y           -0.00644   0.99998  -0.00028
           Z            0.00162   0.00029   1.00000
 This molecule is an asymmetric top.
 Rotational symmetry number  1.
 Warning -- assumption of classical behavior for rotation
           may cause significant error
 Rotational temperatures (Kelvin)      0.08103     0.01364     0.01188
 Rotational constants (GHZ):           1.68847     0.28413     0.24759
 Zero-point vibrational energy     617573.2 (Joules/Mol)
                                  147.60353 (Kcal/Mol)
 Warning -- explicit consideration of  18 degrees of freedom as
           vibrations may cause significant error
 Vibrational temperatures:     46.88    73.01    88.92   164.11   182.45
          (Kelvin)            217.58   279.60   300.10   330.31   381.05
                              412.99   522.34   567.68   635.97   651.09
                              687.90   728.70   771.82   898.61   943.78
                             1030.44  1096.75  1113.55  1154.01  1179.66
                             1188.00  1222.69  1307.07  1351.16  1422.23
                             1424.99  1437.13  1444.94  1449.55  1487.17
                             1502.71  1551.46  1645.89  1664.05  1696.66
                             1737.68  1761.76  1831.29  1874.65  1882.02
                             1926.00  1963.97  1980.18  1992.92  2002.02
                             2011.28  2045.37  2054.82  2106.09  2139.76
                             2156.34  2161.41  2163.99  2172.57  2183.58
                             2191.08  2211.09  2255.80  2345.87  4273.41
                             4281.85  4388.59  4395.43  4437.93  4463.24
                             4465.70  4513.40  4564.74  4567.88  4568.90
                             4584.47  4662.41  4979.47

 Zero-point correction=                           0.235221 (Hartree/Particle)
 Thermal correction to Energy=                    0.248453
 Thermal correction to Enthalpy=                  0.249397
 Thermal correction to Gibbs Free Energy=         0.193998
 Sum of electronic and zero-point Energies=           -968.401408
 Sum of electronic and thermal Energies=              -968.388177
 Sum of electronic and thermal Enthalpies=            -968.387233
 Sum of electronic and thermal Free Energies=         -968.442632

                     E (Thermal)             CV                S
                      KCal/Mol        Cal/Mol-Kelvin    Cal/Mol-Kelvin
 Total                  155.906             49.590            116.598
 Electronic               0.000              0.000              0.000
 Translational            0.889              2.981             41.931
 Rotational               0.889              2.981             32.270
 Vibrational            154.129             43.629             42.397
 Vibration     1          0.594              1.983              5.666
 Vibration     2          0.595              1.977              4.788
 Vibration     3          0.597              1.973              4.399
 Vibration     4          0.607              1.938              3.199
 Vibration     5          0.611              1.926              2.994
 Vibration     6          0.619              1.901              2.657
 Vibration     7          0.635              1.848              2.186
 Vibration     8          0.642              1.828              2.056
 Vibration     9          0.652              1.796              1.882
 Vibration    10          0.671              1.737              1.630
 Vibration    11          0.684              1.698              1.491
 Vibration    12          0.737              1.548              1.109
 Vibration    13          0.762              1.482              0.983
 Vibration    14          0.802              1.378              0.820
 Vibration    15          0.811              1.355              0.788
 Vibration    16          0.835              1.299              0.715
 Vibration    17          0.862              1.236              0.642
 Vibration    18          0.891              1.169              0.573

 Optimization completed.
    -- Stationary point found.
 Normal termination of Gaussian 16 at Thu Dec 10 10:34:44 2020.

 ----------------------------------------------------------------------
 # B3LYP/6-311++G(d,p) empiricaldispersion=gd3bj scf=xqc pop=npa geom=c
 heck
 ----------------------------------------------------------------------

 ---------------------------------------
 CID_106972154_JID_4724_Energie_neutraal
 ---------------------------------------
 Structure from the checkpoint file:  "JID_4724.chk"
 Charge =  0 Multiplicity = 1

 SCF Done:  E(RB3LYP) =  -968.817175717     A.U. after   14 cycles
 Normal termination of Gaussian 16 at Thu Dec 10 10:38:25 2020.

 ----------------------------------------------------------------------
 # B3LYP/6-311++G(d,p) empiricaldispersion=gd3bj scf=xqc pop=npa geom=c
 heck
 ----------------------------------------------------------------------

 -------------------------------------
 CID_106972154_JID_4724_Energie_kation
 -------------------------------------
 Structure from the checkpoint file:  "JID_4724.chk"
 Charge =  1 Multiplicity = 2

 SCF Done:  E(UB3LYP) =  -968.538683699     A.U. after   25 cycles
 Normal termination of Gaussian 16 at Thu Dec 10 10:47:31 2020.
 Gaussian 16:  ES64L-G16RevA.03 25-Dec-2016

 ----------------------------------------------------------------------
 # B3LYP/6-311++G(d,p) empiricaldispersion=gd3bj scf=xqc pop=npa geom=c
 heck
 ----------------------------------------------------------------------

 ------------------------------------
 CID_106972154_JID_4724_Energie_anion
 ------------------------------------
 Structure from the checkpoint file:  "JID_4724.chk"
 Charge = -1 Multiplicity = 2

                         Standard orientation:
 ---------------------------------------------------------------------
 Center     Atomic      Atomic             Coordinates (Angstroms)
 Number     Number       Type             X           Y           Z
 ---------------------------------------------------------------------
      1          6           0        4.860985   -0.130725   -0.094621
      2         16           0        3.420751   -1.243987    0.021003
      3          6           0        2.084395   -0.074974   -0.002003
      4          7           0        2.377626    1.230083   -0.111084
      5          6           0        1.314619    2.040318   -0.103762
      6          7           0        0.033098    1.711919   -0.018457
      7          6           0       -0.257979    0.390490    0.071211
      8          6           0        0.782265   -0.559135    0.101482
      9          7           0       -1.589182    0.055614    0.110629
     10          6           0       -2.593187    1.075780    0.426986
     11          6           0       -3.901388    0.786147   -0.312216
     12          7           0       -4.411159   -0.569863   -0.094967
     13          6           0       -3.376902   -1.553269   -0.405448
     14          6           0       -2.037739   -1.317093    0.311909
     15          1           0        5.740368   -0.779399   -0.084371
     16          1           0        4.886170    0.552755    0.754805
     17          1           0        4.826821    0.444703   -1.020220
     18          1           0        1.529560    3.105514   -0.177068
     19          1           0        0.607796   -1.620400    0.216221
     20          1           0       -2.778985    1.077837    1.515630
     21          1           0       -2.183472    2.047408    0.155810
     22          1           0       -3.740944    0.913146   -1.390311
     23          1           0       -4.665897    1.507535   -0.003682
     24          1           0       -4.684102   -0.669115    0.883510
     25          1           0       -3.201751   -1.520098   -1.488313
     26          1           0       -3.747473   -2.554784   -0.160643
     27          1           0       -1.298626   -2.010785   -0.091604
     28          1           0       -2.144583   -1.530030    1.390117
 ---------------------------------------------------------------------

 SCF Done:  E(UB3LYP) =  -968.805320645     A.U. after   33 cycles
 SCF Done:  E(UB3LYP) =  -968.806056722     a.u. after   11 cycles

 The electronic state is 2-A.
 Alpha  occ. eigenvalues --  -88.75384 -14.23142 -14.19280 -14.19193 -14.18487
 Alpha  occ. eigenvalues --  -10.14002 -10.12517 -10.12513 -10.10572 -10.09650
 Alpha  occ. eigenvalues --  -10.08982 -10.08794 -10.08701 -10.06712  -7.84025
 Alpha  occ. eigenvalues --   -5.80421  -5.80007  -5.79439  -0.88335  -0.84767
 Alpha  occ. eigenvalues --   -0.80074  -0.76606  -0.70237  -0.66905  -0.66066
 Alpha  occ. eigenvalues --   -0.60231  -0.57024  -0.54988  -0.52720  -0.50467
 Alpha  occ. eigenvalues --   -0.46732  -0.43036  -0.41286  -0.37661  -0.36410
 Alpha  occ. eigenvalues --   -0.35795  -0.35257  -0.34962  -0.34093  -0.33747
 Alpha  occ. eigenvalues --   -0.32883  -0.31629  -0.30776  -0.29056  -0.28185
 Alpha  occ. eigenvalues --   -0.25396  -0.24986  -0.24766  -0.23486  -0.23037
 Alpha  occ. eigenvalues --   -0.19967  -0.18680  -0.14892  -0.13545  -0.12804
 Alpha  occ. eigenvalues --   -0.10579   0.04784
 Alpha virt. eigenvalues --    0.06547   0.06934   0.07950   0.08607   0.08995
 Alpha virt. eigenvalues --    0.09254   0.09460   0.10794   0.10947   0.11258
 Alpha virt. eigenvalues --    0.11425   0.11487   0.12465   0.13141   0.13672

  Beta  occ. eigenvalues --  -88.75382 -14.23166 -14.19258 -14.19163 -14.18315
  Beta  occ. eigenvalues --  -10.13913 -10.12504 -10.12276 -10.10571 -10.09615
  Beta  occ. eigenvalues --  -10.08963 -10.08778 -10.08678 -10.06748  -7.84023
  Beta  occ. eigenvalues --   -5.80424  -5.80011  -5.79424  -0.88178  -0.84683
  Beta  occ. eigenvalues --   -0.79983  -0.76383  -0.70132  -0.66837  -0.65993
  Beta  occ. eigenvalues --   -0.60118  -0.56946  -0.54938  -0.52656  -0.50337
  Beta  occ. eigenvalues --   -0.46613  -0.42949  -0.41175  -0.37586  -0.36338
  Beta  occ. eigenvalues --   -0.35705  -0.35188  -0.34885  -0.34029  -0.33718
  Beta  occ. eigenvalues --   -0.32850  -0.31459  -0.30454  -0.29001  -0.28132
  Beta  occ. eigenvalues --   -0.25338  -0.24894  -0.24716  -0.23393  -0.22454
  Beta  occ. eigenvalues --   -0.19545  -0.18552  -0.14763  -0.13284  -0.12650
  Beta  occ. eigenvalues --   -0.10526
  Beta virt. eigenvalues --    0.06469   0.07609   0.08058   0.08535   0.08958
  Beta virt. eigenvalues --    0.09199   0.09710   0.10036   0.10869   0.10885
  Beta virt. eigenvalues --    0.11667   0.11791   0.11984   0.12619   0.13331

 Mulliken charges and spin densities:
               1          2
     1  C   -0.520937  -0.017781
     2  S   -0.500498  -0.090963
     3  C    0.094331   0.317959
     4  N   -0.055656   0.026696
     5  C    0.028445   0.112366
     6  N   -0.212978   0.082110
     7  C    0.098101  -0.385656
     8  C   -0.381893   0.160646
     9  N    0.028616   0.155973
    10  C   -0.232834   0.024420
    11  C    0.758519  -1.171108
    12  N   -0.420846   0.335166
    13  C    1.291369  -1.860178
    14  C   -0.181538   0.078969
    15  H    0.123295   0.011001
    16  H    0.165167   0.024364
    17  H    0.182641   0.005372
    18  H    0.134474   0.051623
    19  H   -0.299280   0.468248
    20  H   -0.366283   0.540231
    21  H    0.216766  -0.028512
    22  H    0.123050   0.024276
    23  H   -0.280972   0.459320
    24  H   -0.213004   0.457026
    25  H    0.185017  -0.032295
    26  H   -0.600712   0.797454
    27  H    0.377586  -0.284180
    28  H   -0.539946   0.737454
 Sum of Mulliken charges =  -1.00000   1.00000

 Dipole moment (field-independent basis, Debye):
    X=              8.7442    Y=              2.0454    Z=             -4.4468  Tot=             10.0209
 Quadrupole moment (field-independent basis, Debye-Ang):
   XX=           -172.8992   YY=           -125.8279   ZZ=           -119.2016
   XY=             -9.0980   XZ=             13.4754   YZ=              4.8813

 Summary of Natural Population Analysis:

                                       Natural Population
                Natural  -----------------------------------------------
    Atom  No    Charge         Core      Valence    Rydberg      Total
 -----------------------------------------------------------------------
      C    1   -0.34828      0.99962     2.34178    0.00688     3.34828
      S    2    0.11527      4.99954     2.86522    0.01997     7.88473
      C    3    0.08542      0.99948     1.89801    0.01709     2.91458
      N    4   -0.29343      0.99966     2.78150    0.01227     3.79343
      C    5    0.15446      0.99967     1.82708    0.01880     2.84554
      N    6   -0.26006      0.99967     2.75094    0.00945     3.76006
      C    7    0.23906      0.99952     1.74738    0.01405     2.76094
      C    8   -0.18689      0.99945     2.17917    0.00826     3.18689
      N    9   -0.24899      0.99964     2.73837    0.01099     3.74899
      C   10   -0.09601      0.99960     2.08555    0.01086     3.09601
      C   11   -0.09268      0.99962     2.08096    0.01210     3.09268
      N   12   -0.33717      0.99976     2.82342    0.01399     3.83717
      C   13   -0.09138      0.99962     2.07905    0.01270     3.09138
      C   14   -0.09034      0.99961     2.07980    0.01093     3.09034
      H   15    0.10031      0.00000     0.39873    0.00095     0.39969
      H   16    0.10815      0.00000     0.39026    0.00159     0.39185
      H   17    0.10792      0.00000     0.39077    0.00131     0.39208
      H   18    0.07759      0.00000     0.42138    0.00103     0.42241
      H   19    0.10764      0.00000     0.39082    0.00155     0.39236
      H   20    0.09009      0.00000     0.40738    0.00252     0.40991
      H   21    0.11725      0.00000     0.38090    0.00186     0.38275
      H   22    0.08852      0.00000     0.41017    0.00131     0.41148
      H   23    0.09752      0.00000     0.40146    0.00103     0.40248
      H   24    0.17554      0.00000     0.31713    0.00733     0.32446
      H   25    0.08733      0.00000     0.41127    0.00140     0.41267
      H   26    0.10025      0.00000     0.39826    0.00149     0.39975
      H   27    0.09835      0.00000     0.40028    0.00137     0.40165
      H   28    0.09456      0.00000     0.40073    0.00471     0.40544
 =======================================================================
   * Total *    0.00000     17.99447    37.79775    0.20778    56.00000

 Normal termination of Gaussian 16 at Thu Dec 10 12:56:08 2020.
