 Gaussian 16, Revision A.03,

 -----------------------------------------------------------
 # opt freq B3LYP/6-31G(d) empiricaldispersion=gd3bj scf=xqc
 -----------------------------------------------------------

 -------------------------------
 CID_106485613_JID_9634_neutraal
 -------------------------------
 Symbolic Z-matrix:
 Charge =  0 Multiplicity = 1

 SCF Done:  E(RB3LYP) =  -893.087511405     A.U. after   18 cycles
 SCF Done:  E(RB3LYP) =  -893.093636100     A.U. after   14 cycles
 SCF Done:  E(RB3LYP) =  -893.094940458     A.U. after   14 cycles
 SCF Done:  E(RB3LYP) =  -893.091952840     A.U. after   15 cycles
 SCF Done:  E(RB3LYP) =  -893.095749186     A.U. after   14 cycles
 SCF Done:  E(RB3LYP) =  -893.096031354     A.U. after   13 cycles
 SCF Done:  E(RB3LYP) =  -893.096295000     A.U. after   14 cycles
 SCF Done:  E(RB3LYP) =  -893.096358778     A.U. after   13 cycles
 SCF Done:  E(RB3LYP) =  -893.096376525     A.U. after   12 cycles
 SCF Done:  E(RB3LYP) =  -893.096378789     A.U. after    9 cycles
 SCF Done:  E(RB3LYP) =  -893.096381048     A.U. after   11 cycles
 SCF Done:  E(RB3LYP) =  -893.096381773     A.U. after   11 cycles
 SCF Done:  E(RB3LYP) =  -893.096382520     A.U. after   10 cycles
 SCF Done:  E(RB3LYP) =  -893.096382863     A.U. after   11 cycles
 SCF Done:  E(RB3LYP) =  -893.096382943     A.U. after    8 cycles
 SCF Done:  E(RB3LYP) =  -893.096382946     A.U. after    8 cycles
 Optimization completed.
    -- Stationary point found.
 Normal termination of Gaussian 16 at Mon Dec 14 17:07:58 2020.

 --------------------------------------------------------------------
 #N Geom=AllCheck Guess=TCheck SCRF=Check GenChk RB3LYP/6-31G(d) Freq
 --------------------------------------------------------------------

 Structure from the checkpoint file:  "JID_9634.chk"
 -------------------------------
 CID_106485613_JID_9634_neutraal
 -------------------------------
 Charge =  0 Multiplicity = 1

 SCF Done:  E(RB3LYP) =  -893.096382946     A.U. after    1 cycles

  Exact polarizability: 271.000  10.245 149.354  -7.650   9.258 101.365
 Approx polarizability: 362.479  19.340 270.258 -14.486  20.510 170.246

                      1                      2                      3
                      A                      A                      A
 Frequencies --     14.8916                21.5607                30.6994
 Red. masses --      4.6241                10.3329                 4.6676
 Frc consts  --      0.0006                 0.0028                 0.0026
 IR Inten    --      0.2098                 0.0475                 0.9137

                      4                      5                      6
                      A                      A                      A
 Frequencies --     46.1825                57.5826                96.1563
 Red. masses --      4.8717                 3.0530                 7.5516
 Frc consts  --      0.0061                 0.0060                 0.0411
 IR Inten    --      0.7327                 2.9590                 2.3274

                      7                      8                      9
                      A                      A                      A
 Frequencies --    129.1705               185.9832               198.0513
 Red. masses --      3.7154                 3.8875                 4.3657
 Frc consts  --      0.0365                 0.0792                 0.1009
 IR Inten    --      3.5100                 0.5710                 0.0603

                     10                     11                     12
                      A                      A                      A
 Frequencies --    235.9977               242.9257               261.0434
 Red. masses --      1.2703                 2.6524                 2.0508
 Frc consts  --      0.0417                 0.0922                 0.0823
 IR Inten    --      1.1084                 0.9843                18.5380

                     13                     14                     15
                      A                      A                      A
 Frequencies --    282.5747               293.8755               324.0682
 Red. masses --      3.5799                 5.3455                 2.5987
 Frc consts  --      0.1684                 0.2720                 0.1608
 IR Inten    --     19.0458                 9.6392                25.0006

                     16                     17                     18
                      A                      A                      A
 Frequencies --    375.9252               390.0845               419.1889
 Red. masses --      3.9370                 6.1315                 5.5919
 Frc consts  --      0.3278                 0.5497                 0.5789
 IR Inten    --      6.2603                 5.5144                 3.0292

                     19                     20                     21
                      A                      A                      A
 Frequencies --    426.3934               442.6682               463.7585
 Red. masses --      3.1735                 4.0749                 3.1679
 Frc consts  --      0.3399                 0.4705                 0.4014
 IR Inten    --      0.4018                 6.1941                 3.1590

                     22                     23                     24
                      A                      A                      A
 Frequencies --    519.2763               544.5794               574.2600
 Red. masses --      3.6791                 4.3613                 6.0203
 Frc consts  --      0.5845                 0.7621                 1.1697
 IR Inten    --      3.8829                13.2192                 1.6927

                     25                     26                     27
                      A                      A                      A
 Frequencies --    596.9526               602.5919               651.2586
 Red. masses --      4.4671                 4.4822                 6.9681
 Frc consts  --      0.9379                 0.9589                 1.7413
 IR Inten    --      0.9653                 5.6140                 1.1631

                     28                     29                     30
                      A                      A                      A
 Frequencies --    690.0910               731.8961               737.2580
 Red. masses --      6.0519                 4.2742                 5.2318
 Frc consts  --      1.6981                 1.3490                 1.6755
 IR Inten    --      8.2049                 0.3967                 3.2495

                     31                     32                     33
                      A                      A                      A
 Frequencies --    754.1758               771.8314               790.2810
 Red. masses --      3.5486                 7.2218                 4.3485
 Frc consts  --      1.1892                 2.5348                 1.6001
 IR Inten    --      3.5507                15.5331                 1.5539

                     34                     35                     36
                      A                      A                      A
 Frequencies --    835.5901               842.5552               858.3633
 Red. masses --      1.4306                 3.9821                 1.6858
 Frc consts  --      0.5885                 1.6656                 0.7318
 IR Inten    --     33.8544                56.7556                30.8773

                     37                     38                     39
                      A                      A                      A
 Frequencies --    867.3927               878.2972               882.8592
 Red. masses --      6.4073                 1.4057                 1.4402
 Frc consts  --      2.8402                 0.6389                 0.6614
 IR Inten    --      9.1594                22.0315                77.1869

                     40                     41                     42
                      A                      A                      A
 Frequencies --    954.1778               976.6189               977.0843
 Red. masses --      1.3110                 1.3394                 1.4017
 Frc consts  --      0.7032                 0.7527                 0.7884
 IR Inten    --      1.5720                 3.4421                 6.4741

                     43                     44                     45
                      A                      A                      A
 Frequencies --    995.3399              1012.6128              1041.2015
 Red. masses --      3.6461                 1.7207                 2.6709
 Frc consts  --      2.1282                 1.0395                 1.7060
 IR Inten    --     19.2889                24.8355                25.2714

                     46                     47                     48
                      A                      A                      A
 Frequencies --   1051.8392              1073.5885              1073.8001
 Red. masses --      1.5425                 2.6083                 1.5555
 Frc consts  --      1.0055                 1.7713                 1.0567
 IR Inten    --      2.4660                 6.7110                 4.1026

                     49                     50                     51
                      A                      A                      A
 Frequencies --   1128.8953              1136.0644              1187.2644
 Red. masses --      7.5147                 1.2944                 1.2943
 Frc consts  --      5.6425                 0.9843                 1.0749
 IR Inten    --     74.0084                 4.2520                 8.3663

                     52                     53                     54
                      A                      A                      A
 Frequencies --   1195.7404              1205.6119              1231.1323
 Red. masses --      1.3269                 1.5191                 2.1492
 Frc consts  --      1.1178                 1.3009                 1.9192
 IR Inten    --     18.9306                 3.1051               118.5294

                     55                     56                     57
                      A                      A                      A
 Frequencies --   1247.6589              1295.3717              1309.4779
 Red. masses --      5.0056                 1.9337                 1.4555
 Frc consts  --      4.5909                 1.9118                 1.4705
 IR Inten    --    113.5775               290.9362                 3.4227

                     58                     59                     60
                      A                      A                      A
 Frequencies --   1336.8725              1346.9601              1353.0687
 Red. masses --      2.1556                 3.1024                 2.7199
 Frc consts  --      2.2699                 3.3163                 2.9338
 IR Inten    --    113.9527               195.4844                13.4477

                     61                     62                     63
                      A                      A                      A
 Frequencies --   1369.5272              1391.7286              1433.9456
 Red. masses --      2.5642                11.0097                 5.3326
 Frc consts  --      2.8336                12.5642                 6.4603
 IR Inten    --      0.9364               535.0728               182.8298

                     64                     65                     66
                      A                      A                      A
 Frequencies --   1437.4331              1443.7839              1469.2641
 Red. masses --      1.7588                 1.2174                 2.3926
 Frc consts  --      2.1412                 1.4952                 3.0431
 IR Inten    --      3.6731                14.2832                13.7598

                     67                     68                     69
                      A                      A                      A
 Frequencies --   1503.7051              1511.0267              1517.7629
 Red. masses --      1.0545                 1.2115                 2.6772
 Frc consts  --      1.4048                 1.6297                 3.6336
 IR Inten    --     10.8974                86.5816               137.3675

                     70                     71                     72
                      A                      A                      A
 Frequencies --   1533.6306              1557.9800              1591.5483
 Red. masses --      1.1043                 2.4631                 9.4970
 Frc consts  --      1.5303                 3.5225                14.1735
 IR Inten    --      5.6013                96.0617                45.8062

                     73                     74                     75
                      A                      A                      A
 Frequencies --   1628.2024              1649.9059              1663.2745
 Red. masses --      7.8352                 6.7893                 6.8795
 Frc consts  --     12.2382                10.8892                11.2134
 IR Inten    --    199.6775                13.0260               313.7474

                     76                     77                     78
                      A                      A                      A
 Frequencies --   1675.2386              1693.6000              2963.1799
 Red. masses --      5.8948                 1.1261                 1.0732
 Frc consts  --      9.7470                 1.9031                 5.5518
 IR Inten    --     88.3307                30.7663                74.5408

                     79                     80                     81
                      A                      A                      A
 Frequencies --   3042.1353              3074.3318              3145.1540
 Red. masses --      1.0879                 1.0355                 1.1000
 Frc consts  --      5.9319                 5.7664                 6.4110
 IR Inten    --     29.7143                10.6325                 3.4047

                     82                     83                     84
                      A                      A                      A
 Frequencies --   3150.3316              3183.1897              3211.3202
 Red. masses --      1.1045                 1.0891                 1.0888
 Frc consts  --      6.4587                 6.5022                 6.6152
 IR Inten    --     17.5313                17.3267                 3.8756

                     85                     86                     87
                      A                      A                      A
 Frequencies --   3226.0364              3226.6228              3227.3549
 Red. masses --      1.0933                 1.0918                 1.0939
 Frc consts  --      6.7042                 6.6971                 6.7128
 IR Inten    --      9.3341                 2.8139                 2.6030

                     88                     89                     90
                      A                      A                      A
 Frequencies --   3236.0605              3469.9956              3558.8579
 Red. masses --      1.0915                 1.0497                 1.0929
 Frc consts  --      6.7346                 7.4471                 8.1557
 IR Inten    --      0.5258                 2.3403                 0.6977

 - Thermochemistry -
 -------------------
 Temperature   298.150 Kelvin.  Pressure   1.00000 Atm.
 Atom     1 has atomic number  6 and mass  12.00000

 Molecular mass:   259.09569 amu.
 Principal axes and moments of inertia in atomic units:
                           1         2         3
     Eigenvalues --  1523.56168********************
           X            0.99989   0.01498  -0.00145
           Y           -0.01496   0.99980   0.01355
           Z            0.00166  -0.01353   0.99991
 This molecule is an asymmetric top.
 Rotational symmetry number  1.
 Warning -- assumption of classical behavior for rotation
           may cause significant error
 Rotational temperatures (Kelvin)      0.05685     0.00675     0.00627
 Rotational constants (GHZ):           1.18455     0.14073     0.13072
 Zero-point vibrational energy     657855.2 (Joules/Mol)
                                  157.23117 (Kcal/Mol)
 Warning -- explicit consideration of  26 degrees of freedom as
           vibrations may cause significant error
 Vibrational temperatures:     21.43    31.02    44.17    66.45    82.85
          (Kelvin)            138.35   185.85   267.59   284.95   339.55
                              349.52   375.58   406.56   422.82   466.26
                              540.87   561.24   603.12   613.48   636.90
                              667.25   747.12   783.53   826.23   858.88
                              867.00   937.02   992.89  1053.04  1060.75
                             1085.09  1110.49  1137.04  1202.23  1212.25
                             1234.99  1247.98  1263.67  1270.24  1372.85
                             1405.14  1405.81  1432.07  1456.92  1498.06
                             1513.36  1544.65  1544.96  1624.23  1634.54
                             1708.21  1720.40  1734.61  1771.32  1795.10
                             1863.75  1884.05  1923.46  1937.98  1946.76
                             1970.44  2002.39  2063.13  2068.15  2077.28
                             2113.94  2163.50  2174.03  2183.72  2206.55
                             2241.59  2289.88  2342.62  2373.85  2393.08
                             2410.29  2436.71  4263.35  4376.95  4423.28
                             4525.18  4532.62  4579.90  4620.37  4641.55
                             4642.39  4643.44  4655.97  4992.55  5120.40

 Zero-point correction=                           0.250564 (Hartree/Particle)
 Thermal correction to Energy=                    0.267347
 Thermal correction to Enthalpy=                  0.268291
 Thermal correction to Gibbs Free Energy=         0.202620
 Sum of electronic and zero-point Energies=           -892.845819
 Sum of electronic and thermal Energies=              -892.829036
 Sum of electronic and thermal Enthalpies=            -892.828091
 Sum of electronic and thermal Free Energies=         -892.893763

                     E (Thermal)             CV                S
                      KCal/Mol        Cal/Mol-Kelvin    Cal/Mol-Kelvin
 Total                  167.763             63.187            138.217
 Electronic               0.000              0.000              0.000
 Translational            0.889              2.981             42.556
 Rotational               0.889              2.981             33.955
 Vibrational            165.986             57.226             61.706
 Vibration     1          0.593              1.986              7.220
 Vibration     2          0.593              1.985              6.485
 Vibration     3          0.594              1.984              5.784
 Vibration     4          0.595              1.979              4.975
 Vibration     5          0.596              1.974              4.538
 Vibration     6          0.603              1.952              3.531
 Vibration     7          0.612              1.924              2.958
 Vibration     8          0.632              1.859              2.267
 Vibration     9          0.637              1.843              2.151
 Vibration    10          0.655              1.786              1.833
 Vibration    11          0.659              1.774              1.781
 Vibration    12          0.669              1.744              1.655
 Vibration    13          0.682              1.706              1.518
 Vibration    14          0.689              1.685              1.452
 Vibration    15          0.709              1.627              1.289
 Vibration    16          0.747              1.521              1.056
 Vibration    17          0.758              1.491              1.000
 Vibration    18          0.782              1.429              0.895
 Vibration    19          0.788              1.413              0.871
 Vibration    20          0.802              1.377              0.818
 Vibration    21          0.821              1.330              0.755
 Vibration    22          0.874              1.207              0.612
 Vibration    23          0.900              1.152              0.556
 Vibration    24          0.931              1.087              0.496
 Vibration    25          0.955              1.038              0.455
 Vibration    26          0.961              1.026              0.445

 Optimization completed.
    -- Stationary point found.
 Normal termination of Gaussian 16 at Mon Dec 14 17:19:56 2020.

 ----------------------------------------------------------------------
 # B3LYP/6-311++G(d,p) empiricaldispersion=gd3bj scf=xqc pop=npa geom=c
 heck
 ----------------------------------------------------------------------

 ---------------------------------------
 CID_106485613_JID_9634_Energie_neutraal
 ---------------------------------------
 Structure from the checkpoint file:  "JID_9634.chk"
 Charge =  0 Multiplicity = 1

 SCF Done:  E(RB3LYP) =  -893.345695152     A.U. after   16 cycles
 Normal termination of Gaussian 16 at Mon Dec 14 17:24:39 2020.

 ----------------------------------------------------------------------
 # B3LYP/6-311++G(d,p) empiricaldispersion=gd3bj scf=xqc pop=npa geom=c
 heck
 ----------------------------------------------------------------------

 -------------------------------------
 CID_106485613_JID_9634_Energie_kation
 -------------------------------------
 Structure from the checkpoint file:  "JID_9634.chk"
 Charge =  1 Multiplicity = 2

 SCF Done:  E(UB3LYP) =  -893.043659646     A.U. after   28 cycles
 Normal termination of Gaussian 16 at Mon Dec 14 17:35:45 2020.
 Gaussian 16:  ES64L-G16RevA.03 25-Dec-2016

 ----------------------------------------------------------------------
 # B3LYP/6-311++G(d,p) empiricaldispersion=gd3bj scf=xqc pop=npa geom=c
 heck
 ----------------------------------------------------------------------

 ------------------------------------
 CID_106485613_JID_9634_Energie_anion
 ------------------------------------
 Structure from the checkpoint file:  "JID_9634.chk"
 Charge = -1 Multiplicity = 2

                         Standard orientation:
 ---------------------------------------------------------------------
 Center     Atomic      Atomic             Coordinates (Angstroms)
 Number     Number       Type             X           Y           Z
 ---------------------------------------------------------------------
      1          6           0       -4.386302   -1.844906    0.268816
      2          6           0       -3.157713   -0.988990    0.119416
      3          6           0       -1.905058   -1.584052    0.200704
      4          6           0       -0.745745   -0.805221    0.067097
      5          7           0       -0.750946    0.509482   -0.135624
      6          6           0       -1.943465    1.098486   -0.208372
      7          6           0       -3.152519    0.411266   -0.091181
      8          7           0       -4.374307    1.200410   -0.201548
      9          8           0       -4.263545    2.427536   -0.238791
     10          8           0       -5.453454    0.605451   -0.257559
     11          8           0        0.427117   -1.471153    0.143428
     12          6           0        1.640580   -0.774296    0.123229
     13          6           0        2.535502   -1.079713   -0.895378
     14          6           0        3.793167   -0.478736   -0.900638
     15          6           0        4.157716    0.424088    0.104225
     16          6           0        3.239920    0.703087    1.123243
     17          6           0        1.979515    0.110606    1.141770
     18          6           0        5.509852    1.106527    0.078365
     19          7           0        6.547566    0.218700   -0.454672
     20          1           0       -4.986618   -1.832919   -0.644546
     21          1           0       -4.093486   -2.874089    0.493495
     22          1           0       -5.036771   -1.473571    1.064758
     23          1           0       -1.806931   -2.650450    0.368566
     24          1           0       -1.957741    2.170052   -0.373078
     25          1           0        2.241655   -1.782785   -1.667967
     26          1           0        4.510987   -0.710254   -1.680204
     27          1           0        3.514663    1.392352    1.918014
     28          1           0        1.269939    0.327773    1.932091
     29          1           0        5.460770    1.979026   -0.587941
     30          1           0        5.723751    1.503088    1.086579
     31          1           0        7.429890    0.721829   -0.523374
     32          1           0        6.700055   -0.553751    0.192114
 ---------------------------------------------------------------------

 SCF Done:  E(UB3LYP) =  -893.382030667     A.U. after   26 cycles

 The electronic state is 2-A.
 Alpha  occ. eigenvalues --  -19.05367 -18.94303 -18.94287 -14.32303 -14.23335
 Alpha  occ. eigenvalues --  -14.18154 -10.14048 -10.12991 -10.12986 -10.09453
 Alpha  occ. eigenvalues --  -10.09083 -10.08740 -10.08602 -10.08525 -10.07295
 Alpha  occ. eigenvalues --  -10.06828 -10.06703 -10.05197 -10.04812  -1.02538
 Alpha  occ. eigenvalues --   -0.98149  -0.85277  -0.82456  -0.81695  -0.76878
 Alpha  occ. eigenvalues --   -0.70200  -0.68264  -0.66415  -0.64469  -0.60513
 Alpha  occ. eigenvalues --   -0.58122  -0.54682  -0.53055  -0.51464  -0.48566
 Alpha  occ. eigenvalues --   -0.46435  -0.43698  -0.42104  -0.40852  -0.39189
 Alpha  occ. eigenvalues --   -0.38242  -0.36965  -0.36045  -0.35900  -0.35203
 Alpha  occ. eigenvalues --   -0.34080  -0.33322  -0.32073  -0.31691  -0.31389
 Alpha  occ. eigenvalues --   -0.30510  -0.29554  -0.29072  -0.27509  -0.26897
 Alpha  occ. eigenvalues --   -0.26446  -0.25553  -0.25213  -0.22480  -0.18620
 Alpha  occ. eigenvalues --   -0.17239  -0.15953  -0.15630  -0.14575  -0.13648
 Alpha  occ. eigenvalues --   -0.12007  -0.11562  -0.10085   0.02669
 Alpha virt. eigenvalues --    0.04159   0.06869   0.06943   0.07198   0.08023
 Alpha virt. eigenvalues --    0.08402   0.08968   0.09556   0.09987   0.10490
 Alpha virt. eigenvalues --    0.11031   0.12008   0.12394   0.12901   0.13445

  Beta  occ. eigenvalues --  -19.05309 -18.93844 -18.93767 -14.31660 -14.23327
  Beta  occ. eigenvalues --  -14.18277 -10.14030 -10.12986 -10.12669 -10.09433
  Beta  occ. eigenvalues --  -10.09074 -10.08744 -10.08603 -10.08512 -10.07139
  Beta  occ. eigenvalues --  -10.06688 -10.06600 -10.05279 -10.04822  -1.01470
  Beta  occ. eigenvalues --   -0.97966  -0.84352  -0.82437  -0.81573  -0.76847
  Beta  occ. eigenvalues --   -0.69984  -0.68146  -0.66392  -0.64075  -0.60312
  Beta  occ. eigenvalues --   -0.58111  -0.54154  -0.52979  -0.51230  -0.48392
  Beta  occ. eigenvalues --   -0.46076  -0.43634  -0.41906  -0.40797  -0.39020
  Beta  occ. eigenvalues --   -0.38199  -0.36432  -0.35923  -0.35783  -0.34068
  Beta  occ. eigenvalues --   -0.33291  -0.32625  -0.31916  -0.31324  -0.30756
  Beta  occ. eigenvalues --   -0.29996  -0.29212  -0.28800  -0.27465  -0.26761
  Beta  occ. eigenvalues --   -0.26372  -0.25443  -0.25141  -0.21982  -0.18601
  Beta  occ. eigenvalues --   -0.17180  -0.15845  -0.15257  -0.14427  -0.11569
  Beta  occ. eigenvalues --   -0.10799  -0.10217  -0.09547
  Beta virt. eigenvalues --    0.04162   0.06841   0.06963   0.07122   0.07981
  Beta virt. eigenvalues --    0.08359   0.08936   0.09724   0.10007   0.10071
  Beta virt. eigenvalues --    0.10557   0.10990   0.11990   0.12400   0.12890

 Mulliken charges and spin densities:
               1          2
     1  C   -0.200405  -0.004189
     2  C    1.748360   0.139003
     3  C    0.289649  -0.049023
     4  C   -1.177926   0.170846
     5  N    0.054452  -0.065220
     6  C    0.140167   0.203702
     7  C   -2.174911  -0.064580
     8  N   -0.239340   0.209670
     9  O   -0.193965   0.173298
    10  O   -0.200327   0.200601
    11  O    0.012302   0.009674
    12  C   -0.509627   0.002041
    13  C    0.121551   0.030332
    14  C   -0.150039   0.007577
    15  C    0.591783   0.043812
    16  C   -0.509770   0.000135
    17  C    0.123902  -0.018539
    18  C   -0.537094  -0.083724
    19  N   -0.342762  -0.006012
    20  H    0.188784   0.005663
    21  H    0.094508  -0.000093
    22  H    0.184293   0.006091
    23  H    0.124163   0.003533
    24  H    0.254597  -0.011677
    25  H    0.156809  -0.001246
    26  H    0.201375   0.001286
    27  H    0.129180  -0.002031
    28  H    0.168999   0.001522
    29  H    0.132317   0.021999
    30  H    0.153609   0.016572
    31  H    0.185348   0.043188
    32  H    0.180017   0.015787
 Sum of Mulliken charges =  -1.00000   1.00000

 Dipole moment (field-independent basis, Debye):
    X=             14.2923    Y=             -4.4636    Z=              2.0328  Tot=             15.1105
 Quadrupole moment (field-independent basis, Debye-Ang):
   XX=           -203.9951   YY=           -130.2819   ZZ=           -115.4525
   XY=             29.2299   XZ=              1.1208   YZ=              3.4567

 Summary of Natural Population Analysis:

                                       Natural Population
                Natural  -----------------------------------------------
    Atom  No    Charge         Core      Valence    Rydberg      Total
 -----------------------------------------------------------------------
      C    1   -0.29514      0.99963     2.29034    0.00517     3.29514
      C    2    0.04283      0.99950     1.94935    0.00832     2.95717
      C    3   -0.16792      0.99948     2.16042    0.00802     3.16792
      C    4    0.31570      0.99945     1.66972    0.01513     2.68430
      N    5   -0.28910      0.99967     2.77882    0.01061     3.78910
      C    6    0.08265      0.99957     1.90395    0.01383     2.91735
      C    7    0.00850      0.99936     1.97822    0.01392     2.99150
      N    8    0.30810      0.99972     2.16574    0.02644     3.19190
      O    9   -0.20162      0.99990     3.19400    0.00772     4.20162
      O   10   -0.19071      0.99990     3.18275    0.00805     4.19071
      O   11   -0.26947      0.99983     3.26000    0.00964     4.26947
      C   12    0.16480      0.99934     1.82350    0.01236     2.83520
      C   13   -0.11216      0.99951     2.10400    0.00865     3.11216
      C   14   -0.09960      0.99953     2.09182    0.00825     3.09960
      C   15   -0.03471      0.99951     2.02604    0.00916     3.03471
      C   16   -0.09721      0.99953     2.08948    0.00820     3.09721
      C   17   -0.10734      0.99951     2.09948    0.00835     3.10734
      C   18   -0.09288      0.99960     2.08313    0.01015     3.09288
      N   19   -0.41997      0.99978     2.91025    0.00995     3.91997
      H   20    0.11542      0.00000     0.38340    0.00118     0.38458
      H   21    0.08670      0.00000     0.41210    0.00120     0.41330
      H   22    0.11446      0.00000     0.38429    0.00126     0.38554
      H   23    0.09977      0.00000     0.39905    0.00118     0.40023
      H   24    0.10308      0.00000     0.39558    0.00134     0.39692
      H   25    0.10550      0.00000     0.39349    0.00101     0.39450
      H   26    0.10746      0.00000     0.39145    0.00109     0.39254
      H   27    0.09602      0.00000     0.40275    0.00123     0.40398
      H   28    0.11008      0.00000     0.38868    0.00124     0.38992
      H   29    0.09326      0.00000     0.40488    0.00187     0.40674
      H   30    0.07948      0.00000     0.41843    0.00209     0.42052
      H   31    0.17186      0.00000     0.32617    0.00198     0.32814
      H   32    0.17216      0.00000     0.32594    0.00190     0.32784
 =======================================================================
   * Total *   -0.00000     18.99231    48.78721    0.22048    68.00000

 Normal termination of Gaussian 16 at Mon Dec 14 17:46:02 2020.
