 Gaussian 16, Revision A.03,

 -----------------------------------------------------------
 # opt freq B3LYP/6-31G(d) empiricaldispersion=gd3bj scf=xqc
 -----------------------------------------------------------

 -------------------------------
 CID_142954040_JID_5043_neutraal
 -------------------------------
 Symbolic Z-matrix:
 Charge =  0 Multiplicity = 1

 SCF Done:  E(RB3LYP) =  -708.710933508     A.U. after   15 cycles
 SCF Done:  E(RB3LYP) =  -708.702197941     A.U. after   14 cycles
 SCF Done:  E(RB3LYP) =  -708.713510961     A.U. after   13 cycles
 SCF Done:  E(RB3LYP) =  -708.714224736     A.U. after   13 cycles
 SCF Done:  E(RB3LYP) =  -708.715637790     A.U. after   12 cycles
 SCF Done:  E(RB3LYP) =  -708.715839748     A.U. after   12 cycles
 SCF Done:  E(RB3LYP) =  -708.716016475     A.U. after   12 cycles
 SCF Done:  E(RB3LYP) =  -708.716222366     A.U. after   11 cycles
 SCF Done:  E(RB3LYP) =  -708.716368909     A.U. after   11 cycles
 SCF Done:  E(RB3LYP) =  -708.716486562     A.U. after   11 cycles
 SCF Done:  E(RB3LYP) =  -708.717644383     A.U. after    8 cycles
 SCF Done:  E(RB3LYP) =  -708.717644619     A.U. after    7 cycles
 SCF Done:  E(RB3LYP) =  -708.717644898     A.U. after    8 cycles
 SCF Done:  E(RB3LYP) =  -708.717645137     A.U. after    7 cycles
 SCF Done:  E(RB3LYP) =  -708.717645257     A.U. after    7 cycles
 SCF Done:  E(RB3LYP) =  -708.717645285     A.U. after    7 cycles
 Optimization completed.
    -- Stationary point found.
 Normal termination of Gaussian 16 at Thu Dec 10 15:02:33 2020.

 --------------------------------------------------------------------
 #N Geom=AllCheck Guess=TCheck SCRF=Check GenChk RB3LYP/6-31G(d) Freq
 --------------------------------------------------------------------

 Structure from the checkpoint file:  "JID_5043.chk"
 -------------------------------
 CID_142954040_JID_5043_neutraal
 -------------------------------
 Charge =  0 Multiplicity = 1

 SCF Done:  E(RB3LYP) =  -708.717645285     A.U. after    1 cycles

  Exact polarizability: 177.041  -0.568 103.113  -6.600 -25.447 109.760
 Approx polarizability: 267.939   1.624 155.296 -23.553 -54.195 179.394

                      1                      2                      3
                      A                      A                      A
 Frequencies --     32.4583                35.9450                47.6033
 Red. masses --      4.3075                 4.7474                 3.8362
 Frc consts  --      0.0027                 0.0036                 0.0051
 IR Inten    --      0.2087                 0.2601                 0.7957

                      4                      5                      6
                      A                      A                      A
 Frequencies --     56.1714                65.2572                69.3015
 Red. masses --      4.7999                 5.4466                 2.8564
 Frc consts  --      0.0089                 0.0137                 0.0081
 IR Inten    --      2.3216                 0.8977                 1.5211

                      7                      8                      9
                      A                      A                      A
 Frequencies --     89.1211               111.7750               123.8058
 Red. masses --      4.1399                 1.2759                 1.6768
 Frc consts  --      0.0194                 0.0094                 0.0151
 IR Inten    --      0.2133                 0.0686                 0.2311

                     10                     11                     12
                      A                      A                      A
 Frequencies --    130.1373               172.5681               181.5193
 Red. masses --      3.9202                 3.7105                 1.1151
 Frc consts  --      0.0391                 0.0651                 0.0216
 IR Inten    --      1.0844                 1.0581                 0.3151

                     13                     14                     15
                      A                      A                      A
 Frequencies --    195.4819               279.6682               332.7078
 Red. masses --      5.0986                 3.9611                 1.0098
 Frc consts  --      0.1148                 0.1825                 0.0659
 IR Inten    --      0.7014                 1.4255                 0.0428

                     16                     17                     18
                      A                      A                      A
 Frequencies --    336.9393               380.5701               397.8556
 Red. masses --      7.8580                 4.9916                 7.0651
 Frc consts  --      0.5256                 0.4260                 0.6589
 IR Inten    --      1.9765                 8.2194                 5.8065

                     19                     20                     21
                      A                      A                      A
 Frequencies --    435.5440               488.1860               521.8151
 Red. masses --      3.0934                 4.4073                 1.5547
 Frc consts  --      0.3457                 0.6189                 0.2494
 IR Inten    --      5.2473                 2.3673                35.0188

                     22                     23                     24
                      A                      A                      A
 Frequencies --    531.4428               550.4688               622.8220
 Red. masses --      4.1747                 3.2446                 1.5210
 Frc consts  --      0.6947                 0.5793                 0.3476
 IR Inten    --      7.4342                13.7234                69.5835

                     25                     26                     27
                      A                      A                      A
 Frequencies --    643.5490               646.4720               668.7602
 Red. masses --      2.0237                 4.5708                 3.1156
 Frc consts  --      0.4938                 1.1255                 0.8210
 IR Inten    --     63.7465                42.4583                55.7077

                     28                     29                     30
                      A                      A                      A
 Frequencies --    710.7534               763.6579               782.1685
 Red. masses --      2.5066                 2.9910                 5.1100
 Frc consts  --      0.7460                 1.0277                 1.8419
 IR Inten    --     12.0994                69.6170                15.1396

                     31                     32                     33
                      A                      A                      A
 Frequencies --    825.4540               834.3078               836.4536
 Red. masses --      2.3987                 2.2644                 1.0950
 Frc consts  --      0.9630                 0.9286                 0.4514
 IR Inten    --      4.6522                 0.7169                 5.2334

                     34                     35                     36
                      A                      A                      A
 Frequencies --    838.9233               921.9731               941.4704
 Red. masses --      1.0599                 1.5338                 1.3918
 Frc consts  --      0.4395                 0.7681                 0.7268
 IR Inten    --      6.6435                 7.4499                 0.3775

                     37                     38                     39
                      A                      A                      A
 Frequencies --    981.8618               991.0482              1011.9608
 Red. masses --      3.2450                 1.2944                 3.2622
 Frc consts  --      1.8432                 0.7491                 1.9683
 IR Inten    --      5.5952                 0.6781                 0.1992

                     40                     41                     42
                      A                      A                      A
 Frequencies --   1023.1142              1042.5019              1068.3674
 Red. masses --      5.5993                 1.6203                 1.7104
 Frc consts  --      3.4533                 1.0375                 1.1503
 IR Inten    --      1.8190                28.6632                 9.6302

                     43                     44                     45
                      A                      A                      A
 Frequencies --   1106.9528              1136.8926              1199.7111
 Red. masses --      2.4768                 1.7202                 1.3223
 Frc consts  --      1.7881                 1.3100                 1.1213
 IR Inten    --     81.9497                 8.2480               156.9636

                     46                     47                     48
                      A                      A                      A
 Frequencies --   1207.1339              1236.0693              1238.2237
 Red. masses --      1.3505                 1.4595                 1.4605
 Frc consts  --      1.1594                 1.3139                 1.3193
 IR Inten    --    109.6948                 0.2953                 0.2363

                     49                     50                     51
                      A                      A                      A
 Frequencies --   1277.3616              1341.2763              1345.4051
 Red. masses --      2.2210                 2.7076                 1.6432
 Frc consts  --      2.1351                 2.8699                 1.7525
 IR Inten    --     12.8698               252.7257                81.3022

                     52                     53                     54
                      A                      A                      A
 Frequencies --   1370.3964              1396.9599              1427.0545
 Red. masses --      4.5472                 2.8459                 1.4003
 Frc consts  --      5.0314                 3.2722                 1.6801
 IR Inten    --     15.1673               119.9930                80.8842

                     55                     56                     57
                      A                      A                      A
 Frequencies --   1433.7224              1435.7204              1456.4472
 Red. masses --      1.1997                 2.0980                 1.2551
 Frc consts  --      1.4530                 2.5479                 1.5687
 IR Inten    --      1.0760                 6.3075                 2.3178

                     58                     59                     60
                      A                      A                      A
 Frequencies --   1501.9796              1515.1567              1525.0068
 Red. masses --      1.0546                 1.1159                 2.1511
 Frc consts  --      1.4017                 1.5094                 2.9475
 IR Inten    --     12.5781                11.3968                65.0601

                     61                     62                     63
                      A                      A                      A
 Frequencies --   1533.5582              1534.4944              1537.7849
 Red. masses --      1.0293                 1.0670                 1.1287
 Frc consts  --      1.4262                 1.4802                 1.5726
 IR Inten    --      2.0660                 9.8235                10.2261

                     64                     65                     66
                      A                      A                      A
 Frequencies --   1539.1879              1544.1966              1649.2205
 Red. masses --      1.0610                 2.1875                 6.0009
 Frc consts  --      1.4810                 3.0733                 9.6166
 IR Inten    --     10.1474                17.8152                48.9387

                     67                     68                     69
                      A                      A                      A
 Frequencies --   1665.2055              1799.6596              1827.5459
 Red. masses --      5.8237                 8.0997                 9.9306
 Frc consts  --      9.5145                15.4561                19.5416
 IR Inten    --     37.8831               463.1390               280.3053

                     70                     71                     72
                      A                      A                      A
 Frequencies --   3049.8545              3050.7976              3070.6914
 Red. masses --      1.0371                 1.0359                 1.0402
 Frc consts  --      5.6839                 5.6807                 5.7791
 IR Inten    --      2.0668                41.6582                 2.7667

                     73                     74                     75
                      A                      A                      A
 Frequencies --   3098.7251              3107.3255              3124.3402
 Red. masses --      1.1012                 1.1009                 1.1026
 Frc consts  --      6.2301                 6.2629                 6.3416
 IR Inten    --      3.5020                14.7355                49.6257

                     76                     77                     78
                      A                      A                      A
 Frequencies --   3134.1090              3141.2071              3177.3963
 Red. masses --      1.1014                 1.0954                 1.1043
 Frc consts  --      6.3744                 6.3685                 6.5686
 IR Inten    --     58.1103                 5.9926                 8.1867

                     79                     80                     81
                      A                      A                      A
 Frequencies --   3203.8191              3230.4630              3232.9379
 Red. masses --      1.0886                 1.0918                 1.0910
 Frc consts  --      6.5833                 6.7128                 6.7182
 IR Inten    --      8.7000                 5.9516                 1.3627

                     82                     83                     84
                      A                      A                      A
 Frequencies --   3237.1973              3582.1478              3700.0814
 Red. masses --      1.0941                 1.0755                 1.0642
 Frc consts  --      6.7552                 8.1313                 8.5844
 IR Inten    --      3.6679                27.1657                82.0766

 - Thermochemistry -
 -------------------
 Temperature   298.150 Kelvin.  Pressure   1.00000 Atm.
 Atom     1 has atomic number  6 and mass  12.00000

 Molecular mass:   209.10519 amu.
 Principal axes and moments of inertia in atomic units:
                           1         2         3
     Eigenvalues --  2064.825805192.970575527.78054
           X            0.99990  -0.00318   0.01381
           Y            0.00261   0.99914   0.04132
           Z           -0.01393  -0.04128   0.99905
 This molecule is an asymmetric top.
 Rotational symmetry number  1.
 Warning -- assumption of classical behavior for rotation
           may cause significant error
 Rotational temperatures (Kelvin)      0.04195     0.01668     0.01567
 Rotational constants (GHZ):           0.87404     0.34754     0.32649
 Zero-point vibrational energy     649843.7 (Joules/Mol)
                                  155.31637 (Kcal/Mol)
 Warning -- explicit consideration of  23 degrees of freedom as
           vibrations may cause significant error
 Vibrational temperatures:     46.70    51.72    68.49    80.82    93.89
          (Kelvin)             99.71   128.23   160.82   178.13   187.24
                              248.29   261.17   281.25   402.38   478.69
                              484.78   547.56   572.43   626.65   702.39
                              750.78   764.63   792.00   896.10   925.92
                              930.13   962.20  1022.62  1098.73  1125.37
                             1187.64  1200.38  1203.47  1207.02  1326.51
                             1354.57  1412.68  1425.90  1455.99  1472.03
                             1499.93  1537.14  1592.66  1635.73  1726.12
                             1736.80  1778.43  1781.53  1837.84  1929.80
                             1935.74  1971.69  2009.91  2053.21  2062.81
                             2065.68  2095.50  2161.01  2179.97  2194.14
                             2206.45  2207.80  2212.53  2214.55  2221.75
                             2372.86  2395.86  2589.31  2629.43  4388.06
                             4389.42  4418.04  4458.37  4470.75  4495.23
                             4509.28  4519.50  4571.56  4609.58  4647.92
                             4651.48  4657.60  5153.91  5323.59

 Zero-point correction=                           0.247512 (Hartree/Particle)
 Thermal correction to Energy=                    0.264524
 Thermal correction to Enthalpy=                  0.265469
 Thermal correction to Gibbs Free Energy=         0.200442
 Sum of electronic and zero-point Energies=           -708.470133
 Sum of electronic and thermal Energies=              -708.453121
 Sum of electronic and thermal Enthalpies=            -708.452177
 Sum of electronic and thermal Free Energies=         -708.517203

                     E (Thermal)             CV                S
                      KCal/Mol        Cal/Mol-Kelvin    Cal/Mol-Kelvin
 Total                  165.992             59.635            136.859
 Electronic               0.000              0.000              0.000
 Translational            0.889              2.981             41.917
 Rotational               0.889              2.981             32.450
 Vibrational            164.214             53.673             62.493
 Vibration     1          0.594              1.983              5.673
 Vibration     2          0.594              1.982              5.471
 Vibration     3          0.595              1.978              4.915
 Vibration     4          0.596              1.975              4.587
 Vibration     5          0.597              1.971              4.292
 Vibration     6          0.598              1.969              4.173
 Vibration     7          0.602              1.957              3.679
 Vibration     8          0.607              1.940              3.238
 Vibration     9          0.610              1.929              3.040
 Vibration    10          0.612              1.923              2.944
 Vibration    11          0.626              1.876              2.407
 Vibration    12          0.630              1.865              2.313
 Vibration    13          0.636              1.846              2.175
 Vibration    14          0.680              1.711              1.536
 Vibration    15          0.715              1.610              1.247
 Vibration    16          0.718              1.602              1.227
 Vibration    17          0.750              1.512              1.037
 Vibration    18          0.764              1.475              0.971
 Vibration    19          0.796              1.393              0.841
 Vibration    20          0.844              1.276              0.688
 Vibration    21          0.877              1.202              0.606
 Vibration    22          0.886              1.180              0.584
 Vibration    23          0.906              1.139              0.543

 Optimization completed.
    -- Stationary point found.
 Normal termination of Gaussian 16 at Thu Dec 10 15:12:28 2020.

 ----------------------------------------------------------------------
 # B3LYP/6-311++G(d,p) empiricaldispersion=gd3bj scf=xqc pop=npa geom=c
 heck
 ----------------------------------------------------------------------

 ---------------------------------------
 CID_142954040_JID_5043_Energie_neutraal
 ---------------------------------------
 Structure from the checkpoint file:  "JID_5043.chk"
 Charge =  0 Multiplicity = 1

 SCF Done:  E(RB3LYP) =  -708.932212706     A.U. after   15 cycles
 Normal termination of Gaussian 16 at Thu Dec 10 15:16:15 2020.

 ----------------------------------------------------------------------
 # B3LYP/6-311++G(d,p) empiricaldispersion=gd3bj scf=xqc pop=npa geom=c
 heck
 ----------------------------------------------------------------------

 -------------------------------------
 CID_142954040_JID_5043_Energie_kation
 -------------------------------------
 Structure from the checkpoint file:  "JID_5043.chk"
 Charge =  1 Multiplicity = 2

 SCF Done:  E(UB3LYP) =  -708.614470808     A.U. after   25 cycles
 Normal termination of Gaussian 16 at Thu Dec 10 15:25:34 2020.
 Gaussian 16:  ES64L-G16RevA.03 25-Dec-2016

 ----------------------------------------------------------------------
 # B3LYP/6-311++G(d,p) empiricaldispersion=gd3bj scf=xqc pop=npa geom=c
 heck
 ----------------------------------------------------------------------

 ------------------------------------
 CID_142954040_JID_5043_Energie_anion
 ------------------------------------
 Structure from the checkpoint file:  "JID_5043.chk"
 Charge = -1 Multiplicity = 2

                         Standard orientation:
 ---------------------------------------------------------------------
 Center     Atomic      Atomic             Coordinates (Angstroms)
 Number     Number       Type             X           Y           Z
 ---------------------------------------------------------------------
      1          6           0        0.156975    2.696040    0.628254
      2          6           0        0.071168    1.993375    1.984212
      3          6           0        3.316350   -0.065577    0.866195
      4          6           0        3.111140   -0.078467   -0.636106
      5          8           0        3.988958    0.250130   -1.418234
      6          7           0        1.872356   -0.467456   -1.125713
      7          6           0        0.689975   -0.816343   -0.439060
      8          6           0        0.691710   -1.735125    0.619076
      9          6           0       -0.495042   -2.042428    1.285095
     10          6           0       -1.697259   -1.464806    0.889535
     11          6           0       -1.706978   -0.568563   -0.186076
     12          6           0       -0.520231   -0.248416   -0.848858
     13          6           0       -3.001164    0.055466   -0.563045
     14          8           0       -4.071683   -0.200851   -0.051688
     15          8           0       -2.874749    0.977995   -1.552366
     16          1           0        0.961352    2.277153    0.012842
     17          1           0        0.354779    3.767469    0.746336
     18          1           0       -0.776672    2.587756    0.065506
     19          1           0       -0.133879    0.924456    1.867105
     20          1           0        1.007478    2.096734    2.545507
     21          1           0       -0.729385    2.416591    2.601549
     22          1           0        3.632628   -1.054536    1.216222
     23          1           0        2.416592    0.219325    1.416660
     24          1           0        4.122978    0.638410    1.076204
     25          1           0        1.792592   -0.301204   -2.122493
     26          1           0        1.618145   -2.216839    0.909186
     27          1           0       -0.477055   -2.750067    2.108276
     28          1           0       -2.630484   -1.690429    1.392624
     29          1           0       -0.532059    0.467084   -1.662606
     30          1           0       -3.773591    1.321165   -1.709964
 ---------------------------------------------------------------------

 SCF Done:  E(UB3LYP) =  -708.947643222     A.U. after   28 cycles

 The electronic state is 2-A.
 Alpha  occ. eigenvalues --  -19.01602 -18.98112 -18.93748 -14.22670 -10.16782
 Alpha  occ. eigenvalues --  -10.11947 -10.07429 -10.07012 -10.04690 -10.04648
 Alpha  occ. eigenvalues --  -10.03057 -10.02384 -10.01871 -10.01826 -10.01610
 Alpha  occ. eigenvalues --   -0.95051  -0.93405  -0.85509  -0.81432  -0.70664
 Alpha  occ. eigenvalues --   -0.64197  -0.63845  -0.61568  -0.60246  -0.51444
 Alpha  occ. eigenvalues --   -0.50548  -0.48606  -0.47343  -0.43696  -0.39509
 Alpha  occ. eigenvalues --   -0.37054  -0.35353  -0.34904  -0.33512  -0.32559
 Alpha  occ. eigenvalues --   -0.32442  -0.32160  -0.31034  -0.29924  -0.29666
 Alpha  occ. eigenvalues --   -0.29317  -0.28809  -0.26661  -0.25883  -0.25034
 Alpha  occ. eigenvalues --   -0.23768  -0.23387  -0.22653  -0.21865  -0.21174
 Alpha  occ. eigenvalues --   -0.18031  -0.16860  -0.15510  -0.12321  -0.12126
 Alpha  occ. eigenvalues --   -0.09966   0.04653
 Alpha virt. eigenvalues --    0.07909   0.08958   0.09583   0.09920   0.10190
 Alpha virt. eigenvalues --    0.10661   0.11511   0.11958   0.12510   0.13484
 Alpha virt. eigenvalues --    0.13869   0.14113   0.14808   0.15118   0.15429

  Beta  occ. eigenvalues --  -19.01524 -18.98111 -18.93396 -14.22672 -10.16774
  Beta  occ. eigenvalues --  -10.11638 -10.07490 -10.07008 -10.04688 -10.04647
  Beta  occ. eigenvalues --  -10.03099 -10.02204 -10.01708 -10.01407 -10.01365
  Beta  occ. eigenvalues --   -0.94707  -0.93401  -0.84975  -0.81408  -0.70241
  Beta  occ. eigenvalues --   -0.64193  -0.63810  -0.60863  -0.59936  -0.50731
  Beta  occ. eigenvalues --   -0.50542  -0.48345  -0.47245  -0.43429  -0.39329
  Beta  occ. eigenvalues --   -0.36999  -0.35137  -0.34782  -0.33127  -0.32509
  Beta  occ. eigenvalues --   -0.32388  -0.31948  -0.30949  -0.29694  -0.29269
  Beta  occ. eigenvalues --   -0.28681  -0.28281  -0.26585  -0.25868  -0.24758
  Beta  occ. eigenvalues --   -0.23538  -0.23377  -0.22090  -0.21598  -0.20961
  Beta  occ. eigenvalues --   -0.17160  -0.15860  -0.15499  -0.11928  -0.10370
  Beta  occ. eigenvalues --   -0.08743
  Beta virt. eigenvalues --    0.07867   0.08908   0.09546   0.09877   0.10288
  Beta virt. eigenvalues --    0.10532   0.11087   0.11447   0.12172   0.12474
  Beta virt. eigenvalues --    0.13495   0.13943   0.14225   0.14839   0.15151

 Mulliken charges and spin densities:
               1          2
     1  C   -0.366495  -0.018453
     2  C   -0.507253   0.006993
     3  C   -0.328881  -0.009367
     4  C   -0.113692  -0.001843
     5  O   -0.349150  -0.000233
     6  N   -0.169314   0.008696
     7  C   -0.210161  -0.056937
     8  C   -0.077984   0.329378
     9  C   -0.381201   0.006238
    10  C   -0.366239   0.211395
    11  C    0.360827   0.068297
    12  C   -0.236647   0.161355
    13  C   -0.066050   0.167867
    14  O   -0.420796   0.126191
    15  O   -0.222946   0.017134
    16  H    0.138666   0.007814
    17  H    0.117768   0.002444
    18  H    0.149326   0.002254
    19  H    0.238755  -0.008701
    20  H    0.092401  -0.000429
    21  H    0.109214   0.006953
    22  H    0.155224   0.001895
    23  H    0.202830  -0.000162
    24  H    0.149817   0.005617
    25  H    0.283430   0.000241
    26  H    0.093702  -0.018901
    27  H    0.123255   0.002805
    28  H    0.170959  -0.008414
    29  H    0.172199  -0.008682
    30  H    0.258435  -0.001443
 Sum of Mulliken charges =  -1.00000   1.00000

 Dipole moment (field-independent basis, Debye):
    X=              3.0300    Y=              1.8275    Z=              1.2794  Tot=              3.7627
 Quadrupole moment (field-independent basis, Debye-Ang):
   XX=           -151.5245   YY=           -104.1341   ZZ=           -100.9387
   XY=             -8.1390   XZ=             13.0171   YZ=             -0.7880

 Summary of Natural Population Analysis:

                                       Natural Population
                Natural  -----------------------------------------------
    Atom  No    Charge         Core      Valence    Rydberg      Total
 -----------------------------------------------------------------------
      C    1   -0.28780      0.99968     2.28389    0.00423     3.28780
      C    2   -0.28974      0.99968     2.28577    0.00429     3.28974
      C    3   -0.33438      0.99962     2.33048    0.00427     3.33438
      C    4    0.34182      0.99971     1.63753    0.02093     2.65818
      O    5   -0.33441      0.99987     3.32761    0.00693     4.33441
      N    6   -0.30990      0.99964     2.79904    0.01122     3.80990
      C    7    0.04001      0.99947     1.94780    0.01272     2.95999
      C    8   -0.03765      0.99953     2.02983    0.00829     3.03765
      C    9   -0.12180      0.99958     2.11304    0.00918     3.12180
      C   10   -0.05301      0.99954     2.04494    0.00854     3.05301
      C   11   -0.04059      0.99946     2.02879    0.01235     3.04059
      C   12   -0.06110      0.99950     2.05366    0.00794     3.06110
      C   13    0.43374      0.99966     1.54319    0.02341     2.56626
      O   14   -0.30034      0.99987     3.29420    0.00628     4.30034
      O   15   -0.35661      0.99988     3.34924    0.00749     4.35661
      H   16    0.09763      0.00000     0.40141    0.00096     0.40237
      H   17    0.08488      0.00000     0.41411    0.00101     0.41512
      H   18    0.10548      0.00000     0.39347    0.00105     0.39452
      H   19    0.11297      0.00000     0.38591    0.00112     0.38703
      H   20    0.08592      0.00000     0.41310    0.00097     0.41408
      H   21    0.09083      0.00000     0.40824    0.00093     0.40917
      H   22    0.10825      0.00000     0.39096    0.00079     0.39175
      H   23    0.11624      0.00000     0.38292    0.00084     0.38376
      H   24    0.10585      0.00000     0.39313    0.00102     0.39415
      H   25    0.19383      0.00000     0.30463    0.00154     0.30617
      H   26    0.08744      0.00000     0.41124    0.00132     0.41256
      H   27    0.09045      0.00000     0.40848    0.00107     0.40955
      H   28    0.10356      0.00000     0.39545    0.00099     0.39644
      H   29    0.10070      0.00000     0.39798    0.00132     0.39930
      H   30    0.22773      0.00000     0.26729    0.00498     0.27227
 =======================================================================
   * Total *   -0.00000     14.99470    40.83734    0.16795    56.00000

 Normal termination of Gaussian 16 at Thu Dec 10 15:35:49 2020.
