 Gaussian 16, Revision A.03,

 -----------------------------------------------------------
 # opt freq B3LYP/6-31G(d) empiricaldispersion=gd3bj scf=xqc
 -----------------------------------------------------------

 -------------------------------
 CID_129983242_JID_2228_neutraal
 -------------------------------
 Symbolic Z-matrix:
 Charge =  0 Multiplicity = 1

 SCF Done:  E(RB3LYP) =  -549.723739732     A.U. after   14 cycles
 SCF Done:  E(RB3LYP) =  -549.728947585     A.U. after   12 cycles
 SCF Done:  E(RB3LYP) =  -549.729599336     A.U. after   11 cycles
 SCF Done:  E(RB3LYP) =  -549.729749101     A.U. after   11 cycles
 SCF Done:  E(RB3LYP) =  -549.729865046     A.U. after   11 cycles
 SCF Done:  E(RB3LYP) =  -549.729941533     A.U. after   11 cycles
 SCF Done:  E(RB3LYP) =  -549.729997076     A.U. after   11 cycles
 SCF Done:  E(RB3LYP) =  -549.730018048     A.U. after   10 cycles
 SCF Done:  E(RB3LYP) =  -549.730024392     A.U. after    9 cycles
 SCF Done:  E(RB3LYP) =  -549.730025051     A.U. after    7 cycles
 Optimization completed.
    -- Stationary point found.
 Normal termination of Gaussian 16 at Wed Dec  9 16:52:57 2020.

 --------------------------------------------------------------------
 #N Geom=AllCheck Guess=TCheck SCRF=Check GenChk RB3LYP/6-31G(d) Freq
 --------------------------------------------------------------------

 Structure from the checkpoint file:  "JID_2228.chk"
 -------------------------------
 CID_129983242_JID_2228_neutraal
 -------------------------------
 Charge =  0 Multiplicity = 1

 SCF Done:  E(RB3LYP) =  -549.730025051     A.U. after    1 cycles

  Exact polarizability: 159.181   0.722 105.930  -4.212   6.034  50.710
 Approx polarizability: 223.496   4.217 182.380  -8.270  14.247  77.147

                      1                      2                      3
                      A                      A                      A
 Frequencies --     36.5413                59.3071               100.8483
 Red. masses --      3.7239                 3.5240                 5.3183
 Frc consts  --      0.0029                 0.0073                 0.0319
 IR Inten    --      1.5149                 3.3684                 1.1243

                      4                      5                      6
                      A                      A                      A
 Frequencies --    112.4508               161.0658               242.0442
 Red. masses --      3.7498                 4.3226                 1.3862
 Frc consts  --      0.0279                 0.0661                 0.0478
 IR Inten    --      3.2206                 1.7378                41.0351

                      7                      8                      9
                      A                      A                      A
 Frequencies --    298.1549               346.5215               387.3120
 Red. masses --      2.4397                 4.3801                 6.0060
 Frc consts  --      0.1278                 0.3099                 0.5308
 IR Inten    --     11.5842                 7.2245                 0.5147

                     10                     11                     12
                      A                      A                      A
 Frequencies --    425.5453               478.7256               484.7809
 Red. masses --      4.8956                 3.8915                 1.6000
 Frc consts  --      0.5223                 0.5255                 0.2215
 IR Inten    --      4.7807                 2.1375                63.0642

                     13                     14                     15
                      A                      A                      A
 Frequencies --    637.6589               641.1641               680.4578
 Red. masses --      3.6572                 3.0157                 3.2783
 Frc consts  --      0.8761                 0.7304                 0.8943
 IR Inten    --      0.9138                 1.6479                14.2308

                     16                     17                     18
                      A                      A                      A
 Frequencies --    696.9580               722.4458               770.1986
 Red. masses --      2.6625                 3.7480                 1.5341
 Frc consts  --      0.7620                 1.1525                 0.5362
 IR Inten    --     27.5005                15.1177                 9.8036

                     19                     20                     21
                      A                      A                      A
 Frequencies --    789.0524               839.5967               867.3800
 Red. masses --      1.3058                 1.3207                 1.3227
 Frc consts  --      0.4790                 0.5485                 0.5863
 IR Inten    --     52.4356                14.9650                81.4743

                     22                     23                     24
                      A                      A                      A
 Frequencies --    880.8904               918.2429               954.9112
 Red. masses --      1.3537                 7.1323                 5.9391
 Frc consts  --      0.6189                 3.5432                 3.1908
 IR Inten    --     22.0800                26.3480                11.2141

                     25                     26                     27
                      A                      A                      A
 Frequencies --    979.4303               989.2696              1020.9090
 Red. masses --      3.0556                 3.0211                 2.7096
 Frc consts  --      1.7270                 1.7420                 1.6639
 IR Inten    --     30.5037                 0.5525                57.0430

                     28                     29                     30
                      A                      A                      A
 Frequencies --   1050.3815              1060.4542              1064.1530
 Red. masses --      1.4437                 2.3689                 2.1800
 Frc consts  --      0.9385                 1.5696                 1.4545
 IR Inten    --     13.2972                19.4784                 1.0100

                     31                     32                     33
                      A                      A                      A
 Frequencies --   1146.2704              1175.8401              1191.2056
 Red. masses --      2.2669                 1.9412                 1.3724
 Frc consts  --      1.7549                 1.5813                 1.1474
 IR Inten    --     20.0960                 9.4290                 1.0698

                     34                     35                     36
                      A                      A                      A
 Frequencies --   1237.2730              1256.3826              1267.1135
 Red. masses --      1.9654                 1.5665                 4.3110
 Frc consts  --      1.7727                 1.4568                 4.0781
 IR Inten    --      8.1565                 4.4403                 5.2388

                     37                     38                     39
                      A                      A                      A
 Frequencies --   1319.4852              1353.1995              1375.2525
 Red. masses --      1.4566                 2.5658                 3.7721
 Frc consts  --      1.4942                 2.7682                 4.2033
 IR Inten    --      3.0780                 0.4335                18.8967

                     40                     41                     42
                      A                      A                      A
 Frequencies --   1409.8417              1440.6933              1444.0893
 Red. masses --      3.4441                 1.9977                 2.4064
 Frc consts  --      4.0334                 2.4431                 2.9567
 IR Inten    --     18.2998                22.6757                42.9609

                     43                     44                     45
                      A                      A                      A
 Frequencies --   1499.3406              1524.7292              1580.1172
 Red. masses --      2.4220                 1.0875                 4.1808
 Frc consts  --      3.2079                 1.4895                 6.1502
 IR Inten    --      6.2891                 0.3697                12.3976

                     46                     47                     48
                      A                      A                      A
 Frequencies --   1638.1298              1679.9233              1690.9612
 Red. masses --      5.9515                 6.1082                 1.1400
 Frc consts  --      9.4097                10.1565                 1.9205
 IR Inten    --      8.0469                14.7427                31.3756

                     49                     50                     51
                      A                      A                      A
 Frequencies --   2972.3782              3060.5264              3258.4446
 Red. masses --      1.0718                 1.0893                 1.0927
 Frc consts  --      5.5792                 6.0115                 6.8352
 IR Inten    --     79.9185                28.3264                11.3821

                     52                     53                     54
                      A                      A                      A
 Frequencies --   3272.0384              3279.6406              3283.2982
 Red. masses --      1.1008                 1.0962                 1.0978
 Frc consts  --      6.9438                 6.9467                 6.9726
 IR Inten    --      2.2136                 0.8222                 0.3539

                     55                     56                     57
                      A                      A                      A
 Frequencies --   3460.6907              3551.6963              3671.5483
 Red. masses --      1.0494                 1.0931                 1.0816
 Frc consts  --      7.4046                 8.1240                 8.5907
 IR Inten    --      6.8621                 1.9845               106.6997

 - Thermochemistry -
 -------------------
 Temperature   298.150 Kelvin.  Pressure   1.00000 Atm.
 Atom     1 has atomic number  6 and mass  12.00000

 Molecular mass:   163.07456 amu.
 Principal axes and moments of inertia in atomic units:
                           1         2         3
     Eigenvalues --   745.199473619.012284247.07951
           X            0.99990  -0.01429  -0.00065
           Y            0.01429   0.99987   0.00730
           Z            0.00054  -0.00730   0.99997
 This molecule is an asymmetric top.
 Rotational symmetry number  1.
 Warning -- assumption of classical behavior for rotation
           may cause significant error
 Rotational temperatures (Kelvin)      0.11623     0.02393     0.02039
 Rotational constants (GHZ):           2.42182     0.49868     0.42494
 Zero-point vibrational energy     441045.0 (Joules/Mol)
                                  105.41228 (Kcal/Mol)
 Warning -- explicit consideration of  12 degrees of freedom as
           vibrations may cause significant error
 Vibrational temperatures:     52.57    85.33   145.10   161.79   231.74
          (Kelvin)            348.25   428.98   498.57   557.26   612.26
                              688.78   697.49   917.45   922.49   979.03
                             1002.77  1039.44  1108.14  1135.27  1207.99
                             1247.97  1267.40  1321.15  1373.90  1409.18
                             1423.34  1468.86  1511.26  1525.76  1531.08
                             1649.23  1691.77  1713.88  1780.16  1807.65
                             1823.09  1898.44  1946.95  1978.68  2028.45
                             2072.84  2077.72  2157.22  2193.75  2273.44
                             2356.90  2417.03  2432.92  4276.59  4403.41
                             4688.17  4707.73  4718.67  4723.93  4979.16
                             5110.10  5282.54

 Zero-point correction=                           0.167985 (Hartree/Particle)
 Thermal correction to Energy=                    0.178366
 Thermal correction to Enthalpy=                  0.179310
 Thermal correction to Gibbs Free Energy=         0.130569
 Sum of electronic and zero-point Energies=           -549.562040
 Sum of electronic and thermal Energies=              -549.551659
 Sum of electronic and thermal Enthalpies=            -549.550715
 Sum of electronic and thermal Free Energies=         -549.599456

                     E (Thermal)             CV                S
                      KCal/Mol        Cal/Mol-Kelvin    Cal/Mol-Kelvin
 Total                  111.926             38.823            102.584
 Electronic               0.000              0.000              0.000
 Translational            0.889              2.981             41.176
 Rotational               0.889              2.981             30.816
 Vibrational            110.149             32.862             30.592
 Vibration     1          0.594              1.982              5.438
 Vibration     2          0.597              1.974              4.480
 Vibration     3          0.604              1.948              3.438
 Vibration     4          0.607              1.939              3.226
 Vibration     5          0.622              1.890              2.537
 Vibration     6          0.658              1.776              1.788
 Vibration     7          0.691              1.677              1.427
 Vibration     8          0.725              1.582              1.182
 Vibration     9          0.756              1.497              1.010
 Vibration    10          0.787              1.415              0.873
 Vibration    11          0.835              1.297              0.714
 Vibration    12          0.841              1.284              0.697

                           ! Non-Optimized Parameters !
 Normal termination of Gaussian 16 at Wed Dec  9 16:57:05 2020.

 ----------------------------------------------------------------------
 # B3LYP/6-311++G(d,p) empiricaldispersion=gd3bj scf=xqc pop=npa geom=c
 heck
 ----------------------------------------------------------------------

 ---------------------------------------
 CID_129983242_JID_2228_Energie_neutraal
 ---------------------------------------
 Structure from the checkpoint file:  "JID_2228.chk"
 Charge =  0 Multiplicity = 1

 SCF Done:  E(RB3LYP) =  -549.889353333     A.U. after   16 cycles
 Normal termination of Gaussian 16 at Wed Dec  9 16:59:08 2020.

 ----------------------------------------------------------------------
 # B3LYP/6-311++G(d,p) empiricaldispersion=gd3bj scf=xqc pop=npa geom=c
 heck
 ----------------------------------------------------------------------

 -------------------------------------
 CID_129983242_JID_2228_Energie_kation
 -------------------------------------
 Structure from the checkpoint file:  "JID_2228.chk"
 Charge =  1 Multiplicity = 2

 SCF Done:  E(UB3LYP) =  -549.616313406     A.U. after   23 cycles
 Normal termination of Gaussian 16 at Wed Dec  9 17:03:02 2020.
 Gaussian 16:  ES64L-G16RevA.03 25-Dec-2016

 ----------------------------------------------------------------------
 # B3LYP/6-311++G(d,p) empiricaldispersion=gd3bj scf=xqc pop=npa geom=c
 heck
 ----------------------------------------------------------------------

 ------------------------------------
 CID_129983242_JID_2228_Energie_anion
 ------------------------------------
 Structure from the checkpoint file:  "JID_2228.chk"
 Charge = -1 Multiplicity = 2

                         Standard orientation:
 ---------------------------------------------------------------------
 Center     Atomic      Atomic             Coordinates (Angstroms)
 Number     Number       Type             X           Y           Z
 ---------------------------------------------------------------------
      1          6           0        1.850114    1.645335   -0.005357
      2          6           0        2.051368    0.315349   -0.240480
      3          8           0        0.844779   -0.332388   -0.255130
      4          6           0       -0.134412    0.598637   -0.026771
      5          6           0        0.438568    1.833324    0.132257
      6          6           0       -1.491828    0.107761   -0.002891
      7          6           0       -2.666811    0.829994    0.162114
      8          7           0       -3.676996   -0.075434    0.114210
      9          7           0       -3.253492   -1.345376   -0.071540
     10          6           0       -1.929687   -1.238776   -0.142913
     11          6           0        3.275900   -0.504704   -0.451703
     12          7           0        3.489179   -1.446921    0.657326
     13          1           0        2.619572    2.402378    0.059661
     14          1           0       -0.082523    2.760310    0.326338
     15          1           0       -2.846710    1.885484    0.303465
     16          1           0       -4.666457    0.099699    0.198973
     17          1           0       -1.317379   -2.117149   -0.288904
     18          1           0        3.166260   -1.099392   -1.367710
     19          1           0        4.107789    0.199881   -0.625837
     20          1           0        4.327459   -1.997328    0.476271
     21          1           0        3.663646   -0.922185    1.513285
 ---------------------------------------------------------------------

 SCF Done:  E(UB3LYP) =  -549.879308329     A.U. after   33 cycles
 SCF Done:  E(UB3LYP) =  -549.879308329     a.u. after    1 cycles

 The electronic state is 2-A.
 Alpha  occ. eigenvalues --  -19.08099 -14.28872 -14.23578 -14.19523 -10.12946
 Alpha  occ. eigenvalues --  -10.12149 -10.11176 -10.10547 -10.09312 -10.08344
 Alpha  occ. eigenvalues --  -10.07070 -10.06869  -1.00799  -0.95100  -0.78686
 Alpha  occ. eigenvalues --   -0.72419  -0.71180  -0.69846  -0.65056  -0.57549
 Alpha  occ. eigenvalues --   -0.52591  -0.50351  -0.48769  -0.46093  -0.44701
 Alpha  occ. eigenvalues --   -0.41132  -0.37865  -0.36570  -0.35178  -0.35085
 Alpha  occ. eigenvalues --   -0.33815  -0.32446  -0.31144  -0.30874  -0.29962
 Alpha  occ. eigenvalues --   -0.28366  -0.26474  -0.20168  -0.19521  -0.18103
 Alpha  occ. eigenvalues --   -0.16549  -0.14858  -0.10358   0.04050
 Alpha virt. eigenvalues --    0.05340   0.07322   0.07802   0.08425   0.08970
 Alpha virt. eigenvalues --    0.09858   0.10411   0.10919   0.11934   0.12151
 Alpha virt. eigenvalues --    0.13178   0.14292   0.14908   0.15584   0.15766

  Beta  occ. eigenvalues --  -19.08069 -14.28819 -14.23583 -14.19476 -10.12916
  Beta  occ. eigenvalues --  -10.12140 -10.11135 -10.10523 -10.09302 -10.08348
  Beta  occ. eigenvalues --  -10.07053 -10.06867  -1.00748  -0.95055  -0.78602
  Beta  occ. eigenvalues --   -0.72353  -0.71133  -0.69814  -0.64988  -0.57455
  Beta  occ. eigenvalues --   -0.52531  -0.50309  -0.48709  -0.46030  -0.44643
  Beta  occ. eigenvalues --   -0.41069  -0.37797  -0.36480  -0.35110  -0.35025
  Beta  occ. eigenvalues --   -0.33744  -0.32402  -0.31099  -0.30831  -0.29925
  Beta  occ. eigenvalues --   -0.28332  -0.26439  -0.20161  -0.19426  -0.18032
  Beta  occ. eigenvalues --   -0.16494  -0.14808  -0.10266
  Beta virt. eigenvalues --    0.06426   0.07248   0.07796   0.08333   0.09152
  Beta virt. eigenvalues --    0.09439   0.10223   0.10477   0.11499   0.12146
  Beta virt. eigenvalues --    0.12796   0.13190   0.14257   0.14893   0.15654

 Mulliken charges and spin densities:
               1          2
     1  C   -0.065279  -0.065467
     2  C   -0.280042   0.605596
     3  O   -0.012826   0.036536
     4  C    0.334022  -0.434160
     5  C   -0.740701   0.001906
     6  C    0.974133  -1.141588
     7  C    0.597727  -0.080397
     8  N    0.253596  -0.289270
     9  N   -0.270329   0.101093
    10  C   -0.662634   0.329712
    11  C    1.457126  -2.060521
    12  N   -0.362705   0.032700
    13  H   -0.361329   0.523902
    14  H   -0.074139   0.210882
    15  H   -1.053876   1.235186
    16  H   -0.345770   0.687718
    17  H    0.193379  -0.014479
    18  H   -0.139596   0.294789
    19  H   -0.358289   0.508944
    20  H   -0.146257   0.376156
    21  H    0.063788   0.140763
 Sum of Mulliken charges =  -1.00000   1.00000

 Dipole moment (field-independent basis, Debye):
    X=              1.5802    Y=             -0.0195    Z=             -0.4346  Tot=              1.6390
 Quadrupole moment (field-independent basis, Debye-Ang):
   XX=           -165.5795   YY=           -106.6753   ZZ=            -90.8187
   XY=             10.6389   XZ=              1.2646   YZ=              1.7107

 Summary of Natural Population Analysis:

                                       Natural Population
                Natural  -----------------------------------------------
    Atom  No    Charge         Core      Valence    Rydberg      Total
 -----------------------------------------------------------------------
      C    1   -0.14554      0.99950     2.13733    0.00871     3.14554
      C    2    0.14736      0.99946     1.83832    0.01486     2.85264
      O    3   -0.23109      0.99985     3.22360    0.00764     4.23109
      C    4    0.15260      0.99944     1.83463    0.01333     2.84740
      C    5   -0.14665      0.99952     2.13919    0.00794     3.14665
      C    6   -0.10273      0.99951     2.09284    0.01038     3.10273
      C    7    0.00637      0.99955     1.98232    0.01176     2.99363
      N    8   -0.16354      0.99971     2.64940    0.01443     3.66354
      N    9   -0.15692      0.99974     2.64325    0.01393     3.65692
      C   10   -0.00031      0.99960     1.98740    0.01331     3.00031
      C   11   -0.11127      0.99959     2.09909    0.01259     3.11127
      N   12   -0.41597      0.99977     2.90527    0.01092     3.91597
      H   13    0.10767      0.00000     0.39141    0.00092     0.39233
      H   14    0.10737      0.00000     0.39165    0.00098     0.39263
      H   15    0.10927      0.00000     0.38745    0.00329     0.39073
      H   16    0.20517      0.00000     0.28411    0.01072     0.29483
      H   17    0.10337      0.00000     0.39563    0.00100     0.39663
      H   18    0.09791      0.00000     0.40064    0.00145     0.40209
      H   19    0.08907      0.00000     0.40838    0.00256     0.41093
      H   20    0.17513      0.00000     0.32132    0.00355     0.32487
      H   21    0.17273      0.00000     0.32518    0.00209     0.32727
 =======================================================================
   * Total *   -0.00000     11.99524    30.83843    0.16634    43.00000

 Normal termination of Gaussian 16 at Wed Dec  9 17:09:15 2020.
