 Gaussian 16, Revision A.03,

 -----------------------------------------------------------
 # opt freq B3LYP/6-31G(d) empiricaldispersion=gd3bj scf=xqc
 -----------------------------------------------------------

 -------------------------------
 CID_104693057_JID_7420_neutraal
 -------------------------------
 Symbolic Z-matrix:
 Charge =  0 Multiplicity = 1

 SCF Done:  E(RB3LYP) =  -711.663218666     A.U. after   14 cycles
 SCF Done:  E(RB3LYP) =  -711.669715115     A.U. after   12 cycles
 SCF Done:  E(RB3LYP) =  -711.671136148     A.U. after   12 cycles
 SCF Done:  E(RB3LYP) =  -711.672637503     A.U. after   12 cycles
 SCF Done:  E(RB3LYP) =  -711.673046569     A.U. after   11 cycles
 SCF Done:  E(RB3LYP) =  -711.673165817     A.U. after   11 cycles
 SCF Done:  E(RB3LYP) =  -711.673208625     A.U. after   10 cycles
 SCF Done:  E(RB3LYP) =  -711.673235866     A.U. after   10 cycles
 SCF Done:  E(RB3LYP) =  -711.673245849     A.U. after    9 cycles
 SCF Done:  E(RB3LYP) =  -711.673249418     A.U. after    8 cycles
 SCF Done:  E(RB3LYP) =  -711.673251465     A.U. after    8 cycles
 SCF Done:  E(RB3LYP) =  -711.673252209     A.U. after    7 cycles
 SCF Done:  E(RB3LYP) =  -711.673252647     A.U. after    7 cycles
 SCF Done:  E(RB3LYP) =  -711.673252728     A.U. after    7 cycles
 SCF Done:  E(RB3LYP) =  -711.673252779     A.U. after    7 cycles
 Optimization completed.
    -- Stationary point found.
 Normal termination of Gaussian 16 at Sun Dec 13 16:10:38 2020.

 --------------------------------------------------------------------
 #N Geom=AllCheck Guess=TCheck SCRF=Check GenChk RB3LYP/6-31G(d) Freq
 --------------------------------------------------------------------

 Structure from the checkpoint file:  "JID_7420.chk"
 -------------------------------
 CID_104693057_JID_7420_neutraal
 -------------------------------
 Charge =  0 Multiplicity = 1

 SCF Done:  E(RB3LYP) =  -711.673252779     A.U. after    1 cycles

  Exact polarizability: 228.065  -2.424 149.664  -1.000  19.483 132.355
 Approx polarizability: 303.328  -6.152 216.620   5.215  45.133 208.925

                      1                      2                      3
                      A                      A                      A
 Frequencies --     32.3116                62.7963                73.4471
 Red. masses --      3.7414                 2.4834                 2.2042
 Frc consts  --      0.0023                 0.0058                 0.0070
 IR Inten    --      0.3314                 0.9664                 0.5558

                      4                      5                      6
                      A                      A                      A
 Frequencies --     93.7962               110.1645               117.0797
 Red. masses --      2.9040                 2.0182                 3.6967
 Frc consts  --      0.0151                 0.0144                 0.0299
 IR Inten    --      3.1906                 0.2509                 0.9303

                      7                      8                      9
                      A                      A                      A
 Frequencies --    140.4630               150.6533               187.8729
 Red. masses --      1.4408                 2.4525                 2.8037
 Frc consts  --      0.0167                 0.0328                 0.0583
 IR Inten    --      2.1560                 0.9799                 0.2977

                     10                     11                     12
                      A                      A                      A
 Frequencies --    215.8923               224.5144               240.8860
 Red. masses --      2.3032                 2.1370                 2.4645
 Frc consts  --      0.0632                 0.0635                 0.0843
 IR Inten    --      5.1980                 0.2395                 0.5584

                     13                     14                     15
                      A                      A                      A
 Frequencies --    253.4238               265.0097               284.2444
 Red. masses --      2.3214                 2.5367                 2.9562
 Frc consts  --      0.0878                 0.1050                 0.1407
 IR Inten    --      5.0087                 1.5461                 0.3951

                     16                     17                     18
                      A                      A                      A
 Frequencies --    325.5483               346.3170               383.3183
 Red. masses --      2.1316                 3.3789                 2.6692
 Frc consts  --      0.1331                 0.2388                 0.2311
 IR Inten    --      1.5051                 3.8881                 3.2612

                     19                     20                     21
                      A                      A                      A
 Frequencies --    401.7674               430.5648               454.6422
 Red. masses --      2.9844                 1.7200                 3.2588
 Frc consts  --      0.2838                 0.1879                 0.3969
 IR Inten    --      4.6912               105.4690                 8.1845

                     22                     23                     24
                      A                      A                      A
 Frequencies --    469.6272               486.2550               514.3086
 Red. masses --      2.6853                 2.9353                 1.7712
 Frc consts  --      0.3489                 0.4089                 0.2760
 IR Inten    --     10.0481                31.7860                 0.3424

                     25                     26                     27
                      A                      A                      A
 Frequencies --    568.4007               602.1131               667.9424
 Red. masses --      3.8782                 3.1398                 3.1234
 Frc consts  --      0.7382                 0.6707                 0.8210
 IR Inten    --      3.0467                 4.2528                14.9999

                     28                     29                     30
                      A                      A                      A
 Frequencies --    678.4961               747.2696               750.1337
 Red. masses --      5.4613                 2.9950                 2.3904
 Frc consts  --      1.4813                 0.9854                 0.7925
 IR Inten    --      9.1902                 0.9118                 1.7370

                     31                     32                     33
                      A                      A                      A
 Frequencies --    771.6910               799.0017               808.2870
 Red. masses --      1.5180                 2.1695                 1.2862
 Frc consts  --      0.5326                 0.8160                 0.4951
 IR Inten    --      0.0413                 7.0852                10.9586

                     34                     35                     36
                      A                      A                      A
 Frequencies --    817.4704               829.6037               863.1867
 Red. masses --      2.1223                 1.5149                 2.1768
 Frc consts  --      0.8356                 0.6143                 0.9556
 IR Inten    --     31.6310                10.6360                 3.2634

                     37                     38                     39
                      A                      A                      A
 Frequencies --    888.1697               900.9122               959.7077
 Red. masses --      1.7219                 2.5624                 2.0421
 Frc consts  --      0.8003                 1.2254                 1.1082
 IR Inten    --      1.1931                 2.5170                 4.4898

                     40                     41                     42
                      A                      A                      A
 Frequencies --    962.3874               970.7436               982.4852
 Red. masses --      2.0409                 1.3722                 1.9191
 Frc consts  --      1.1137                 0.7619                 1.0914
 IR Inten    --      3.6827                 0.5671                 0.3995

                     43                     44                     45
                      A                      A                      A
 Frequencies --   1000.4627              1003.8426              1046.6157
 Red. masses --      2.3611                 3.7905                 2.1810
 Frc consts  --      1.3924                 2.2505                 1.4076
 IR Inten    --      3.9085                14.3653                 7.7854

                     46                     47                     48
                      A                      A                      A
 Frequencies --   1052.3581              1074.0026              1103.4646
 Red. masses --      2.4433                 1.6100                 1.8174
 Frc consts  --      1.5942                 1.0942                 1.3038
 IR Inten    --      2.2698                 1.7970                 5.8630

                     49                     50                     51
                      A                      A                      A
 Frequencies --   1112.6794              1117.3101              1139.5242
 Red. masses --      2.5000                 1.8161                 2.0748
 Frc consts  --      1.8236                 1.3358                 1.5873
 IR Inten    --     11.9136                 6.8186                 9.7878

                     52                     53                     54
                      A                      A                      A
 Frequencies --   1150.9945              1160.6472              1169.4221
 Red. masses --      1.9497                 1.3200                 2.0996
 Frc consts  --      1.5218                 1.0477                 1.6917
 IR Inten    --     14.4103                30.4031                13.1511

                     55                     56                     57
                      A                      A                      A
 Frequencies --   1188.7127              1206.4792              1217.3786
 Red. masses --      1.5351                 1.5502                 2.7732
 Frc consts  --      1.2780                 1.3295                 2.4215
 IR Inten    --     10.1718                43.3825                38.9863

                     58                     59                     60
                      A                      A                      A
 Frequencies --   1244.8773              1278.6704              1292.0933
 Red. masses --      1.2963                 1.5141                 1.3696
 Frc consts  --      1.1837                 1.4585                 1.3472
 IR Inten    --     36.3970                86.4132                37.6320

                     61                     62                     63
                      A                      A                      A
 Frequencies --   1304.2014              1316.4322              1322.3563
 Red. masses --      1.3306                 1.6287                 1.3733
 Frc consts  --      1.3335                 1.6630                 1.4148
 IR Inten    --     50.3445                76.9018                 3.9030

                     64                     65                     66
                      A                      A                      A
 Frequencies --   1338.6499              1353.6526              1360.8039
 Red. masses --      1.6531                 1.5198                 1.2553
 Frc consts  --      1.7454                 1.6408                 1.3696
 IR Inten    --     52.4472                 3.0973                12.4583

                     67                     68                     69
                      A                      A                      A
 Frequencies --   1376.9879              1389.0039              1406.1509
 Red. masses --      2.1919                 1.3291                 1.4854
 Frc consts  --      2.4486                 1.5109                 1.7305
 IR Inten    --     13.4907                13.3751                 3.6531

                     70                     71                     72
                      A                      A                      A
 Frequencies --   1411.3808              1412.1109              1415.0014
 Red. masses --      1.5444                 1.4371                 1.4352
 Frc consts  --      1.8126                 1.6884                 1.6930
 IR Inten    --      9.9224                11.3914                 4.3061

                     73                     74                     75
                      A                      A                      A
 Frequencies --   1434.8148              1440.7146              1443.5089
 Red. masses --      1.3684                 1.8099                 1.2595
 Frc consts  --      1.6597                 2.2134                 1.5463
 IR Inten    --     13.9748                11.9667                 1.8140

                     76                     77                     78
                      A                      A                      A
 Frequencies --   1469.7644              1481.7678              1506.7358
 Red. masses --      1.2995                 1.4750                 1.0943
 Frc consts  --      1.6540                 1.9082                 1.4637
 IR Inten    --     22.0913                31.0712                48.2686

                     79                     80                     81
                      A                      A                      A
 Frequencies --   1507.7805              1514.2724              1515.7213
 Red. masses --      1.0917                 1.0829                 1.0741
 Frc consts  --      1.4623                 1.4630                 1.4539
 IR Inten    --      1.1988                 4.2516                 0.2491

                     82                     83                     84
                      A                      A                      A
 Frequencies --   1522.5929              1531.8227              1533.7087
 Red. masses --      1.0972                 1.0724                 1.0645
 Frc consts  --      1.4986                 1.4826                 1.4754
 IR Inten    --      5.0247                18.7917                 9.4953

                     85                     86                     87
                      A                      A                      A
 Frequencies --   1536.7426              1537.6634              1540.3685
 Red. masses --      1.0729                 1.2589                 1.1255
 Frc consts  --      1.4928                 1.7537                 1.5734
 IR Inten    --      6.0588                 3.1952                29.3583

                     88                     89                     90
                      A                      A                      A
 Frequencies --   1558.3789              1573.9371              1603.9817
 Red. masses --      1.9690                 2.0025                 5.4525
 Frc consts  --      2.8173                 2.9229                 8.2650
 IR Inten    --    123.2872                81.8738               100.2678

                     91                     92                     93
                      A                      A                      A
 Frequencies --   1663.4251              2972.4536              3018.0635
 Red. masses --      5.0968                 1.0737                 1.0536
 Frc consts  --      8.3091                 5.5892                 5.6541
 IR Inten    --    694.7557                68.9005               109.4451

                     94                     95                     96
                      A                      A                      A
 Frequencies --   3018.3219              3037.5756              3038.1008
 Red. masses --      1.0662                 1.0623                 1.0732
 Frc consts  --      5.7229                 5.7750                 5.8365
 IR Inten    --     10.2554                16.7575                 2.2666

                     97                     98                     99
                      A                      A                      A
 Frequencies --   3044.3744              3048.1525              3050.7550
 Red. masses --      1.0423                 1.0701                 1.0636
 Frc consts  --      5.6918                 5.8577                 5.8325
 IR Inten    --      8.3081                51.8586                42.2791

                    100                    101                    102
                      A                      A                      A
 Frequencies --   3066.9884              3067.7581              3073.4274
 Red. masses --      1.0937                 1.0677                 1.0969
 Frc consts  --      6.0613                 5.9205                 6.1045
 IR Inten    --     59.9093                13.1781                24.8950

                    103                    104                    105
                      A                      A                      A
 Frequencies --   3079.2685              3099.4114              3101.8974
 Red. masses --      1.1023                 1.0984                 1.0941
 Frc consts  --      6.1579                 6.2166                 6.2027
 IR Inten    --     57.3558                15.7591                 5.7961

                    106                    107                    108
                      A                      A                      A
 Frequencies --   3103.6612              3108.3767              3118.5211
 Red. masses --      1.0961                 1.0838                 1.1012
 Frc consts  --      6.2210                 6.1695                 6.3097
 IR Inten    --     90.2371                46.4951                37.3301

                    109                    110                    111
                      A                      A                      A
 Frequencies --   3126.6031              3157.0113              3159.2973
 Red. masses --      1.1006                 1.0901                 1.1016
 Frc consts  --      6.3388                 6.4014                 6.4785
 IR Inten    --     44.8879                48.3635                 6.9434

                    112                    113                    114
                      A                      A                      A
 Frequencies --   3207.4685              3262.4682              3612.8894
 Red. masses --      1.0893                 1.0906                 1.0761
 Frc consts  --      6.6028                 6.8390                 8.2757
 IR Inten    --     11.9256                10.7896                13.7136

 - Thermochemistry -
 -------------------
 Temperature   298.150 Kelvin.  Pressure   1.00000 Atm.
 Atom     1 has atomic number  6 and mass  12.00000

 Molecular mass:   233.18920 amu.
 Principal axes and moments of inertia in atomic units:
                           1         2         3
     Eigenvalues --  2274.512166791.880427761.58035
           X            0.99997  -0.00670  -0.00407
           Y            0.00668   0.99997  -0.00484
           Z            0.00410   0.00481   0.99998
 This molecule is an asymmetric top.
 Rotational symmetry number  1.
 Warning -- assumption of classical behavior for rotation
           may cause significant error
 Rotational temperatures (Kelvin)      0.03808     0.01275     0.01116
 Rotational constants (GHZ):           0.79346     0.26572     0.23252
 Zero-point vibrational energy     946782.8 (Joules/Mol)
                                  226.28652 (Kcal/Mol)
 Warning -- explicit consideration of  26 degrees of freedom as
           vibrations may cause significant error
 Vibrational temperatures:     46.49    90.35   105.67   134.95   158.50
          (Kelvin)            168.45   202.09   216.76   270.31   310.62
                              323.03   346.58   364.62   381.29   408.96
                              468.39   498.27   551.51   578.05   619.49
                              654.13   675.69   699.61   739.98   817.80
                              866.31   961.02   976.20  1075.15  1079.28
                             1110.29  1149.59  1162.94  1176.16  1193.61
                             1241.93  1277.88  1296.21  1380.81  1384.66
                             1396.68  1413.58  1439.44  1444.31  1505.85
                             1514.11  1545.25  1587.64  1600.90  1607.56
                             1639.52  1656.02  1669.91  1682.54  1710.29
                             1735.85  1751.54  1791.10  1839.72  1859.03
                             1876.45  1894.05  1902.58  1926.02  1947.60
                             1957.89  1981.18  1998.47  2023.14  2030.66
                             2031.71  2035.87  2064.38  2072.87  2076.89
                             2114.66  2131.93  2167.86  2169.36  2178.70
                             2180.78  2190.67  2203.95  2206.66  2211.03
                             2212.35  2216.25  2242.16  2264.54  2307.77
                             2393.30  4276.70  4342.32  4342.69  4370.39
                             4371.15  4380.18  4385.61  4389.36  4412.71
                             4413.82  4421.98  4430.38  4459.36  4462.94
                             4465.48  4472.26  4486.86  4498.48  4542.24
                             4545.52  4614.83  4693.96  5198.14

 Zero-point correction=                           0.360611 (Hartree/Particle)
 Thermal correction to Energy=                    0.377618
 Thermal correction to Enthalpy=                  0.378562
 Thermal correction to Gibbs Free Energy=         0.316135
 Sum of electronic and zero-point Energies=           -711.312642
 Sum of electronic and thermal Energies=              -711.295635
 Sum of electronic and thermal Enthalpies=            -711.294691
 Sum of electronic and thermal Free Energies=         -711.357118

                     E (Thermal)             CV                S
                      KCal/Mol        Cal/Mol-Kelvin    Cal/Mol-Kelvin
 Total                  236.959             65.859            131.389
 Electronic               0.000              0.000              0.000
 Translational            0.889              2.981             42.242
 Rotational               0.889              2.981             33.150
 Vibrational            235.181             59.898             55.997
 Vibration     1          0.594              1.983              5.682
 Vibration     2          0.597              1.972              4.367
 Vibration     3          0.599              1.967              4.059
 Vibration     4          0.603              1.954              3.579
 Vibration     5          0.606              1.941              3.266
 Vibration     6          0.608              1.935              3.148
 Vibration     7          0.615              1.913              2.798
 Vibration     8          0.618              1.902              2.664
 Vibration     9          0.633              1.857              2.249
 Vibration    10          0.645              1.817              1.993
 Vibration    11          0.649              1.804              1.922
 Vibration    12          0.658              1.778              1.796
 Vibration    13          0.665              1.757              1.707
 Vibration    14          0.671              1.737              1.629
 Vibration    15          0.683              1.703              1.508
 Vibration    16          0.710              1.624              1.282
 Vibration    17          0.724              1.583              1.183
 Vibration    18          0.753              1.506              1.026
 Vibration    19          0.767              1.466              0.956
 Vibration    20          0.792              1.404              0.857
 Vibration    21          0.813              1.351              0.782
 Vibration    22          0.827              1.317              0.739
 Vibration    23          0.842              1.281              0.693
 Vibration    24          0.869              1.218              0.623
 Vibration    25          0.924              1.100              0.507
 Vibration    26          0.960              1.027              0.446

                           ! Non-Optimized Parameters !
 Normal termination of Gaussian 16 at Sun Dec 13 16:26:32 2020.

 ----------------------------------------------------------------------
 # B3LYP/6-311++G(d,p) empiricaldispersion=gd3bj scf=xqc pop=npa geom=c
 heck
 ----------------------------------------------------------------------

 ---------------------------------------
 CID_104693057_JID_7420_Energie_neutraal
 ---------------------------------------
 Structure from the checkpoint file:  "JID_7420.chk"
 Charge =  0 Multiplicity = 1

 SCF Done:  E(RB3LYP) =  -711.864552114     A.U. after   15 cycles
 Normal termination of Gaussian 16 at Sun Dec 13 16:35:42 2020.

 ----------------------------------------------------------------------
 # B3LYP/6-311++G(d,p) empiricaldispersion=gd3bj scf=xqc pop=npa geom=c
 heck
 ----------------------------------------------------------------------

 -------------------------------------
 CID_104693057_JID_7420_Energie_kation
 -------------------------------------
 Structure from the checkpoint file:  "JID_7420.chk"
 Charge =  1 Multiplicity = 2

 SCF Done:  E(UB3LYP) =  -711.603895644     A.U. after   27 cycles
 Normal termination of Gaussian 16 at Sun Dec 13 16:57:48 2020.
 Gaussian 16:  ES64L-G16RevA.03 25-Dec-2016

 ----------------------------------------------------------------------
 # B3LYP/6-311++G(d,p) empiricaldispersion=gd3bj scf=xqc pop=npa geom=c
 heck
 ----------------------------------------------------------------------

 ------------------------------------
 CID_104693057_JID_7420_Energie_anion
 ------------------------------------
 Structure from the checkpoint file:  "JID_7420.chk"
 Charge = -1 Multiplicity = 2

                         Standard orientation:
 ---------------------------------------------------------------------
 Center     Atomic      Atomic             Coordinates (Angstroms)
 Number     Number       Type             X           Y           Z
 ---------------------------------------------------------------------
      1          6           0       -2.872111    2.762772   -1.266369
      2          6           0       -1.618253    2.036885   -0.769374
      3          6           0       -1.919786    0.586335   -0.341200
      4          6           0       -2.641238    0.465640    1.017571
      5          6           0       -3.440147   -0.835357    1.168223
      6          6           0       -2.674246   -2.131029    0.851714
      7          6           0       -2.289656   -2.282382   -0.631157
      8          6           0       -0.952808   -1.622307   -1.008268
      9          7           0       -0.752960   -0.308968   -0.404991
     10          6           0        0.514293    0.061128    0.013740
     11          6           0        1.660257   -0.555604   -0.510327
     12          6           0        2.934024   -0.189205   -0.036895
     13          7           0        3.136076    0.754809    0.895186
     14          6           0        2.033301    1.340856    1.383189
     15          6           0        0.734210    1.054146    1.003858
     16          7           0        4.057025   -0.830958   -0.526683
     17          6           0        5.380815   -0.277946   -0.298921
     18          1           0       -3.307954    2.254071   -2.134965
     19          1           0       -2.634608    3.789404   -1.564987
     20          1           0       -3.645744    2.816820   -0.491783
     21          1           0       -0.869278    2.008370   -1.569202
     22          1           0       -1.171625    2.607475    0.049154
     23          1           0       -2.604370    0.207222   -1.109465
     24          1           0       -3.324160    1.314135    1.152107
     25          1           0       -1.894848    0.531923    1.816207
     26          1           0       -3.829395   -0.891895    2.192784
     27          1           0       -4.320302   -0.789779    0.509657
     28          1           0       -1.772425   -2.196908    1.475179
     29          1           0       -3.312197   -2.976852    1.136249
     30          1           0       -2.194518   -3.344903   -0.888081
     31          1           0       -3.105968   -1.900614   -1.257404
     32          1           0       -0.150533   -2.266794   -0.639066
     33          1           0       -0.858069   -1.590141   -2.107279
     34          1           0        1.585175   -1.292975   -1.301432
     35          1           0        2.206747    2.097451    2.147885
     36          1           0       -0.084294    1.563032    1.490930
     37          1           0        3.924544   -1.298806   -1.412189
     38          1           0        6.120994   -0.969304   -0.711836
     39          1           0        5.518712    0.713565   -0.755631
     40          1           0        5.551196   -0.172276    0.773885
 ---------------------------------------------------------------------

 SCF Done:  E(UB3LYP) =  -711.852534023     A.U. after   32 cycles

 The electronic state is 2-A.
 Alpha  occ. eigenvalues --  -14.23204 -14.22671 -14.19138 -10.13980 -10.12684
 Alpha  occ. eigenvalues --  -10.11591 -10.10461 -10.10398 -10.10226 -10.07685
 Alpha  occ. eigenvalues --  -10.07459 -10.07437 -10.07410 -10.07353 -10.07135
 Alpha  occ. eigenvalues --  -10.06566 -10.06456  -0.86908  -0.85417  -0.79994
 Alpha  occ. eigenvalues --   -0.72417  -0.70475  -0.68415  -0.65763  -0.65319
 Alpha  occ. eigenvalues --   -0.60243  -0.58603  -0.57738  -0.53853  -0.51871
 Alpha  occ. eigenvalues --   -0.51630  -0.48054  -0.46498  -0.43769  -0.41081
 Alpha  occ. eigenvalues --   -0.39334  -0.38453  -0.38179  -0.36802  -0.36522
 Alpha  occ. eigenvalues --   -0.35205  -0.34595  -0.34176  -0.33348  -0.32905
 Alpha  occ. eigenvalues --   -0.32534  -0.31340  -0.29849  -0.29372  -0.29037
 Alpha  occ. eigenvalues --   -0.28744  -0.28131  -0.26846  -0.25871  -0.24573
 Alpha  occ. eigenvalues --   -0.24181  -0.23909  -0.23046  -0.22072  -0.21355
 Alpha  occ. eigenvalues --   -0.19556  -0.16339  -0.11359  -0.11127   0.04011
 Alpha virt. eigenvalues --    0.05596   0.06323   0.06820   0.07587   0.07930
 Alpha virt. eigenvalues --    0.08260   0.08556   0.09176   0.09597   0.09754
 Alpha virt. eigenvalues --    0.10005   0.10270   0.10861   0.11281   0.11328

  Beta  occ. eigenvalues --  -14.23204 -14.22646 -14.19133 -10.13977 -10.12683
  Beta  occ. eigenvalues --  -10.11580 -10.10443 -10.10398 -10.10213 -10.07678
  Beta  occ. eigenvalues --  -10.07446 -10.07424 -10.07387 -10.07341 -10.07104
  Beta  occ. eigenvalues --  -10.06563 -10.06446  -0.86890  -0.85403  -0.79970
  Beta  occ. eigenvalues --   -0.72395  -0.70447  -0.68396  -0.65737  -0.65294
  Beta  occ. eigenvalues --   -0.60212  -0.58570  -0.57696  -0.53825  -0.51820
  Beta  occ. eigenvalues --   -0.51594  -0.48007  -0.46459  -0.43736  -0.41052
  Beta  occ. eigenvalues --   -0.39308  -0.38425  -0.38143  -0.36779  -0.36496
  Beta  occ. eigenvalues --   -0.35186  -0.34564  -0.34152  -0.33324  -0.32876
  Beta  occ. eigenvalues --   -0.32509  -0.31301  -0.29823  -0.29347  -0.29009
  Beta  occ. eigenvalues --   -0.28718  -0.28102  -0.26806  -0.25843  -0.24547
  Beta  occ. eigenvalues --   -0.24150  -0.23874  -0.23018  -0.22039  -0.21331
  Beta  occ. eigenvalues --   -0.19539  -0.16331  -0.11333  -0.11113
  Beta virt. eigenvalues --    0.06073   0.06447   0.06921   0.07307   0.07934
  Beta virt. eigenvalues --    0.08252   0.08490   0.08900   0.09524   0.09836
  Beta virt. eigenvalues --    0.10021   0.10210   0.10435   0.11010   0.11467

 Mulliken charges and spin densities:
               1          2
     1  C    0.711718  -1.405728
     2  C   -0.324150   0.295058
     3  C   -0.543698   0.399722
     4  C   -0.325494   0.137085
     5  C    0.472537  -1.069234
     6  C   -0.349386   0.163403
     7  C    0.535302  -1.017804
     8  C    0.224006  -0.383040
     9  N    0.375374   0.121620
    10  C    0.419265  -1.146758
    11  C   -0.151479  -0.328466
    12  C   -0.477064   0.349754
    13  N   -0.151575  -0.022107
    14  C   -0.454345   0.100620
    15  C    0.220949   0.415897
    16  N   -0.138943   0.065668
    17  C    0.008593  -0.375822
    18  H   -0.424239   0.574518
    19  H   -0.114908   0.260234
    20  H   -0.055164   0.186042
    21  H    0.060583   0.111019
    22  H    0.108540   0.004362
    23  H    0.789178  -0.599475
    24  H   -0.027650   0.179077
    25  H    0.157518  -0.063316
    26  H   -0.102181   0.261875
    27  H   -0.130523   0.271379
    28  H    0.127698  -0.003693
    29  H   -0.213237   0.404112
    30  H   -0.398925   0.589706
    31  H   -0.341799   0.500590
    32  H    0.087932   0.051982
    33  H   -0.318568   0.496970
    34  H   -0.312367   0.494768
    35  H    0.128328   0.028822
    36  H    0.051831   0.127675
    37  H   -0.156088   0.407283
    38  H   -0.161527   0.289850
    39  H    0.066486   0.083537
    40  H    0.127469   0.042815
 Sum of Mulliken charges =  -1.00000   1.00000

 Dipole moment (field-independent basis, Debye):
    X=              1.7185    Y=              3.0306    Z=              3.9249  Tot=              5.2481
 Quadrupole moment (field-independent basis, Debye-Ang):
   XX=           -195.9893   YY=           -157.1370   ZZ=           -146.3047
   XY=              1.2749   XZ=             -2.6908   YZ=             -2.2402

 Summary of Natural Population Analysis:

                                       Natural Population
                Natural  -----------------------------------------------
    Atom  No    Charge         Core      Valence    Rydberg      Total
 -----------------------------------------------------------------------
      C    1   -0.28419      0.99966     2.27985    0.00467     3.28419
      C    2   -0.19347      0.99962     2.18498    0.00887     3.19347
      C    3   -0.00330      0.99957     1.99097    0.01276     3.00330
      C    4   -0.19303      0.99959     2.18490    0.00854     3.19303
      C    5   -0.18510      0.99962     2.17718    0.00830     3.18510
      C    6   -0.19330      0.99962     2.18491    0.00877     3.19330
      C    7   -0.19632      0.99962     2.18828    0.00841     3.19632
      C    8   -0.07822      0.99960     2.06740    0.01122     3.07822
      N    9   -0.25790      0.99963     2.74540    0.01286     3.75790
      C   10    0.12134      0.99949     1.86823    0.01095     2.87866
      C   11   -0.17159      0.99949     2.16342    0.00869     3.17159
      C   12    0.20715      0.99954     1.77723    0.01608     2.79285
      N   13   -0.28310      0.99968     2.77376    0.00967     3.78310
      C   14    0.03637      0.99959     1.94993    0.01411     2.96363
      C   15   -0.16817      0.99952     2.16171    0.00694     3.16817
      N   16   -0.31108      0.99968     2.80051    0.01090     3.81108
      C   17   -0.17912      0.99965     2.17030    0.00917     3.17912
      H   18    0.09853      0.00000     0.40028    0.00118     0.40147
      H   19    0.09929      0.00000     0.39997    0.00075     0.40071
      H   20    0.09606      0.00000     0.40281    0.00112     0.40394
      H   21    0.10361      0.00000     0.39528    0.00112     0.39639
      H   22    0.09719      0.00000     0.40151    0.00130     0.40281
      H   23    0.09857      0.00000     0.39899    0.00244     0.40143
      H   24    0.09854      0.00000     0.40043    0.00103     0.40146
      H   25    0.09704      0.00000     0.40157    0.00140     0.40296
      H   26    0.09726      0.00000     0.40187    0.00087     0.40274
      H   27    0.09361      0.00000     0.40490    0.00150     0.40639
      H   28    0.09584      0.00000     0.40278    0.00137     0.40416
      H   29    0.10058      0.00000     0.39837    0.00105     0.39942
      H   30    0.10499      0.00000     0.39373    0.00128     0.39501
      H   31    0.09570      0.00000     0.40243    0.00186     0.40430
      H   32    0.09947      0.00000     0.39887    0.00166     0.40053
      H   33    0.09267      0.00000     0.40566    0.00167     0.40733
      H   34    0.10636      0.00000     0.39164    0.00200     0.39364
      H   35    0.08563      0.00000     0.41338    0.00099     0.41437
      H   36    0.10264      0.00000     0.39567    0.00168     0.39736
      H   37    0.18797      0.00000     0.30783    0.00420     0.31203
      H   38    0.09301      0.00000     0.40616    0.00084     0.40699
      H   39    0.08673      0.00000     0.41197    0.00130     0.41327
      H   40    0.10176      0.00000     0.39693    0.00131     0.39824
 =======================================================================
   * Total *   -0.00000     16.99318    46.80199    0.20484    64.00000

 Normal termination of Gaussian 16 at Sun Dec 13 17:21:59 2020.
