 Gaussian 16, Revision A.03,

 -----------------------------------------------------------
 # opt freq B3LYP/6-31G(d) empiricaldispersion=gd3bj scf=xqc
 -----------------------------------------------------------

 ------------------------------
 CID_83829800_JID_4526_neutraal
 ------------------------------
 Symbolic Z-matrix:
 Charge =  0 Multiplicity = 1

 SCF Done:  E(RB3LYP) =  -628.376747102     A.U. after   14 cycles
 SCF Done:  E(RB3LYP) =  -628.381788055     A.U. after   12 cycles
 SCF Done:  E(RB3LYP) =  -628.382234416     A.U. after   12 cycles
 SCF Done:  E(RB3LYP) =  -628.383373397     A.U. after   12 cycles
 SCF Done:  E(RB3LYP) =  -628.384385255     A.U. after   12 cycles
 SCF Done:  E(RB3LYP) =  -628.385216158     A.U. after   12 cycles
 SCF Done:  E(RB3LYP) =  -628.385760759     A.U. after   12 cycles
 SCF Done:  E(RB3LYP) =  -628.385862175     A.U. after   12 cycles
 SCF Done:  E(RB3LYP) =  -628.386368994     A.U. after   11 cycles
 SCF Done:  E(RB3LYP) =  -628.386532019     A.U. after   11 cycles
 SCF Done:  E(RB3LYP) =  -628.392463844     A.U. after   11 cycles
 SCF Done:  E(RB3LYP) =  -628.392468541     A.U. after    8 cycles
 SCF Done:  E(RB3LYP) =  -628.392470808     A.U. after    8 cycles
 SCF Done:  E(RB3LYP) =  -628.392471212     A.U. after    8 cycles
 SCF Done:  E(RB3LYP) =  -628.392471350     A.U. after    7 cycles
 Optimization completed.
    -- Stationary point found.
 Normal termination of Gaussian 16 at Thu Dec 10 10:10:45 2020.

 --------------------------------------------------------------------
 #N Geom=AllCheck Guess=TCheck SCRF=Check GenChk RB3LYP/6-31G(d) Freq
 --------------------------------------------------------------------

 Structure from the checkpoint file:  "JID_4526.chk"
 ------------------------------
 CID_83829800_JID_4526_neutraal
 ------------------------------
 Charge =  0 Multiplicity = 1

 SCF Done:  E(RB3LYP) =  -628.392471350     A.U. after    1 cycles

  Exact polarizability: 170.349  -2.908 139.508   6.818  -0.825  67.228
 Approx polarizability: 261.853   3.312 229.883  13.883  -3.437 101.735

                      1                      2                      3
                      A                      A                      A
 Frequencies --     44.4410                75.6666               102.1987
 Red. masses --      4.3051                 3.6463                 3.2959
 Frc consts  --      0.0050                 0.0123                 0.0203
 IR Inten    --      0.2487                 0.5249                 0.0390

                      4                      5                      6
                      A                      A                      A
 Frequencies --    125.9293               196.4397               212.3830
 Red. masses --      3.3464                 3.2176                 3.5139
 Frc consts  --      0.0313                 0.0732                 0.0934
 IR Inten    --      0.5656                 1.4724                 5.3582

                      7                      8                      9
                      A                      A                      A
 Frequencies --    242.9728               260.8329               285.8250
 Red. masses --      4.1244                 1.6388                 3.2788
 Frc consts  --      0.1435                 0.0657                 0.1578
 IR Inten    --      3.7696                 3.8981                 9.4191

                     10                     11                     12
                      A                      A                      A
 Frequencies --    301.1950               339.7895               350.1846
 Red. masses --      1.4071                 1.5854                 3.8438
 Frc consts  --      0.0752                 0.1078                 0.2777
 IR Inten    --     46.3471                56.3101                 3.5053

                     13                     14                     15
                      A                      A                      A
 Frequencies --    379.2897               498.3278               525.9605
 Red. masses --      3.3069                 1.9351                 6.0109
 Frc consts  --      0.2803                 0.2831                 0.9797
 IR Inten    --      7.3099                 7.0324                 8.2213

                     16                     17                     18
                      A                      A                      A
 Frequencies --    546.4847               560.7846               604.4984
 Red. masses --      4.2774                 3.3766                 4.1686
 Frc consts  --      0.7526                 0.6256                 0.8975
 IR Inten    --      0.4219                 3.7312                 7.4607

                     19                     20                     21
                      A                      A                      A
 Frequencies --    628.6794               668.2000               684.8122
 Red. masses --      5.4982                 5.9785                 6.0789
 Frc consts  --      1.2803                 1.5727                 1.6797
 IR Inten    --      1.2094                 6.2998                 1.4110

                     22                     23                     24
                      A                      A                      A
 Frequencies --    738.9039               789.5104               817.6432
 Red. masses --      1.3666                 6.1360                 3.7176
 Frc consts  --      0.4396                 2.2535                 1.4644
 IR Inten    --     36.2444                 0.1141                 0.5826

                     25                     26                     27
                      A                      A                      A
 Frequencies --    844.9498               850.5622               870.0109
 Red. masses --      1.2781                 1.5094                 2.3691
 Frc consts  --      0.5376                 0.6434                 1.0565
 IR Inten    --      0.0681                43.2470                 4.8729

                     28                     29                     30
                      A                      A                      A
 Frequencies --    882.7826               906.0065               921.6720
 Red. masses --      1.9172                 1.4060                 5.1480
 Frc consts  --      0.8803                 0.6800                 2.5766
 IR Inten    --     33.6634                61.1034                 4.3633

                     31                     32                     33
                      A                      A                      A
 Frequencies --    971.0042               974.4834              1063.6288
 Red. masses --      1.3223                 2.4214                 2.0381
 Frc consts  --      0.7345                 1.3548                 1.3585
 IR Inten    --      0.5147                 7.0493                63.3759

                     34                     35                     36
                      A                      A                      A
 Frequencies --   1078.7380              1106.8410              1128.3342
 Red. masses --      2.1369                 2.6959                 1.9430
 Frc consts  --      1.4651                 1.9459                 1.4574
 IR Inten    --     22.8414                78.0517                12.4471

                     37                     38                     39
                      A                      A                      A
 Frequencies --   1132.4110              1155.7164              1179.4074
 Red. masses --      2.4591                 1.3437                 1.7760
 Frc consts  --      1.8579                 1.0575                 1.4555
 IR Inten    --     39.7104                11.8774                 3.9146

                     40                     41                     42
                      A                      A                      A
 Frequencies --   1190.3909              1198.8213              1226.2758
 Red. masses --      1.4730                 1.7747                 2.0505
 Frc consts  --      1.2298                 1.5027                 1.8167
 IR Inten    --     13.1258                 5.0773                17.1308

                     43                     44                     45
                      A                      A                      A
 Frequencies --   1283.0087              1291.2451              1297.9555
 Red. masses --      1.4152                 2.4925                 3.6034
 Frc consts  --      1.3725                 2.4485                 3.5767
 IR Inten    --     54.9518                24.0858                33.5933

                     46                     47                     48
                      A                      A                      A
 Frequencies --   1357.2315              1369.9393              1379.1953
 Red. masses --      1.2648                 2.4090                 3.3386
 Frc consts  --      1.3727                 2.6637                 3.7417
 IR Inten    --      3.2482                56.4480                 9.1798

                     49                     50                     51
                      A                      A                      A
 Frequencies --   1407.6854              1436.8611              1445.6434
 Red. masses --      1.3087                 2.5631                 1.9739
 Frc consts  --      1.5279                 3.1178                 2.4305
 IR Inten    --     47.8001                15.2643                 7.3765

                     52                     53                     54
                      A                      A                      A
 Frequencies --   1454.6131              1486.1269              1520.2675
 Red. masses --      1.7815                 1.2470                 1.1350
 Frc consts  --      2.2209                 1.6226                 1.5456
 IR Inten    --     49.4975                11.8592                27.9967

                     55                     56                     57
                      A                      A                      A
 Frequencies --   1530.1250              1535.3641              1540.2898
 Red. masses --      1.0596                 1.1043                 1.2554
 Frc consts  --      1.4617                 1.5337                 1.7549
 IR Inten    --      5.7603                 3.2167                 8.6850

                     58                     59                     60
                      A                      A                      A
 Frequencies --   1556.3219              1593.1885              1622.8848
 Red. masses --      1.9065                 4.8717                 8.4523
 Frc consts  --      2.7207                 7.2856                13.1160
 IR Inten    --    106.2019                36.3007               115.9828

                     61                     62                     63
                      A                      A                      A
 Frequencies --   1647.1523              1693.2541              2948.5602
 Red. masses --      6.3035                 1.0954                 1.0736
 Frc consts  --     10.0763                 1.8503                 5.4993
 IR Inten    --    247.6559                37.7044                78.2325

                     64                     65                     66
                      A                      A                      A
 Frequencies --   3000.1726              3026.2672              3072.5887
 Red. masses --      1.0552                 1.0726                 1.0877
 Frc consts  --      5.5959                 5.7877                 6.0502
 IR Inten    --     60.9622                60.1549                53.0416

                     67                     68                     69
                      A                      A                      A
 Frequencies --   3103.7269              3138.4665              3151.4370
 Red. masses --      1.0807                 1.0931                 1.1022
 Frc consts  --      6.1337                 6.3435                 6.4495
 IR Inten    --     29.3423                12.5197                15.9260

                     70                     71                     72
                      A                      A                      A
 Frequencies --   3179.6880              3228.2618              3286.7527
 Red. masses --      1.0898                 1.0923                 1.0892
 Frc consts  --      6.4920                 6.7071                 6.9327
 IR Inten    --     29.2478                 1.6185                 1.0412

                     73                     74                     75
                      A                      A                      A
 Frequencies --   3306.8926              3472.3058              3556.9128
 Red. masses --      1.1054                 1.0499                 1.0924
 Frc consts  --      7.1222                 7.4582                 8.1432
 IR Inten    --      4.7126                 0.7247                 0.0257

 - Thermochemistry -
 -------------------
 Temperature   298.150 Kelvin.  Pressure   1.00000 Atm.
 Atom     1 has atomic number  6 and mass  12.00000

 Molecular mass:   191.10586 amu.
 Principal axes and moments of inertia in atomic units:
                           1         2         3
     Eigenvalues --  1319.333863799.193714876.99385
           X            0.99998  -0.00614  -0.00112
           Y            0.00614   0.99998  -0.00006
           Z            0.00112   0.00005   1.00000
 This molecule is an asymmetric top.
 Rotational symmetry number  1.
 Warning -- assumption of classical behavior for rotation
           may cause significant error
 Rotational temperatures (Kelvin)      0.06565     0.02280     0.01776
 Rotational constants (GHZ):           1.36792     0.47503     0.37005
 Zero-point vibrational energy     595640.9 (Joules/Mol)
                                  142.36158 (Kcal/Mol)
 Warning -- explicit consideration of  18 degrees of freedom as
           vibrations may cause significant error
 Vibrational temperatures:     63.94   108.87   147.04   181.18   282.63
          (Kelvin)            305.57   349.58   375.28   411.24   433.35
                              488.88   503.84   545.71   716.98   756.74
                              786.27   806.84   869.74   904.53   961.39
                              985.29  1063.12  1135.93  1176.41  1215.69
                             1223.77  1251.75  1270.13  1303.54  1326.08
                             1397.06  1402.06  1530.32  1552.06  1592.50
                             1623.42  1629.29  1662.82  1696.90  1712.71
                             1724.84  1764.34  1845.96  1857.81  1867.47
                             1952.75  1971.04  1984.35  2025.35  2067.32
                             2079.96  2092.86  2138.21  2187.33  2201.51
                             2209.05  2216.13  2239.20  2292.24  2334.97
                             2369.88  2436.22  4242.32  4316.58  4354.12
                             4420.77  4465.57  4515.55  4534.21  4574.86
                             4644.75  4728.90  4757.88  4995.87  5117.60

 Zero-point correction=                           0.226868 (Hartree/Particle)
 Thermal correction to Energy=                    0.239117
 Thermal correction to Enthalpy=                  0.240061
 Thermal correction to Gibbs Free Energy=         0.188218
 Sum of electronic and zero-point Energies=           -628.165604
 Sum of electronic and thermal Energies=              -628.153354
 Sum of electronic and thermal Enthalpies=            -628.152410
 Sum of electronic and thermal Free Energies=         -628.204253

                     E (Thermal)             CV                S
                      KCal/Mol        Cal/Mol-Kelvin    Cal/Mol-Kelvin
 Total                  150.048             47.754            109.113
 Electronic               0.000              0.000              0.000
 Translational            0.889              2.981             41.649
 Rotational               0.889              2.981             31.570
 Vibrational            148.271             41.793             35.895
 Vibration     1          0.595              1.980              5.051
 Vibration     2          0.599              1.965              4.000
 Vibration     3          0.604              1.947              3.412
 Vibration     4          0.611              1.927              3.007
 Vibration     5          0.636              1.845              2.166
 Vibration     6          0.643              1.822              2.023
 Vibration     7          0.659              1.774              1.781
 Vibration     8          0.669              1.744              1.656
 Vibration     9          0.684              1.700              1.499
 Vibration    10          0.693              1.671              1.410
 Vibration    11          0.720              1.596              1.213
 Vibration    12          0.727              1.575              1.165
 Vibration    13          0.749              1.514              1.042
 Vibration    14          0.854              1.254              0.662
 Vibration    15          0.881              1.193              0.596
 Vibration    16          0.902              1.147              0.552
 Vibration    17          0.916              1.116              0.522
 Vibration    18          0.963              1.022              0.442

 Optimization completed.
    -- Stationary point found.
 Normal termination of Gaussian 16 at Thu Dec 10 10:18:04 2020.

 ----------------------------------------------------------------------
 # B3LYP/6-311++G(d,p) empiricaldispersion=gd3bj scf=xqc pop=npa geom=c
 heck
 ----------------------------------------------------------------------

 --------------------------------------
 CID_83829800_JID_4526_Energie_neutraal
 --------------------------------------
 Structure from the checkpoint file:  "JID_4526.chk"
 Charge =  0 Multiplicity = 1

 SCF Done:  E(RB3LYP) =  -628.567306563     A.U. after   15 cycles
 Normal termination of Gaussian 16 at Thu Dec 10 10:20:45 2020.

 ----------------------------------------------------------------------
 # B3LYP/6-311++G(d,p) empiricaldispersion=gd3bj scf=xqc pop=npa geom=c
 heck
 ----------------------------------------------------------------------

 ------------------------------------
 CID_83829800_JID_4526_Energie_kation
 ------------------------------------
 Structure from the checkpoint file:  "JID_4526.chk"
 Charge =  1 Multiplicity = 2

 SCF Done:  E(UB3LYP) =  -628.296562217     A.U. after   22 cycles
 Normal termination of Gaussian 16 at Thu Dec 10 10:26:04 2020.
 Gaussian 16:  ES64L-G16RevA.03 25-Dec-2016

 ----------------------------------------------------------------------
 # B3LYP/6-311++G(d,p) empiricaldispersion=gd3bj scf=xqc pop=npa geom=c
 heck
 ----------------------------------------------------------------------

 -----------------------------------
 CID_83829800_JID_4526_Energie_anion
 -----------------------------------
 Structure from the checkpoint file:  "JID_4526.chk"
 Charge = -1 Multiplicity = 2

                         Standard orientation:
 ---------------------------------------------------------------------
 Center     Atomic      Atomic             Coordinates (Angstroms)
 Number     Number       Type             X           Y           Z
 ---------------------------------------------------------------------
      1          6           0       -1.124951   -2.176313    0.174885
      2          7           0       -1.252098   -0.770244   -0.157746
      3          6           0       -2.461413   -0.415217   -0.903435
      4          6           0       -3.664875   -0.135990   -0.002401
      5          7           0       -3.405983    1.036039    0.833426
      6          6           0       -0.153845    0.074937   -0.132351
      7          6           0        1.185612   -0.374011   -0.001346
      8          6           0        1.904796   -1.629387    0.077142
      9          6           0        3.218619   -1.307506    0.162324
     10          8           0        3.423642    0.046764    0.141357
     11          6           0        2.186527    0.624576    0.034957
     12          7           0        2.064682    1.935635   -0.046316
     13          6           0        0.787757    2.329077   -0.172915
     14          6           0       -0.314673    1.475849   -0.215829
     15          1           0       -0.483709   -2.303210    1.049244
     16          1           0       -0.722816   -2.780167   -0.654121
     17          1           0       -2.113809   -2.568724    0.428518
     18          1           0       -2.255213    0.463007   -1.517952
     19          1           0       -2.702696   -1.241986   -1.586937
     20          1           0       -4.529201    0.078086   -0.643124
     21          1           0       -3.910949   -1.051828    0.566583
     22          1           0       -4.211812    1.231359    1.424159
     23          1           0       -2.629993    0.828718    1.460915
     24          1           0        1.513789   -2.634001    0.061214
     25          1           0        4.112203   -1.908069    0.238432
     26          1           0        0.626870    3.403394   -0.232055
     27          1           0       -1.309322    1.903204   -0.257470
 ---------------------------------------------------------------------

 SCF Done:  E(UB3LYP) =  -628.559327120     A.U. after   33 cycles
 SCF Done:  E(UB3LYP) =  -628.559327120     a.u. after    1 cycles

 The electronic state is 2-A.
 Alpha  occ. eigenvalues --  -19.08889 -14.23947 -14.20091 -14.19265 -10.15537
 Alpha  occ. eigenvalues --  -10.13169 -10.12979 -10.10373 -10.10269 -10.09786
 Alpha  occ. eigenvalues --  -10.09057 -10.08739 -10.08319 -10.06535  -1.01852
 Alpha  occ. eigenvalues --   -0.86070  -0.83842  -0.78216  -0.72437  -0.67624
 Alpha  occ. eigenvalues --   -0.65302  -0.63900  -0.59221  -0.54729  -0.52031
 Alpha  occ. eigenvalues --   -0.51338  -0.47410  -0.43514  -0.41347  -0.40320
 Alpha  occ. eigenvalues --   -0.40037  -0.37371  -0.36930  -0.36377  -0.34744
 Alpha  occ. eigenvalues --   -0.34657  -0.33690  -0.31697  -0.29797  -0.28859
 Alpha  occ. eigenvalues --   -0.28553  -0.28227  -0.27832  -0.26870  -0.26079
 Alpha  occ. eigenvalues --   -0.22730  -0.17901  -0.17319  -0.14769  -0.14293
 Alpha  occ. eigenvalues --   -0.10512   0.04144
 Alpha virt. eigenvalues --    0.06540   0.06720   0.07615   0.08207   0.08732
 Alpha virt. eigenvalues --    0.09462   0.09810   0.10401   0.10442   0.12042
 Alpha virt. eigenvalues --    0.12174   0.12462   0.12501   0.13468   0.14518

  Beta  occ. eigenvalues --  -19.08884 -14.23956 -14.20047 -14.19234 -10.15543
  Beta  occ. eigenvalues --  -10.13121 -10.12906 -10.10343 -10.10246 -10.09734
  Beta  occ. eigenvalues --  -10.09014 -10.08734 -10.08307 -10.06548  -1.01832
  Beta  occ. eigenvalues --   -0.86032  -0.83782  -0.78157  -0.72384  -0.67563
  Beta  occ. eigenvalues --   -0.65241  -0.63837  -0.59138  -0.54656  -0.51987
  Beta  occ. eigenvalues --   -0.51267  -0.47348  -0.43459  -0.41295  -0.40273
  Beta  occ. eigenvalues --   -0.39982  -0.37309  -0.36864  -0.36322  -0.34693
  Beta  occ. eigenvalues --   -0.34603  -0.33646  -0.31667  -0.29750  -0.28793
  Beta  occ. eigenvalues --   -0.28511  -0.28174  -0.27730  -0.26772  -0.26043
  Beta  occ. eigenvalues --   -0.22531  -0.17814  -0.17268  -0.14710  -0.14173
  Beta  occ. eigenvalues --   -0.10403
  Beta virt. eigenvalues --    0.06690   0.07077   0.07383   0.08464   0.08847
  Beta virt. eigenvalues --    0.09001   0.09833   0.10372   0.10716   0.10993
  Beta virt. eigenvalues --    0.12291   0.12493   0.12641   0.12908   0.13764

 Mulliken charges and spin densities:
               1          2
     1  C    1.025116  -1.388669
     2  N    0.172889   0.069968
     3  C   -1.532324   1.221062
     4  C    2.390705  -2.715892
     5  N   -0.477241   0.064337
     6  C   -0.035244   0.170206
     7  C    0.283023   0.283765
     8  C   -0.619869   0.187711
     9  C    0.638579  -0.860832
    10  O   -0.064945   0.003282
    11  C   -0.910375   0.371234
    12  N   -0.187125   0.025602
    13  C   -0.206034  -0.287815
    14  C    0.880001  -0.845376
    15  H   -0.103509   0.246357
    16  H   -0.310292   0.487532
    17  H   -0.714264   0.870983
    18  H    0.016752   0.160589
    19  H   -0.488827   0.671149
    20  H   -0.623248   0.775045
    21  H   -0.237545   0.375600
    22  H   -0.119836   0.379664
    23  H    0.090368   0.142727
    24  H   -0.341668   0.501205
    25  H    0.045233   0.135744
    26  H    0.141196   0.033129
    27  H    0.288485  -0.078307
 Sum of Mulliken charges =  -1.00000   1.00000

 Dipole moment (field-independent basis, Debye):
    X=              6.1783    Y=              2.4862    Z=             -0.1254  Tot=              6.6610
 Quadrupole moment (field-independent basis, Debye-Ang):
   XX=           -162.5885   YY=           -129.8487   ZZ=           -110.6613
   XY=            -15.1979   XZ=              2.1587   YZ=             -3.1367

 Summary of Natural Population Analysis:

                                       Natural Population
                Natural  -----------------------------------------------
    Atom  No    Charge         Core      Valence    Rydberg      Total
 -----------------------------------------------------------------------
      C    1   -0.17625      0.99964     2.16769    0.00892     3.17625
      N    2   -0.25059      0.99965     2.73824    0.01269     3.75059
      C    3   -0.08475      0.99960     2.07313    0.01203     3.08475
      C    4   -0.09197      0.99963     2.08088    0.01145     3.09197
      N    5   -0.42723      0.99977     2.91635    0.01111     3.92723
      C    6    0.13141      0.99945     1.85843    0.01070     2.86859
      C    7   -0.09640      0.99946     2.08829    0.00865     3.09640
      C    8   -0.14522      0.99954     2.13717    0.00850     3.14522
      C    9    0.07123      0.99951     1.91467    0.01459     2.92877
      O   10   -0.24010      0.99986     3.23264    0.00760     4.24010
      C   11    0.26050      0.99941     1.72130    0.01879     2.73950
      N   12   -0.25672      0.99966     2.74542    0.01165     3.75672
      C   13    0.03355      0.99960     1.95238    0.01447     2.96645
      C   14   -0.16482      0.99953     2.15833    0.00697     3.16482
      H   15    0.09998      0.00000     0.39853    0.00148     0.40002
      H   16    0.09191      0.00000     0.40576    0.00232     0.40809
      H   17    0.10415      0.00000     0.39387    0.00198     0.39585
      H   18    0.10125      0.00000     0.39701    0.00174     0.39875
      H   19    0.09972      0.00000     0.39835    0.00193     0.40028
      H   20    0.09259      0.00000     0.40531    0.00210     0.40741
      H   21    0.08232      0.00000     0.41379    0.00389     0.41768
      H   22    0.17874      0.00000     0.31914    0.00212     0.32126
      H   23    0.17544      0.00000     0.32242    0.00214     0.32456
      H   24    0.11320      0.00000     0.38577    0.00104     0.38680
      H   25    0.09288      0.00000     0.40615    0.00097     0.40712
      H   26    0.08726      0.00000     0.41155    0.00119     0.41274
      H   27    0.11791      0.00000     0.38036    0.00173     0.38209
 =======================================================================
   * Total *   -0.00000     13.99430    36.82295    0.18275    51.00000

 Normal termination of Gaussian 16 at Thu Dec 10 10:34:29 2020.
