 Gaussian 16, Revision A.03,

 -----------------------------------------------------------
 # opt freq B3LYP/6-31G(d) empiricaldispersion=gd3bj scf=xqc
 -----------------------------------------------------------

 -----------------------------
 CID_3111754_JID_7625_neutraal
 -----------------------------
 Symbolic Z-matrix:
 Charge =  0 Multiplicity = 1

 SCF Done:  E(RB3LYP) =  -769.689732457     A.U. after   15 cycles
 SCF Done:  E(RB3LYP) =  -769.692107907     A.U. after   15 cycles
 SCF Done:  E(RB3LYP) =  -769.695005513     A.U. after   15 cycles
 SCF Done:  E(RB3LYP) =  -769.697297646     A.U. after   13 cycles
 SCF Done:  E(RB3LYP) =  -769.701054193     A.U. after   13 cycles
 SCF Done:  E(RB3LYP) =  -769.701593119     A.U. after   12 cycles
 SCF Done:  E(RB3LYP) =  -769.701681264     A.U. after   12 cycles
 SCF Done:  E(RB3LYP) =  -769.701746609     A.U. after   11 cycles
 SCF Done:  E(RB3LYP) =  -769.701784433     A.U. after   11 cycles
 SCF Done:  E(RB3LYP) =  -769.701804660     A.U. after   11 cycles
 SCF Done:  E(RB3LYP) =  -769.701825363     A.U. after   10 cycles
 SCF Done:  E(RB3LYP) =  -769.701836048     A.U. after   11 cycles
 SCF Done:  E(RB3LYP) =  -769.701838529     A.U. after    9 cycles
 SCF Done:  E(RB3LYP) =  -769.701839438     A.U. after    8 cycles
 SCF Done:  E(RB3LYP) =  -769.701839663     A.U. after    8 cycles
 Optimization completed.
    -- Stationary point found.

 1\1\GINC-NODE203\FOpt\RB3LYP\6-31G(d)\C10H9N7\VSC10255\11-Dec-2020\0\\
 # opt freq B3LYP/6-31G(d) empiricaldispersion=gd3bj scf=xqc\\CID_31117
 54_JID_7625_neutraal\\0,1\C,2.2600181415,-0.8774121529,0.2506235943\C,
 2.5059578744,0.3825644811,0.8301095443\C,1.4609525876,1.1812448618,1.2
 804722933\C,0.1655109762,0.6823037437,1.1341917242\C,-0.1087585663,-0.
 5819583067,0.5531584003\C,0.9666903184,-1.3653451168,0.1081963612\C,-1
 .5499972181,-0.7574821233,0.5684894582\C,-2.074294882,0.3902463953,1.1
 421943978\N,-1.0554447651,1.2378754449,1.4847019853\C,-2.2149346399,-1

 Normal termination of Gaussian 16 at Fri Dec 11 13:04:38 2020.

 --------------------------------------------------------------------
 #N Geom=AllCheck Guess=TCheck SCRF=Check GenChk RB3LYP/6-31G(d) Freq
 --------------------------------------------------------------------

 Structure from the checkpoint file:  "JID_7625.chk"
 -----------------------------
 CID_3111754_JID_7625_neutraal
 -----------------------------
 Charge =  0 Multiplicity = 1

 SCF Done:  E(RB3LYP) =  -769.701839663     A.U. after    1 cycles

  Exact polarizability: 222.501   3.358 134.102  24.060 -12.892  87.734
 Approx polarizability: 324.534   9.220 249.285  54.661 -30.622 159.371

                      1                      2                      3
                      A                      A                      A
 Frequencies --     22.0398                43.3280                60.1024
 Red. masses --      6.6200                 6.6128                 7.6040
 Frc consts  --      0.0019                 0.0073                 0.0162
 IR Inten    --      0.1491                 1.1600                 2.8740

                      4                      5                      6
                      A                      A                      A
 Frequencies --    110.0041               148.2578               183.5237
 Red. masses --      6.0672                 5.3463                 5.2021
 Frc consts  --      0.0433                 0.0692                 0.1032
 IR Inten    --      1.8844                 0.6112                 0.6869

                      7                      8                      9
                      A                      A                      A
 Frequencies --    205.5340               229.0470               283.7802
 Red. masses --      7.1020                 3.9673                 7.2181
 Frc consts  --      0.1768                 0.1226                 0.3425
 IR Inten    --      2.0026                 8.0625                 2.5298

                     10                     11                     12
                      A                      A                      A
 Frequencies --    327.0222               408.4161               427.9833
 Red. masses --      5.4122                 5.1779                 2.8977
 Frc consts  --      0.3410                 0.5089                 0.3127
 IR Inten    --     11.6091                 4.7833                16.5794

                     13                     14                     15
                      A                      A                      A
 Frequencies --    453.0380               479.9426               507.7777
 Red. masses --      1.5349                 3.6172                 1.6799
 Frc consts  --      0.1856                 0.4909                 0.2552
 IR Inten    --     48.0555                36.2892                52.2901

                     16                     17                     18
                      A                      A                      A
 Frequencies --    514.6073               548.3538               570.7222
 Red. masses --      4.4831                 4.9924                 6.4716
 Frc consts  --      0.6995                 0.8845                 1.2420
 IR Inten    --     21.6695                 7.6337                 2.4374

                     19                     20                     21
                      A                      A                      A
 Frequencies --    587.3619               647.3094               671.2182
 Red. masses --      3.1915                 2.7096                 4.1740
 Frc consts  --      0.6487                 0.6689                 1.1080
 IR Inten    --      8.9872                 1.0991                25.9669

                     22                     23                     24
                      A                      A                      A
 Frequencies --    693.4400               714.5570               754.6080
 Red. masses --      5.4670                 2.6910                 1.2958
 Frc consts  --      1.5489                 0.8096                 0.4348
 IR Inten    --      8.9658                40.9300                55.0768

                     25                     26                     27
                      A                      A                      A
 Frequencies --    764.8128               778.5183               781.5678
 Red. masses --      6.6576                 5.4363                 3.9510
 Frc consts  --      2.2944                 1.9413                 1.4220
 IR Inten    --      6.1476                20.3530                 4.3634

                     28                     29                     30
                      A                      A                      A
 Frequencies --    831.0973               852.0515               859.9580
 Red. masses --      1.5550                 2.8710                 1.5753
 Frc consts  --      0.6328                 1.2280                 0.6864
 IR Inten    --     21.8083                54.8143                 0.8515

                     31                     32                     33
                      A                      A                      A
 Frequencies --    892.4252               922.6773               951.5893
 Red. masses --      4.8562                 1.3438                 2.9972
 Frc consts  --      2.2787                 0.6740                 1.5990
 IR Inten    --      1.4837                 0.4652                76.9230

                     34                     35                     36
                      A                      A                      A
 Frequencies --    966.4836               969.8327               992.4613
 Red. masses --      1.4751                 1.3263                 3.2704
 Frc consts  --      0.8118                 0.7350                 1.8979
 IR Inten    --      6.7797                 4.4903                62.2125

                     37                     38                     39
                      A                      A                      A
 Frequencies --   1031.6167              1048.3069              1075.8329
 Red. masses --      8.1821                 2.0969                 5.6089
 Frc consts  --      5.1304                 1.3577                 3.8249
 IR Inten    --     15.8657                 4.0215                10.0697

                     40                     41                     42
                      A                      A                      A
 Frequencies --   1085.3856              1134.9108              1147.9938
 Red. masses --      4.4720                 1.5135                 5.0354
 Frc consts  --      3.1040                 1.1485                 3.9098
 IR Inten    --      6.7543                28.3292                 8.1591

                     43                     44                     45
                      A                      A                      A
 Frequencies --   1164.2968              1187.4731              1189.4965
 Red. masses --      1.3681                 3.4541                 1.2089
 Frc consts  --      1.0927                 2.8697                 1.0078
 IR Inten    --     15.2735                49.7684                 3.1419

                     46                     47                     48
                      A                      A                      A
 Frequencies --   1266.0262              1272.8633              1276.7431
 Red. masses --      2.9635                 6.5548                 1.7910
 Frc consts  --      2.7986                 6.2571                 1.7201
 IR Inten    --     41.4387                 2.8512                15.4540

                     49                     50                     51
                      A                      A                      A
 Frequencies --   1343.8298              1356.5394              1359.9123
 Red. masses --      2.8458                 3.1334                 2.1249
 Frc consts  --      3.0279                 3.3973                 2.3153
 IR Inten    --      7.5872                14.2378                 5.9830

                     52                     53                     54
                      A                      A                      A
 Frequencies --   1392.5169              1419.0434              1464.1478
 Red. masses --      4.9838                 1.5060                 2.1155
 Frc consts  --      5.6939                 1.7868                 2.6720
 IR Inten    --     29.1091                19.0799                46.1984

                     55                     56                     57
                      A                      A                      A
 Frequencies --   1474.0377              1502.2852              1524.9258
 Red. masses --      1.5903                 2.6295                 2.5172
 Frc consts  --      2.0358                 3.4965                 3.4488
 IR Inten    --     56.7986                24.4274                57.1432

                     58                     59                     60
                      A                      A                      A
 Frequencies --   1543.1287              1572.0096              1579.4942
 Red. masses --      2.8149                 4.4949                 5.1576
 Frc consts  --      3.9493                 6.5446                 7.5811
 IR Inten    --      5.5512               197.0527               182.4189

                     61                     62                     63
                      A                      A                      A
 Frequencies --   1637.8960              1680.9595              1708.4460
 Red. masses --      5.7235                 6.2657                 6.2899
 Frc consts  --      9.0466                10.4312                10.8167
 IR Inten    --      1.2657                 1.1846               151.7426

                     64                     65                     66
                      A                      A                      A
 Frequencies --   3152.3810              3185.7527              3192.4391
 Red. masses --      1.0867                 1.0853                 1.0885
 Frc consts  --      6.3626                 6.4895                 6.5363
 IR Inten    --     14.0353                 1.5736                 4.3131

                     67                     68                     69
                      A                      A                      A
 Frequencies --   3202.5508              3213.5135              3323.9363
 Red. masses --      1.0934                 1.0970                 1.0969
 Frc consts  --      6.6074                 6.6745                 7.1402
 IR Inten    --     33.1387                26.1494                 0.8148

                     70                     71                     72
                      A                      A                      A
 Frequencies --   3551.4472              3652.9245              3663.8488
 Red. masses --      1.0750                 1.0830                 1.0801
 Frc consts  --      7.9889                 8.5144                 8.5425
 IR Inten    --     30.3646               117.5350                68.3901

 - Thermochemistry -
 -------------------
 Temperature   298.150 Kelvin.  Pressure   1.00000 Atm.
 Atom     1 has atomic number  6 and mass  12.00000

 Molecular mass:   227.09194 amu.
 Principal axes and moments of inertia in atomic units:
                           1         2         3
     Eigenvalues --  1506.805436995.100827576.61427
           X            0.99998   0.00034   0.00630
           Y           -0.00007   0.99903  -0.04402
           Z           -0.00631   0.04402   0.99901
 This molecule is an asymmetric top.
 Rotational symmetry number  1.
 Warning -- assumption of classical behavior for rotation
           may cause significant error
 Rotational temperatures (Kelvin)      0.05748     0.01238     0.01143
 Rotational constants (GHZ):           1.19773     0.25800     0.23820
 Zero-point vibrational energy     518786.7 (Joules/Mol)
                                  123.99300 (Kcal/Mol)
 Warning -- explicit consideration of  19 degrees of freedom as
           vibrations may cause significant error
 Vibrational temperatures:     31.71    62.34    86.47   158.27   213.31
          (Kelvin)            264.05   295.72   329.55   408.30   470.51
                              587.62   615.77   651.82   690.53   730.58
                              740.41   788.96   821.14   845.08   931.33
                              965.73   997.71  1028.09  1085.71  1100.40
                             1120.11  1124.50  1195.76  1225.91  1237.29
                             1284.00  1327.53  1369.12  1390.55  1395.37
                             1427.93  1484.27  1508.28  1547.88  1561.63
                             1632.88  1651.71  1675.16  1708.51  1711.42
                             1821.53  1831.37  1836.95  1933.47  1951.76
                             1956.61  2003.52  2041.69  2106.58  2120.81
                             2161.45  2194.03  2220.22  2261.77  2272.54
                             2356.57  2418.53  2458.07  4535.57  4583.59
                             4593.21  4607.76  4623.53  4782.40  5109.74
                             5255.74  5271.46

 Zero-point correction=                           0.197595 (Hartree/Particle)
 Thermal correction to Energy=                    0.210516
 Thermal correction to Enthalpy=                  0.211460
 Thermal correction to Gibbs Free Energy=         0.156213
 Sum of electronic and zero-point Energies=           -769.504244
 Sum of electronic and thermal Energies=              -769.491324
 Sum of electronic and thermal Enthalpies=            -769.490379
 Sum of electronic and thermal Free Energies=         -769.545627

                     E (Thermal)             CV                S
                      KCal/Mol        Cal/Mol-Kelvin    Cal/Mol-Kelvin
 Total                  132.101             50.530            116.277
 Electronic               0.000              0.000              0.000
 Translational            0.889              2.981             42.163
 Rotational               0.889              2.981             32.746
 Vibrational            130.323             44.569             41.369
 Vibration     1          0.593              1.985              6.441
 Vibration     2          0.595              1.980              5.101
 Vibration     3          0.597              1.973              4.454
 Vibration     4          0.606              1.941              3.269
 Vibration     5          0.618              1.905              2.694
 Vibration     6          0.631              1.862              2.292
 Vibration     7          0.640              1.832              2.083
 Vibration     8          0.652              1.797              1.886
 Vibration     9          0.682              1.704              1.511
 Vibration    10          0.711              1.621              1.275
 Vibration    11          0.773              1.452              0.932
 Vibration    12          0.789              1.409              0.865
 Vibration    13          0.812              1.354              0.787
 Vibration    14          0.836              1.295              0.710
 Vibration    15          0.863              1.233              0.639
 Vibration    16          0.870              1.218              0.623
 Vibration    17          0.904              1.143              0.548
 Vibration    18          0.927              1.095              0.503
 Vibration    19          0.945              1.059              0.472

                           ! Non-Optimized Parameters !

 1\1\GINC-NODE203\Freq\RB3LYP\6-31G(d)\C10H9N7\VSC10255\11-Dec-2020\0\\
 #N Geom=AllCheck Guess=TCheck SCRF=Check GenChk RB3LYP/6-31G(d) Freq\\
 CID_3111754_JID_7625_neutraal\\0,1\C,2.2600181415,-0.8774121529,0.2506
 235943\C,2.5059578744,0.3825644811,0.8301095443\C,1.4609525876,1.18124
 48618,1.2804722933\C,0.1655109762,0.6823037437,1.1341917242\C,-0.10875
 85663,-0.5819583067,0.5531584003\C,0.9666903184,-1.3653451168,0.108196
 3612\C,-1.5499972181,-0.7574821233,0.5684894582\C,-2.074294882,0.39024
 63953,1.1421943978\N,-1.0554447651,1.2378754449,1.4847019853\C,-2.2149

 Normal termination of Gaussian 16 at Fri Dec 11 13:13:13 2020.

 ----------------------------------------------------------------------
 # B3LYP/6-311++G(d,p) empiricaldispersion=gd3bj scf=xqc pop=npa geom=c
 heck
 ----------------------------------------------------------------------

 -------------------------------------
 CID_3111754_JID_7625_Energie_neutraal
 -------------------------------------
 Structure from the checkpoint file:  "JID_7625.chk"
 Charge =  0 Multiplicity = 1

 SCF Done:  E(RB3LYP) =  -769.908155367     A.U. after   16 cycles
 Normal termination of Gaussian 16 at Fri Dec 11 13:17:04 2020.

 ----------------------------------------------------------------------
 # B3LYP/6-311++G(d,p) empiricaldispersion=gd3bj scf=xqc pop=npa geom=c
 heck
 ----------------------------------------------------------------------

 -----------------------------------
 CID_3111754_JID_7625_Energie_kation
 -----------------------------------
 Structure from the checkpoint file:  "JID_7625.chk"
 Charge =  1 Multiplicity = 2

 SCF Done:  E(UB3LYP) =  -769.632587535     A.U. after   27 cycles
 Normal termination of Gaussian 16 at Fri Dec 11 13:25:57 2020.
 Gaussian 16:  ES64L-G16RevA.03 25-Dec-2016

 ----------------------------------
 CID_3111754_JID_7625_Energie_anion
 ----------------------------------
 Structure from the checkpoint file:  "JID_7625.chk"
 Charge = -1 Multiplicity = 2

                         Standard orientation:
 ---------------------------------------------------------------------
 Center     Atomic      Atomic             Coordinates (Angstroms)
 Number     Number       Type             X           Y           Z
 ---------------------------------------------------------------------
      1          6           0       -4.150831    0.677025   -0.908006
      2          6           0       -4.522105   -0.591403   -0.421101
      3          6           0       -3.614613   -1.389906    0.265633
      4          6           0       -2.327555   -0.882102    0.450360
      5          6           0       -1.928487    0.390786   -0.030976
      6          6           0       -2.866682    1.173763   -0.720188
      7          6           0       -0.537514    0.573986    0.342979
      8          6           0       -0.162106   -0.577918    1.016396
      9          7           0       -1.226904   -1.435312    1.086580
     10          6           0        0.207926    1.783770    0.085377
     11          7           0        1.416579    2.149260    0.344716
     12          7           0        2.236322    1.147265    0.962742
     13          6           0        2.840194    0.220985    0.126962
     14          7           0        4.038640   -0.308294    0.395598
     15          7           0        4.150497   -1.168773   -0.622008
     16          7           0        3.131188   -1.179242   -1.464047
     17          7           0        2.273810   -0.297833   -0.999640
     18          1           0       -4.883230    1.275480   -1.441759
     19          1           0       -5.533050   -0.952337   -0.585235
     20          1           0       -3.896272   -2.369192    0.642398
     21          1           0       -2.596619    2.152129   -1.107041
     22          1           0        0.784126   -0.834884    1.461537
     23          1           0       -1.199079   -2.351857    1.506193
     24          1           0       -0.363214    2.579358   -0.394644
     25          1           0        2.951136    1.629807    1.498497
     26          1           0        4.965915   -1.751914   -0.752149
 ---------------------------------------------------------------------

 SCF Done:  E(UB3LYP) =  -769.905224748     A.U. after   33 cycles
 SCF Done:  E(UB3LYP) =  -769.905224748     a.u. after    1 cycles

 The electronic state is 2-A.
 Alpha  occ. eigenvalues --  -14.31389 -14.27384 -14.24524 -14.23895 -14.23727
 Alpha  occ. eigenvalues --  -14.22368 -14.19513 -10.14743 -10.09620 -10.07603
 Alpha  occ. eigenvalues --  -10.07408 -10.06590 -10.06404 -10.06222 -10.06030
 Alpha  occ. eigenvalues --  -10.05846 -10.04545  -1.03279  -0.87635  -0.86950
 Alpha  occ. eigenvalues --   -0.83212  -0.77288  -0.73569  -0.70653  -0.66962
 Alpha  occ. eigenvalues --   -0.63136  -0.61023  -0.57262  -0.54364  -0.51852
 Alpha  occ. eigenvalues --   -0.50920  -0.48246  -0.46566  -0.43724  -0.41764
 Alpha  occ. eigenvalues --   -0.40627  -0.38585  -0.37616  -0.36754  -0.35149
 Alpha  occ. eigenvalues --   -0.32968  -0.32135  -0.31617  -0.30446  -0.28553
 Alpha  occ. eigenvalues --   -0.27423  -0.26055  -0.24753  -0.23785  -0.23455
 Alpha  occ. eigenvalues --   -0.21291  -0.20947  -0.20812  -0.18042  -0.17646
 Alpha  occ. eigenvalues --   -0.16243  -0.12402  -0.10608  -0.09226   0.04529
 Alpha virt. eigenvalues --    0.06338   0.07007   0.07901   0.08151   0.08941
 Alpha virt. eigenvalues --    0.09171   0.10201   0.10505   0.11671   0.12045
 Alpha virt. eigenvalues --    0.13360   0.13980   0.14796   0.14905   0.15358

  Beta  occ. eigenvalues --  -14.31285 -14.27331 -14.24445 -14.23853 -14.23733
  Beta  occ. eigenvalues --  -14.22378 -14.19291 -10.14723 -10.09651 -10.07463
  Beta  occ. eigenvalues --  -10.07016 -10.06486 -10.06396 -10.06238 -10.06010
  Beta  occ. eigenvalues --  -10.05751 -10.04575  -1.03190  -0.87446  -0.86732
  Beta  occ. eigenvalues --   -0.83117  -0.77100  -0.73454  -0.70472  -0.66809
  Beta  occ. eigenvalues --   -0.63007  -0.60718  -0.57109  -0.54114  -0.51688
  Beta  occ. eigenvalues --   -0.50577  -0.48156  -0.46445  -0.43609  -0.41620
  Beta  occ. eigenvalues --   -0.40523  -0.38414  -0.37503  -0.36572  -0.35007
  Beta  occ. eigenvalues --   -0.32890  -0.32051  -0.31124  -0.30249  -0.28431
  Beta  occ. eigenvalues --   -0.27356  -0.25884  -0.24611  -0.23735  -0.22899
  Beta  occ. eigenvalues --   -0.20808  -0.20708  -0.20608  -0.17813  -0.17564
  Beta  occ. eigenvalues --   -0.15655  -0.11902  -0.10218  -0.08352
  Beta virt. eigenvalues --    0.06911   0.07793   0.08318   0.08394   0.08984
  Beta virt. eigenvalues --    0.09196   0.10056   0.10315   0.10472   0.11899
  Beta virt. eigenvalues --    0.11993   0.13259   0.14037   0.14754   0.14908

 Mulliken charges and spin densities:
               1          2
     1  C   -0.430919   0.019879
     2  C   -0.171899   0.002261
     3  C   -0.727374   0.081389
     4  C   -0.585579  -0.059725
     5  C    1.110607  -0.027415
     6  C   -0.640513   0.056038
     7  C    1.241654  -0.035078
     8  C   -0.443639   0.340756
     9  N   -0.042343   0.011106
    10  C   -0.823127   0.076212
    11  N   -0.192320   0.090737
    12  N   -0.097022  -0.022187
    13  C    0.041822  -0.225409
    14  N   -0.117890   0.020132
    15  N    0.180882  -0.269767
    16  N    0.162251   0.093110
    17  N   -0.146451  -0.201622
    18  H    0.121406  -0.001056
    19  H    0.119757  -0.000642
    20  H    0.100104   0.000620
    21  H    0.087038  -0.005861
    22  H    0.155709   0.017398
    23  H    0.248915   0.013475
    24  H    0.197576  -0.007035
    25  H    0.311697   0.004671
    26  H   -0.660340   1.028014
 Sum of Mulliken charges =  -1.00000   1.00000

 Dipole moment (field-independent basis, Debye):
    X=             -6.9783    Y=              0.1810    Z=              3.0503  Tot=              7.6180
 Quadrupole moment (field-independent basis, Debye-Ang):
   XX=           -175.1200   YY=           -117.4690   ZZ=           -114.3834
   XY=             16.8689   XZ=              7.9973   YZ=             -9.3431

 Summary of Natural Population Analysis:

                                       Natural Population
                Natural  -----------------------------------------------
    Atom  No    Charge         Core      Valence    Rydberg      Total
 -----------------------------------------------------------------------
      C    1   -0.11974      0.99961     2.10991    0.01022     3.11974
      C    2   -0.11759      0.99959     2.10833    0.00967     3.11759
      C    3   -0.10312      0.99953     2.09514    0.00846     3.10312
      C    4    0.06723      0.99948     1.92302    0.01028     2.93277
      C    5   -0.03307      0.99948     2.02488    0.00870     3.03307
      C    6   -0.07776      0.99942     2.06926    0.00908     3.07776
      C    7   -0.10977      0.99948     2.10226    0.00803     3.10977
      C    8    0.11123      0.99956     1.87742    0.01180     2.88877
      N    9   -0.26023      0.99966     2.75343    0.00715     3.76023
      C   10    0.08226      0.99960     1.90343    0.01471     2.91774
      N   11   -0.14176      0.99970     2.62923    0.01283     3.64176
      N   12   -0.24916      0.99965     2.73511    0.01440     3.74916
      C   13    0.23592      0.99965     1.74204    0.02238     2.76408
      N   14   -0.17213      0.99970     2.65940    0.01304     3.67213
      N   15   -0.06814      0.99975     2.55140    0.01699     3.56814
      N   16   -0.02731      0.99979     2.50964    0.01788     3.52731
      N   17   -0.16389      0.99971     2.65011    0.01407     3.66389
      H   18    0.09279      0.00000     0.40614    0.00107     0.40721
      H   19    0.09265      0.00000     0.40631    0.00104     0.40735
      H   20    0.09391      0.00000     0.40472    0.00138     0.40609
      H   21    0.09701      0.00000     0.40222    0.00077     0.40299
      H   22    0.10127      0.00000     0.39759    0.00114     0.39873
      H   23    0.19331      0.00000     0.30514    0.00154     0.30669
      H   24    0.08389      0.00000     0.41476    0.00135     0.41611
      H   25    0.18512      0.00000     0.31208    0.00279     0.31488
      H   26    0.20709      0.00000     0.26658    0.02633     0.29291
 =======================================================================
   * Total *    0.00001     16.99336    41.75955    0.24708    58.99999

 Normal termination of Gaussian 16 at Fri Dec 11 13:36:48 2020.
