 Gaussian 16, Revision A.03,

 -----------------------------------------------------------
 # opt freq B3LYP/6-31G(d) empiricaldispersion=gd3bj scf=xqc
 -----------------------------------------------------------

 -------------------------------
 CID_132194271_JID_8810_neutraal
 -------------------------------
 Symbolic Z-matrix:
 Charge =  0 Multiplicity = 1

 SCF Done:  E(RB3LYP) =  -919.437255305     A.U. after   13 cycles
 SCF Done:  E(RB3LYP) =  -919.451198363     A.U. after   11 cycles
 SCF Done:  E(RB3LYP) =  -919.451633490     A.U. after   11 cycles
 SCF Done:  E(RB3LYP) =  -919.452728900     A.U. after   11 cycles
 SCF Done:  E(RB3LYP) =  -919.454043811     A.U. after   11 cycles
 SCF Done:  E(RB3LYP) =  -919.454295891     A.U. after   10 cycles
 SCF Done:  E(RB3LYP) =  -919.454460417     A.U. after   11 cycles
 SCF Done:  E(RB3LYP) =  -919.454571811     A.U. after    9 cycles
 SCF Done:  E(RB3LYP) =  -919.454621326     A.U. after   10 cycles
 SCF Done:  E(RB3LYP) =  -919.454631397     A.U. after    9 cycles
 SCF Done:  E(RB3LYP) =  -919.454637234     A.U. after    8 cycles
 SCF Done:  E(RB3LYP) =  -919.454641180     A.U. after    8 cycles
 SCF Done:  E(RB3LYP) =  -919.454642789     A.U. after    8 cycles
 SCF Done:  E(RB3LYP) =  -919.454643710     A.U. after    7 cycles
 SCF Done:  E(RB3LYP) =  -919.454643817     A.U. after    6 cycles
 Optimization completed.
    -- Stationary point found.
 Normal termination of Gaussian 16 at Fri Dec 11 22:17:07 2020.

 --------------------------------------------------------------------
 #N Geom=AllCheck Guess=TCheck SCRF=Check GenChk RB3LYP/6-31G(d) Freq
 --------------------------------------------------------------------

 Structure from the checkpoint file:  "JID_8810.chk"
 -------------------------------
 CID_132194271_JID_8810_neutraal
 -------------------------------
 Charge =  0 Multiplicity = 1

 SCF Done:  E(RB3LYP) =  -919.454643817     A.U. after    1 cycles

  Exact polarizability: 140.197   2.580 125.390   2.487  -1.547 124.557
 Approx polarizability: 189.557   0.460 192.075  -4.069  -4.010 194.321

                      1                      2                      3
                      A                      A                      A
 Frequencies --    109.4361               126.1603               149.2396
 Red. masses --      4.0336                 4.6461                 4.7690
 Frc consts  --      0.0285                 0.0436                 0.0626
 IR Inten    --      5.6010                 4.8610                 3.8197

                      4                      5                      6
                      A                      A                      A
 Frequencies --    178.8370               184.9544               202.5956
 Red. masses --      2.2954                 4.1343                 2.1296
 Frc consts  --      0.0433                 0.0833                 0.0515
 IR Inten    --     19.3849                 0.3114                31.7170

                      7                      8                      9
                      A                      A                      A
 Frequencies --    222.8256               233.9490               243.9481
 Red. masses --      1.6675                 1.1479                 4.0323
 Frc consts  --      0.0488                 0.0370                 0.1414
 IR Inten    --     46.0166                 2.1220                18.9716

                     10                     11                     12
                      A                      A                      A
 Frequencies --    263.9939               283.6373               301.4065
 Red. masses --      4.0056                 3.2304                 3.2229
 Frc consts  --      0.1645                 0.1531                 0.1725
 IR Inten    --      7.0211                 4.1573                 4.2686

                     13                     14                     15
                      A                      A                      A
 Frequencies --    316.9720               327.6249               345.9700
 Red. masses --      2.4809                 4.2952                 2.6131
 Frc consts  --      0.1469                 0.2716                 0.1843
 IR Inten    --     22.1946                 0.3809                 8.5213

                     16                     17                     18
                      A                      A                      A
 Frequencies --    358.9951               373.6541               395.9897
 Red. masses --      3.8751                 3.3890                 3.6118
 Frc consts  --      0.2942                 0.2788                 0.3337
 IR Inten    --     25.2533                 2.2559                 1.3896

                     19                     20                     21
                      A                      A                      A
 Frequencies --    420.2958               444.9364               458.3204
 Red. masses --      1.2924                 2.6817                 3.4942
 Frc consts  --      0.1345                 0.3128                 0.4324
 IR Inten    --    142.2518                18.8561                 0.9912

                     22                     23                     24
                      A                      A                      A
 Frequencies --    484.8809               507.8318               512.5056
 Red. masses --      1.6948                 2.7921                 2.8048
 Frc consts  --      0.2348                 0.4242                 0.4341
 IR Inten    --     10.5611                 1.4182                17.4787

                     25                     26                     27
                      A                      A                      A
 Frequencies --    529.8485               550.8148               574.3586
 Red. masses --      3.1598                 2.8904                 3.3857
 Frc consts  --      0.5226                 0.5167                 0.6581
 IR Inten    --      6.0783                 1.5780                16.4853

                     28                     29                     30
                      A                      A                      A
 Frequencies --    597.2306               609.5697               632.6549
 Red. masses --      1.8695                 2.2469                 3.9000
 Frc consts  --      0.3929                 0.4919                 0.9197
 IR Inten    --     31.5973                44.0169                39.6558

                     31                     32                     33
                      A                      A                      A
 Frequencies --    643.1708               666.7715               697.6890
 Red. masses --      2.0976                 1.6406                 4.2753
 Frc consts  --      0.5112                 0.4297                 1.2261
 IR Inten    --     50.6686               116.6216                12.2294

                     34                     35                     36
                      A                      A                      A
 Frequencies --    774.6182               801.0345               817.7443
 Red. masses --      3.9635                 3.8139                 4.3227
 Frc consts  --      1.4012                 1.4419                 1.7031
 IR Inten    --     10.9911                17.9052                17.6319

                     37                     38                     39
                      A                      A                      A
 Frequencies --    827.2175               881.0790               899.0902
 Red. masses --      2.7081                 3.3574                 2.5535
 Frc consts  --      1.0918                 1.5356                 1.2162
 IR Inten    --     17.0587                13.8735                 2.9989

                     40                     41                     42
                      A                      A                      A
 Frequencies --    923.7964               930.4257               954.3333
 Red. masses --      2.4750                 3.0736                 2.2679
 Frc consts  --      1.2445                 1.5677                 1.2170
 IR Inten    --      0.2747                46.5375                26.8094

                     43                     44                     45
                      A                      A                      A
 Frequencies --    960.6345               979.3420               995.9333
 Red. masses --      2.3940                 2.0744                 3.1939
 Frc consts  --      1.3017                 1.1722                 1.8665
 IR Inten    --     10.3980                24.4609                 0.9012

                     46                     47                     48
                      A                      A                      A
 Frequencies --   1009.3188              1027.6097              1058.3420
 Red. masses --      2.2170                 2.1366                 2.1665
 Frc consts  --      1.3307                 1.3293                 1.4298
 IR Inten    --      5.7760                10.4534                36.0382

                     49                     50                     51
                      A                      A                      A
 Frequencies --   1065.7791              1074.4808              1094.1904
 Red. masses --      2.3315                 2.3185                 2.0417
 Frc consts  --      1.5604                 1.5771                 1.4402
 IR Inten    --      5.6869                68.4541                16.0978

                     52                     53                     54
                      A                      A                      A
 Frequencies --   1101.8000              1124.6427              1151.9309
 Red. masses --      2.1851                 2.9028                 1.9676
 Frc consts  --      1.5629                 2.1632                 1.5383
 IR Inten    --     68.6281                12.1462                14.6071

                     55                     56                     57
                      A                      A                      A
 Frequencies --   1159.3190              1174.2239              1182.4534
 Red. masses --      2.3796                 1.4946                 1.5223
 Frc consts  --      1.8844                 1.2142                 1.2540
 IR Inten    --     29.0450                37.0629                54.0546

                     58                     59                     60
                      A                      A                      A
 Frequencies --   1193.6267              1203.9699              1213.3546
 Red. masses --      2.4175                 1.6193                 2.5897
 Frc consts  --      2.0293                 1.3829                 2.2463
 IR Inten    --     14.5967                58.3140                64.6942

                     61                     62                     63
                      A                      A                      A
 Frequencies --   1222.1705              1256.4846              1271.8666
 Red. masses --      2.8706                 1.8213                 1.6203
 Frc consts  --      2.5263                 1.6941                 1.5443
 IR Inten    --     26.9845                50.4916                12.0401

                     64                     65                     66
                      A                      A                      A
 Frequencies --   1276.7448              1291.2621              1310.2592
 Red. masses --      2.6368                 1.5512                 1.4895
 Frc consts  --      2.5324                 1.5239                 1.5066
 IR Inten    --     64.9199                39.3055                43.4842

                     67                     68                     69
                      A                      A                      A
 Frequencies --   1317.5362              1330.0774              1337.1561
 Red. masses --      1.7178                 1.4114                 1.9023
 Frc consts  --      1.7569                 1.4711                 2.0040
 IR Inten    --     13.6063                41.1838                22.8785

                     70                     71                     72
                      A                      A                      A
 Frequencies --   1353.7667              1364.5441              1382.5761
 Red. masses --      1.4725                 1.7175                 1.5523
 Frc consts  --      1.5900                 1.8842                 1.7483
 IR Inten    --     13.7243                19.8507                40.8180

                     73                     74                     75
                      A                      A                      A
 Frequencies --   1390.2790              1398.1292              1411.4407
 Red. masses --      1.5030                 1.5056                 1.6812
 Frc consts  --      1.7116                 1.7340                 1.9733
 IR Inten    --     21.3952                25.2056                 8.0247

                     76                     77                     78
                      A                      A                      A
 Frequencies --   1421.6679              1441.0028              1447.6223
 Red. masses --      1.4563                 1.5424                 1.5364
 Frc consts  --      1.7342                 1.8870                 1.8970
 IR Inten    --     75.7544                27.2711                16.8320

                     79                     80                     81
                      A                      A                      A
 Frequencies --   1453.5201              1487.9424              1502.3677
 Red. masses --      1.3712                 1.1882                 1.0877
 Frc consts  --      1.7068                 1.5499                 1.4465
 IR Inten    --      1.2138               104.6192                 7.4152

                     82                     83                     84
                      A                      A                      A
 Frequencies --   1512.8687              1517.5863              1538.0304
 Red. masses --      1.0925                 1.0735                 1.0503
 Frc consts  --      1.4732                 1.4566                 1.4639
 IR Inten    --      3.4088                 3.5657                 3.7194

                     85                     86                     87
                      A                      A                      A
 Frequencies --   3022.4213              3041.2642              3063.4440
 Red. masses --      1.0811                 1.0662                 1.0677
 Frc consts  --      5.8187                 5.8104                 5.9037
 IR Inten    --     31.5455                57.5569                24.7123

                     88                     89                     90
                      A                      A                      A
 Frequencies --   3072.8231              3078.2670              3094.7203
 Red. masses --      1.0975                 1.0407                 1.0857
 Frc consts  --      6.1059                 5.8099                 6.1263
 IR Inten    --     15.1656                31.6039                47.3840

                     91                     92                     93
                      A                      A                      A
 Frequencies --   3123.1476              3124.4428              3139.7367
 Red. masses --      1.0990                 1.0855                 1.0897
 Frc consts  --      6.3159                 6.2436                 6.3293
 IR Inten    --     22.5481                 7.8540                33.2315

                     94                     95                     96
                      A                      A                      A
 Frequencies --   3149.8577              3168.4624              3185.4617
 Red. masses --      1.1015                 1.1023                 1.0874
 Frc consts  --      6.4387                 6.5201                 6.5011
 IR Inten    --     17.3613                 8.6280                10.8704

                     97                     98                     99
                      A                      A                      A
 Frequencies --   3644.4073              3658.5071              3674.1206
 Red. masses --      1.0658                 1.0640                 1.0648
 Frc consts  --      8.3402                 8.3909                 8.4686
 IR Inten    --    186.2635                20.4661                56.3830

                    100                    101                    102
                      A                      A                      A
 Frequencies --   3698.1511              3703.0498              3769.5241
 Red. masses --      1.0656                 1.0653                 1.0668
 Frc consts  --      8.5861                 8.6065                 8.9315
 IR Inten    --     38.1965                18.1786                32.5568

 - Thermochemistry -
 -------------------
 Temperature   298.150 Kelvin.  Pressure   1.00000 Atm.
 Atom     1 has atomic number  6 and mass  12.00000

 Molecular mass:   258.11034 amu.
 Principal axes and moments of inertia in atomic units:
                           1         2         3
     Eigenvalues --  2489.347604227.571194518.34494
           X            0.99966   0.01630   0.02038
           Y           -0.01619   0.99985  -0.00563
           Z           -0.02047   0.00530   0.99978
 This molecule is an asymmetric top.
 Rotational symmetry number  1.
 Warning -- assumption of classical behavior for rotation
           may cause significant error
 Rotational temperatures (Kelvin)      0.03479     0.02049     0.01917
 Rotational constants (GHZ):           0.72499     0.42690     0.39943
 Zero-point vibrational energy     796593.7 (Joules/Mol)
                                  190.39047 (Kcal/Mol)
 Warning -- explicit consideration of  29 degrees of freedom as
           vibrations may cause significant error
 Vibrational temperatures:    157.45   181.52   214.72   257.31   266.11
          (Kelvin)            291.49   320.60   336.60   350.99   379.83
                              408.09   433.66   456.05   471.38   497.77
                              516.51   537.60   569.74   604.71   640.16
                              659.42   697.64   730.66   737.38   762.33
                              792.50   826.37   859.28   877.03   910.25
                              925.38   959.34  1003.82  1114.50  1152.51
                             1176.55  1190.18  1267.68  1293.59  1329.14
                             1338.68  1373.07  1382.14  1409.05  1432.93
                             1452.18  1478.50  1522.72  1533.42  1545.94
                             1574.30  1585.24  1618.11  1657.37  1668.00
                             1689.45  1701.29  1717.36  1732.24  1745.75
                             1758.43  1807.80  1829.93  1836.95  1857.84
                             1885.17  1895.64  1913.68  1923.87  1947.77
                             1963.27  1989.22  2000.30  2011.60  2030.75
                             2045.46  2073.28  2082.81  2091.29  2140.82
                             2161.57  2176.68  2183.47  2212.88  4348.59
                             4375.70  4407.61  4421.11  4428.94  4452.61
                             4493.51  4495.38  4517.38  4531.94  4558.71
                             4583.17  5243.49  5263.78  5286.24  5320.81
                             5327.86  5423.50

 Zero-point correction=                           0.303407 (Hartree/Particle)
 Thermal correction to Energy=                    0.319157
 Thermal correction to Enthalpy=                  0.320101
 Thermal correction to Gibbs Free Energy=         0.263529
 Sum of electronic and zero-point Energies=           -919.151237
 Sum of electronic and thermal Energies=              -919.135487
 Sum of electronic and thermal Enthalpies=            -919.134543
 Sum of electronic and thermal Free Energies=         -919.191115

                     E (Thermal)             CV                S
                      KCal/Mol        Cal/Mol-Kelvin    Cal/Mol-Kelvin
 Total                  200.274             67.092            119.066
 Electronic               0.000              0.000              0.000
 Translational            0.889              2.981             42.544
 Rotational               0.889              2.981             32.231
 Vibrational            198.497             61.131             44.291
 Vibration     1          0.606              1.942              3.279
 Vibration     2          0.611              1.927              3.004
 Vibration     3          0.618              1.903              2.682
 Vibration     4          0.629              1.868              2.341
 Vibration     5          0.631              1.860              2.278
 Vibration     6          0.639              1.836              2.109
 Vibration     7          0.649              1.806              1.936
 Vibration     8          0.654              1.789              1.848
 Vibration     9          0.659              1.773              1.774
 Vibration    10          0.671              1.739              1.635
 Vibration    11          0.682              1.704              1.512
 Vibration    12          0.693              1.671              1.409
 Vibration    13          0.704              1.641              1.326
 Vibration    14          0.711              1.620              1.272
 Vibration    15          0.724              1.583              1.184
 Vibration    16          0.734              1.557              1.126
 Vibration    17          0.745              1.526              1.065
 Vibration    18          0.763              1.479              0.978
 Vibration    19          0.783              1.426              0.891
 Vibration    20          0.804              1.372              0.811
 Vibration    21          0.816              1.342              0.771
 Vibration    22          0.841              1.284              0.697
 Vibration    23          0.863              1.233              0.639
 Vibration    24          0.868              1.222              0.628
 Vibration    25          0.885              1.184              0.588
 Vibration    26          0.906              1.138              0.542
 Vibration    27          0.931              1.087              0.496
 Vibration    28          0.955              1.038              0.454
 Vibration    29          0.969              1.012              0.433

                           ! Non-Optimized Parameters !
 Normal termination of Gaussian 16 at Fri Dec 11 22:37:33 2020.

 ----------------------------------------------------------------------
 # B3LYP/6-311++G(d,p) empiricaldispersion=gd3bj scf=xqc pop=npa geom=c
 heck
 ----------------------------------------------------------------------

 ---------------------------------------
 CID_132194271_JID_8810_Energie_neutraal
 ---------------------------------------
 Structure from the checkpoint file:  "JID_8810.chk"
 Charge =  0 Multiplicity = 1

 SCF Done:  E(RB3LYP) =  -919.760540793     A.U. after   13 cycles
 Normal termination of Gaussian 16 at Fri Dec 11 22:43:54 2020.

 ----------------------------------------------------------------------
 # B3LYP/6-311++G(d,p) empiricaldispersion=gd3bj scf=xqc pop=npa geom=c
 heck
 ----------------------------------------------------------------------

 -------------------------------------
 CID_132194271_JID_8810_Energie_kation
 -------------------------------------
 Structure from the checkpoint file:  "JID_8810.chk"
 Charge =  1 Multiplicity = 2

 SCF Done:  E(UB3LYP) =  -919.448486397     A.U. after   22 cycles
 Normal termination of Gaussian 16 at Fri Dec 11 22:58:46 2020.
 Gaussian 16:  ES64L-G16RevA.03 25-Dec-2016

 ----------------------------------------------------------------------
 # B3LYP/6-311++G(d,p) empiricaldispersion=gd3bj scf=xqc pop=npa geom=c
 heck
 ----------------------------------------------------------------------

 ------------------------------------
 CID_132194271_JID_8810_Energie_anion
 ------------------------------------
 Structure from the checkpoint file:  "JID_8810.chk"
 Charge = -1 Multiplicity = 2

                         Standard orientation:
 ---------------------------------------------------------------------
 Center     Atomic      Atomic             Coordinates (Angstroms)
 Number     Number       Type             X           Y           Z
 ---------------------------------------------------------------------
      1          6           0        2.121199   -0.781910    1.806331
      2          6           0        1.775871   -0.594046    0.327762
      3          6           0        2.415851    0.709315   -0.191451
      4          6           0        1.585447    1.936149    0.201931
      5          6           0        0.075661    1.736394    0.145824
      6          6           0       -0.691634    1.203344   -1.095005
      7          6           0       -0.199760   -0.252087   -1.377025
      8          6           0        0.240707   -0.631059    0.083694
      9          6           0       -0.547462    0.479191    0.802049
     10          6           0       -1.806505    0.729636   -0.121087
     11          6           0       -2.523371   -0.494878   -0.699937
     12          6           0       -1.492817   -1.003136   -1.741200
     13          8           0       -2.903978   -1.440706    0.293370
     14          8           0       -2.642450    1.723133    0.414005
     15          8           0       -0.704148    0.411584    2.188223
     16          8           0       -0.206277   -1.916406    0.527433
     17          8           0        2.559549    0.573465   -1.616826
     18          8           0        2.335175   -1.721166   -0.362707
     19          1           0        3.207600   -0.844594    1.917455
     20          1           0        1.683505   -1.711713    2.176155
     21          1           0        1.733951    0.037269    2.415274
     22          1           0        3.420579    0.785445    0.246385
     23          1           0        1.852370    2.218229    1.228599
     24          1           0        1.881503    2.782390   -0.432366
     25          1           0       -0.436415    2.626104    0.516921
     26          1           0       -0.905125    1.836573   -1.957472
     27          1           0        0.588818   -0.342545   -2.118936
     28          1           0       -3.456011   -0.167578   -1.168487
     29          1           0       -1.389703   -2.091070   -1.717490
     30          1           0       -1.797662   -0.719857   -2.755310
     31          1           0       -2.088042   -1.928737    0.509907
     32          1           0       -2.791064    1.471727    1.342053
     33          1           0       -0.908184   -0.517114    2.395318
     34          1           0        0.456151   -2.544774    0.181616
     35          1           0        3.185501    1.247188   -1.919722
     36          1           0        2.540127   -1.397658   -1.259211
 ---------------------------------------------------------------------

 SCF Done:  E(UB3LYP) =  -919.754443340     A.U. after   27 cycles

 The electronic state is 2-A.
 Alpha  occ. eigenvalues --  -19.05186 -19.05104 -19.03850 -19.02891 -19.02079
 Alpha  occ. eigenvalues --  -19.02064 -10.14298 -10.14278 -10.13797 -10.13084
 Alpha  occ. eigenvalues --  -10.12405 -10.12215 -10.08654 -10.08319 -10.08205
 Alpha  occ. eigenvalues --  -10.07713 -10.06772 -10.06285  -0.97484  -0.95601
 Alpha  occ. eigenvalues --   -0.94161  -0.93715  -0.92162  -0.90981  -0.80886
 Alpha  occ. eigenvalues --   -0.70885  -0.68060  -0.64360  -0.62155  -0.58994
 Alpha  occ. eigenvalues --   -0.56952  -0.53386  -0.52324  -0.48622  -0.47849
 Alpha  occ. eigenvalues --   -0.45710  -0.45380  -0.43332  -0.42303  -0.40958
 Alpha  occ. eigenvalues --   -0.39404  -0.38878  -0.37129  -0.35873  -0.35525
 Alpha  occ. eigenvalues --   -0.34520  -0.33648  -0.32174  -0.31587  -0.30591
 Alpha  occ. eigenvalues --   -0.30492  -0.29826  -0.29544  -0.28866  -0.27443
 Alpha  occ. eigenvalues --   -0.26601  -0.25934  -0.25045  -0.24454  -0.23924
 Alpha  occ. eigenvalues --   -0.22636  -0.22373  -0.21999  -0.21307  -0.20276
 Alpha  occ. eigenvalues --   -0.18544  -0.17896  -0.16809  -0.15437   0.04378
 Alpha virt. eigenvalues --    0.06730   0.07261   0.07752   0.08886   0.09534
 Alpha virt. eigenvalues --    0.09721   0.09937   0.10346   0.11624   0.11959
 Alpha virt. eigenvalues --    0.12339   0.12529   0.13001   0.13144   0.14085

  Beta  occ. eigenvalues --  -19.05180 -19.05095 -19.03847 -19.02869 -19.02076
  Beta  occ. eigenvalues --  -19.01982 -10.14295 -10.14274 -10.13797 -10.13083
  Beta  occ. eigenvalues --  -10.12404 -10.12181 -10.08649 -10.08318 -10.08196
  Beta  occ. eigenvalues --  -10.07707 -10.06738 -10.06270  -0.97471  -0.95580
  Beta  occ. eigenvalues --   -0.94152  -0.93646  -0.92148  -0.90863  -0.80874
  Beta  occ. eigenvalues --   -0.70841  -0.68036  -0.64308  -0.62134  -0.58973
  Beta  occ. eigenvalues --   -0.56896  -0.53336  -0.52290  -0.48595  -0.47818
  Beta  occ. eigenvalues --   -0.45666  -0.45359  -0.43305  -0.42256  -0.40845
  Beta  occ. eigenvalues --   -0.39384  -0.38856  -0.37110  -0.35837  -0.35494
  Beta  occ. eigenvalues --   -0.34485  -0.33631  -0.32141  -0.31543  -0.30550
  Beta  occ. eigenvalues --   -0.30474  -0.29804  -0.29526  -0.28845  -0.27427
  Beta  occ. eigenvalues --   -0.26579  -0.25895  -0.25028  -0.24427  -0.23895
  Beta  occ. eigenvalues --   -0.22605  -0.22350  -0.21985  -0.21291  -0.20250
  Beta  occ. eigenvalues --   -0.18528  -0.17830  -0.16782  -0.15428
  Beta virt. eigenvalues --    0.06553   0.07420   0.07784   0.08163   0.09353
  Beta virt. eigenvalues --    0.09961   0.10234   0.10332   0.10537   0.11855
  Beta virt. eigenvalues --    0.12330   0.12456   0.12878   0.13121   0.13770

 Mulliken charges and spin densities:
               1          2
     1  C    0.783144  -1.196240
     2  C   -1.062413   0.769488
     3  C    0.657848  -0.769202
     4  C    1.992868  -2.567358
     5  C   -1.020756   1.135262
     6  C   -0.358969   0.424997
     7  C    0.116896   0.284082
     8  C   -0.215166  -0.247945
     9  C   -0.193553  -0.312184
    10  C   -0.094857  -0.414272
    11  C   -0.366933   0.259310
    12  C    0.151787  -0.833398
    13  O   -0.163362   0.008327
    14  O   -0.229101   0.003743
    15  O   -0.128720   0.024061
    16  O   -0.210919   0.017433
    17  O   -0.263629   0.009200
    18  O   -0.155939   0.030089
    19  H   -0.108108   0.297726
    20  H    0.178698  -0.006315
    21  H    0.004022   0.192067
    22  H   -0.766145   0.998680
    23  H    0.029268   0.110875
    24  H   -0.634451   0.839583
    25  H    0.145794   0.107946
    26  H   -0.085801   0.314622
    27  H    0.138656   0.151143
    28  H    0.200576   0.010298
    29  H    0.107160   0.061486
    30  H   -0.002522   0.149041
    31  H    0.256211  -0.001718
    32  H    0.256104   0.018176
    33  H    0.239523   0.043731
    34  H    0.200635   0.090292
    35  H   -0.437845   0.745883
    36  H    0.040000   0.251091
 Sum of Mulliken charges =  -1.00000   1.00000

 Dipole moment (field-independent basis, Debye):
    X=             -8.0417    Y=             -4.4280    Z=              3.2143  Tot=              9.7266
 Quadrupole moment (field-independent basis, Debye-Ang):
   XX=           -186.9419   YY=           -147.4750   ZZ=           -141.0323
   XY=            -15.4487   XZ=             11.8994   YZ=              5.2066

 Summary of Natural Population Analysis:

                                       Natural Population
                Natural  -----------------------------------------------
    Atom  No    Charge         Core      Valence    Rydberg      Total
 -----------------------------------------------------------------------
      C    1   -0.29453      0.99961     2.28720    0.00772     3.29453
      C    2    0.11845      0.99942     1.86293    0.01920     2.88155
      C    3    0.05892      0.99947     1.92480    0.01681     2.94108
      C    4   -0.20440      0.99958     2.19406    0.01076     3.20440
      C    5   -0.10879      0.99954     2.09637    0.01288     3.10879
      C    6   -0.09851      0.99953     2.08531    0.01367     3.09851
      C    7   -0.12145      0.99956     2.10788    0.01401     3.12145
      C    8    0.12633      0.99934     1.85360    0.02073     2.87367
      C    9    0.12887      0.99923     1.84791    0.02399     2.87113
      C   10    0.12688      0.99936     1.85450    0.01926     2.87312
      C   11    0.05099      0.99945     1.93448    0.01508     2.94901
      C   12   -0.20144      0.99961     2.19231    0.00952     3.20144
      O   13   -0.38539      0.99990     3.37864    0.00686     4.38539
      O   14   -0.37188      0.99988     3.36493    0.00707     4.37188
      O   15   -0.37029      0.99987     3.36286    0.00756     4.37029
      O   16   -0.40226      0.99987     3.39433    0.00805     4.40226
      O   17   -0.39404      0.99989     3.38715    0.00700     4.39404
      O   18   -0.39152      0.99989     3.38496    0.00667     4.39152
      H   19    0.10659      0.00000     0.39243    0.00098     0.39341
      H   20    0.10282      0.00000     0.39622    0.00096     0.39718
      H   21    0.10995      0.00000     0.38906    0.00099     0.39005
      H   22    0.09327      0.00000     0.40224    0.00449     0.40673
      H   23    0.10678      0.00000     0.39194    0.00128     0.39322
      H   24    0.11287      0.00000     0.38523    0.00190     0.38713
      H   25    0.11208      0.00000     0.38617    0.00175     0.38792
      H   26    0.10685      0.00000     0.39227    0.00089     0.39315
      H   27    0.12248      0.00000     0.37567    0.00185     0.37752
      H   28    0.09020      0.00000     0.40816    0.00164     0.40980
      H   29    0.10520      0.00000     0.39377    0.00103     0.39480
      H   30    0.10346      0.00000     0.39564    0.00090     0.39654
      H   31    0.24059      0.00000     0.25628    0.00313     0.25941
      H   32    0.23413      0.00000     0.26317    0.00271     0.26587
      H   33    0.23635      0.00000     0.26104    0.00261     0.26365
      H   34    0.24742      0.00000     0.24985    0.00273     0.25258
      H   35    0.25516      0.00000     0.20703    0.03780     0.24484
      H   36    0.24787      0.00000     0.24841    0.00373     0.25213
 =======================================================================
   * Total *    0.00000     17.99299    50.70881    0.29820    69.00000

 Normal termination of Gaussian 16 at Fri Dec 11 23:16:59 2020.
